Title
81377
    1CHL1    C3    1   1.887   6.700  10.269  0.6950  0.2908  0.0685
    1CHL1    H3    2   1.908   6.809  10.268 -1.4708  0.7361 -0.0068
    1CHL1    O3    3   1.890   6.647  10.403 -0.1904 -0.4283 -0.5979
    1CHL1   H3'    4   1.801   6.619  10.425  0.1792 -2.1049 -1.0960
    1CHL1    C4    5   1.751   6.669  10.217 -0.3019  0.5702  0.3226
    1CHL1   H4A    6   1.725   6.561  10.224  0.9440  0.2143 -0.5237
    1CHL1   H4B    7   1.689   6.740  10.276  0.9314  1.0949  1.0092
    1CHL1    C5    8   1.734   6.694  10.073 -0.0960 -0.2350 -0.2342
    1CHL1    C6    9   1.632   6.769  10.032  0.1315  0.0423  0.1138
    1CHL1    H6   10   1.549   6.799  10.097  0.5669 -0.5096  0.9291
    1CHL1    C7   11   1.607   6.802   9.883  0.2244 -0.5145  0.2454
    1CHL1   H7A   12   1.500   6.814   9.859  0.8551  1.3989 -1.7509
    1CHL1   H7B   13   1.648   6.901   9.853  1.1557 -1.3036 -1.1107
    1CHL1    C8   14   1.675   6.690   9.795 -0.1665 -0.8222 -0.3166
    1CHL1    H8   15   1.627   6.596   9.829  1.3993 -0.7382  2.2903
    1CHL1   C14   16   1.668   6.738   9.654  0.1218  1.1321  0.2790
    1CHL1   H14   17   1.728   6.831   9.662  3.0482 -0.7223  0.5325
    1CHL1   C15   18   1.532   6.768   9.584 -0.0747 -0.3780 -0.2634
    1CHL1  H15A   19   1.461   6.685   9.605  0.8179 -1.7125 -2.3376
    1CHL1  H15B   20   1.480   6.861   9.614 -1.3608 -1.4370  0.8297
    1CHL1   C16   21   1.567   6.786   9.437  0.0824  0.5015  0.0244
    1CHL1  H16A   22   1.510   6.707   9.383  0.4058 -0.3417  0.9037
    1CHL1  H16B   23   1.534   6.881   9.390 -0.6504  1.8188  3.0902
    1CHL1   C17   24   1.716   6.746   9.417  0.0128  0.1802  0.4334
    1CHL1   H17   25   1.771   6.843   9.422 -1.9746  1.4424 -1.4945
    1CHL1   C13   26   1.746   6.661   9.540 -0.0687 -0.3883  0.0609
    1CHL1   C18   27   1.692   6.519   9.529  0.4251  0.2476 -0.1595
    1CHL1  H18A   28   1.584   6.523   9.506  0.9856  0.0857 -2.9936
    1CHL1  H18B   29   1.741   6.459   9.450 -1.1526 -0.8977 -0.2792
    1CHL1  H18C   30   1.706   6.466   9.626  1.6976  3.1285  1.2997
    1CHL1   C12   31   1.896   6.654   9.585 -0.6967  0.4107 -0.5689
    1CHL1  H12A   32   1.962   6.597   9.516  1.3656  1.5940  0.4057
    1CHL1  H12B   33   1.935   6.757   9.571  1.4080 -0.0428  1.6081
    1CHL1   C11   34   1.910   6.591   9.723  0.1848 -0.3098 -0.3870
    1CHL1  H11A   35   1.884   6.483   9.733  0.1071 -0.5667 -2.9003
    1CHL1  H11B   36   2.014   6.602   9.760 -0.9461  0.3815  2.7147
    1CHL1    C9   37   1.830   6.665   9.833  0.2387 -0.3899 -0.3630
    1CHL1    H9   38   1.874   6.767   9.832 -1.3073  0.2912 -1.0302
    1CHL1   C10   39   1.837   6.619   9.983 -0.4292 -0.4280  0.9749
    1CHL1   C19   40   1.828   6.461   9.984 -0.8679 -0.2104 -0.5439
    1CHL1  H19A   41   1.914   6.420   9.927  0.5214 -2.5665  3.0668
    1CHL1  H19B   42   1.839   6.416  10.085  0.4475  1.2153 -0.0162
    1CHL1  H19C   43   1.739   6.427   9.927 -2.3700 -0.5756  1.9171
    1CHL1    C1   44   1.979   6.651  10.037  0.0373  0.0604 -0.3894
    1CHL1   H1A   45   2.056   6.597   9.979 -2.5761 -2.0907 -1.9720
    1CHL1   H1B   46   2.005   6.756  10.011 -5.2263  2.0548  1.7758
    1CHL1    C2   47   1.991   6.632  10.189 -1.0828  0.0027 -0.4073
    1CHL1   H2A   48   2.092   6.669  10.219  0.3946 -3.1885 -1.1440
    1CHL1   H2B   49   1.985   6.525  10.218 -3.2790  0.3723  0.5382
    1CHL1   C20   50   1.747   6.693   9.270  0.4730  0.7716 -0.2423
    1CHL1   H20   51   1.695   6.598   9.245  2.3621 -0.0259 -1.2303
    1CHL1   C21   52   1.894   6.676   9.249 -0.1751 -0.1614  0.5391
    1CHL1  H21A   53   1.914   6.645   9.144  2.0736 -1.7954  1.4013
    1CHL1  H21B   54   1.923   6.584   9.305 -0.1626  0.6617  1.9207
    1CHL1  H21C   55   1.958   6.761   9.284  1.7693 -1.5621  0.4854
    1CHL1   C22   56   1.685   6.785   9.160  0.0906  0.2758 -0.3924
    1CHL1  H22A   57   1.580   6.812   9.187  0.5586  1.0731  0.6880
    1CHL1  H22B   58   1.742   6.879   9.147 -1.4777  1.4470  0.9957
    1CHL1   C23   59   1.674   6.712   9.025 -0.3919 -0.0971  0.0373
    1CHL1  H23A   60   1.771   6.672   8.988 -0.9702 -0.5461 -1.0081
    1CHL1  H23B   61   1.613   6.622   9.046  0.2185  0.2078  3.3996
    1CHL1   C24   62   1.608   6.800   8.912 -0.1133 -1.0277  0.4285
    1CHL1  H24A   63   1.508   6.837   8.944  0.4804 -0.7533  2.0064
    1CHL1  H24B   64   1.673   6.890   8.901 -0.0159 -1.2877 -1.1461
    1CHL1   C25   65   1.612   6.740   8.767  0.4450 -0.4986 -0.1280
    1CHL1   H25   66   1.711   6.694   8.744  0.2380 -1.6981  1.2695
    1CHL1   C26   67   1.529   6.616   8.746  0.1477 -0.0022  0.1142
    1CHL1  H26A   68   1.522   6.587   8.639  0.8037 -0.3421  0.1612
    1CHL1  H26B   69   1.570   6.536   8.811  1.7596 -1.4578 -2.5994
    1CHL1  H26C   70   1.429   6.644   8.787  0.9795  0.4738  1.8598
    1CHL1   C27   71   1.576   6.848   8.666  0.2563 -0.4507 -0.3082
    1CHL1  H27A   72   1.628   6.932   8.716 -5.4148  2.7801  0.4814
    1CHL1  H27B   73   1.613   6.831   8.562 -1.4859  0.2553 -1.0555
    1CHL1  H27C   74   1.468   6.869   8.680  0.7228 -0.0112  3.0436
    2CHL1    C3   75   3.316   4.571  10.058  0.0256  0.3881 -0.6114
    2CHL1    H3   76   3.427   4.568  10.061  0.0078 -1.4130 -0.8327
    2CHL1    O3   77   3.255   4.580  10.181 -0.6669  0.6298  0.4362
    2CHL1   H3'   78   3.271   4.490  10.210 -0.4572 -0.2850 -2.3246
    2CHL1    C4   79   3.276   4.694   9.975  0.6632 -0.4335 -0.0108
    2CHL1   H4A   80   3.165   4.699   9.987  0.8057 -1.1201  1.8999
    2CHL1   H4B   81   3.318   4.785  10.023 -0.0716 -2.2947  4.4968
    2CHL1    C5   82   3.300   4.678   9.826  0.2308  0.7552 -0.5168
    2CHL1    C6   83   3.363   4.776   9.762 -0.0075 -0.7081  0.4105
    2CHL1    H6   84   3.386   4.866   9.821  2.0201  0.3882 -1.9438
    2CHL1    C7   85   3.386   4.778   9.618 -0.1432  0.3470  0.1905
    2CHL1   H7A   86   3.366   4.880   9.580 -1.3162  0.2079  0.4222
    2CHL1   H7B   87   3.493   4.759   9.595  0.1733  0.1172  1.7753
    2CHL1    C8   88   3.309   4.670   9.537  0.9538 -0.1457  0.6276
    2CHL1    H8   89   3.202   4.701   9.539  0.2613 -2.5123  2.2701
    2CHL1   C14   90   3.375   4.647   9.405  0.8365 -0.0136  0.0019
    2CHL1   H14   91   3.475   4.607   9.433  0.7301  0.3349  0.9237
    2CHL1   C15   92   3.399   4.777   9.315  0.6376  0.3747 -0.2318
    2CHL1  H15A   93   3.308   4.838   9.335 -0.8493 -2.1520  1.0445
    2CHL1  H15B   94   3.490   4.837   9.332  2.0470 -2.3613  2.5692
    2CHL1   C16   95   3.410   4.715   9.170 -0.8081 -0.4595  0.8027
    2CHL1  H16A   96   3.326   4.755   9.109  1.0160  1.9246 -0.2071
    2CHL1  H16B   97   3.504   4.742   9.118 -2.1896 -0.6756 -1.8778
    2CHL1   C17   98   3.403   4.559   9.183 -0.0809  0.2600 -1.1442
    2CHL1   H17   99   3.502   4.516   9.211 -0.1176  0.8703 -0.0843
    2CHL1   C13  100   3.313   4.535   9.311 -0.0620 -0.0345 -0.5555
    2CHL1   C18  101   3.163   4.577   9.291 -0.5913 -0.1199  0.6712
    2CHL1  H18A  102   3.107   4.492   9.246 -1.7595  0.7032  0.5411
    2CHL1  H18B  103   3.112   4.614   9.382 -0.5676  2.4742 -0.3159
    2CHL1  H18C  104   3.167   4.664   9.222 -1.4184  0.5276  1.4357
    2CHL1   C12  105   3.319   4.408   9.383  0.3435  0.5493 -0.4057
    2CHL1  H12A  106   3.274   4.317   9.339 -0.6988  0.8035  0.1070
    2CHL1  H12B  107   3.426   4.379   9.394  0.2354 -0.5345 -2.0874
    2CHL1   C11  108   3.267   4.413   9.529  0.1777  0.3863  0.9131
    2CHL1  H11A  109   3.159   4.433   9.513  0.0209 -0.4136  0.9468
    2CHL1  H11B  110   3.279   4.317   9.584  0.3760 -0.5307 -0.7067
    2CHL1    C9  111   3.327   4.536   9.612  0.7388  0.0353 -0.1052
    2CHL1    H9  112   3.431   4.498   9.617  0.4396 -0.6522  1.0167
    2CHL1   C10  113   3.266   4.548   9.758 -0.2361 -0.2490 -0.6482
    2CHL1   C19  114   3.115   4.554   9.752 -0.6422 -0.4206  0.4067
    2CHL1  H19A  115   3.075   4.466   9.699 -0.1060  1.5771 -3.4952
    2CHL1  H19B  116   3.064   4.553   9.851 -0.7230  1.7796  0.4114
    2CHL1  H19C  117   3.089   4.651   9.704  1.5838 -0.3409 -0.7084
    2CHL1    C1  118   3.312   4.431   9.846 -0.0499 -0.5046 -0.6381
    2CHL1   H1A  119   3.286   4.329   9.809 -0.0126 -1.0894  0.9085
    2CHL1   H1B  120   3.423   4.425   9.849 -0.0878 -0.6629  0.5785
    2CHL1    C2  121   3.269   4.443   9.992  0.2075  0.1820  0.2105
    2CHL1   H2A  122   3.309   4.358  10.052 -1.6377 -0.4631  0.5826
    2CHL1   H2B  123   3.159   4.426  10.002  0.1738  1.1222  1.6524
    2CHL1   C20  124   3.366   4.487   9.048  0.5089 -1.0299  0.4600
    2CHL1   H20  125   3.261   4.519   9.030  0.7137 -1.6274 -2.0622
    2CHL1   C21  126   3.368   4.338   9.067  0.2752 -0.2560 -0.0633
    2CHL1  H21A  127   3.464   4.290   9.095  1.5669  2.2328 -0.1310
    2CHL1  H21B  128   3.318   4.279   8.986 -0.1021  2.4709 -1.8907
    2CHL1  H21C  129   3.301   4.312   9.151 -2.6753  1.5361 -1.7670
    2CHL1   C22  130   3.447   4.532   8.919  0.0119  0.1833  0.6177
    2CHL1  H22A  131   3.497   4.631   8.929  0.7383 -0.1921  0.7429
    2CHL1  H22B  132   3.534   4.463   8.913 -0.5690 -0.5340  0.4094
    2CHL1   C23  133   3.363   4.519   8.791 -0.0873  0.4814 -1.1487
    2CHL1  H23A  134   3.363   4.410   8.771 -2.1798 -0.1974  2.1213
    2CHL1  H23B  135   3.259   4.556   8.802 -0.6261 -0.4014 -3.0705
    2CHL1   C24  136   3.424   4.602   8.682 -0.2058 -0.3469 -0.6406
    2CHL1  H24A  137   3.440   4.707   8.716 -1.6149 -0.4978  0.5292
    2CHL1  H24B  138   3.524   4.560   8.660  0.4754  1.0191 -0.2230
    2CHL1   C25  139   3.329   4.605   8.554  0.0107 -0.6828 -0.4464
    2CHL1   H25  140   3.249   4.673   8.591  1.2569  0.3403  0.4111
    2CHL1   C26  141   3.377   4.682   8.432 -0.4323 -0.0073 -1.0628
    2CHL1  H26A  142   3.307   4.656   8.349 -1.3394  0.3646 -0.4223
    2CHL1  H26B  143   3.366   4.791   8.450 -1.6705 -0.0573 -1.4727
    2CHL1  H26C  144   3.484   4.660   8.413 -0.2527  1.6722 -2.1192
    2CHL1   C27  145   3.282   4.471   8.505  0.5776 -0.3238  0.4785
    2CHL1  H27A  146   3.235   4.416   8.589  2.3929  0.5642  2.1091
    2CHL1  H27B  147   3.210   4.469   8.420  0.3709  0.9556  0.6112
    2CHL1  H27C  148   3.369   4.420   8.458  0.1429 -2.7265  2.1921
    3CHL1    C3  149   3.798   4.129  10.232  0.0387  0.5384  0.1235
    3CHL1    H3  150   3.897   4.174  10.211  0.6552 -1.4671 -1.3855
    3CHL1    O3  151   3.773   4.109  10.368 -0.2771  0.2622 -0.7889
    3CHL1   H3'  152   3.681   4.135  10.378  0.0965  0.5423  2.3052
    3CHL1    C4  153   3.696   4.233  10.177  0.5053  0.3590  0.2031
    3CHL1   H4A  154   3.594   4.195  10.199  0.9011  1.1982  3.6755
    3CHL1   H4B  155   3.727   4.322  10.236 -1.5561  0.3861  1.2885
    3CHL1    C5  156   3.709   4.252  10.028 -0.0047 -0.1617 -0.1608
    3CHL1    C6  157   3.715   4.372   9.967 -0.3161  0.6834  0.1008
    3CHL1    H6  158   3.719   4.457  10.036  0.2809  1.9320 -1.4533
    3CHL1    C7  159   3.712   4.396   9.819  0.3180  0.3577 -0.7910
    3CHL1   H7A  160   3.623   4.461   9.803  0.3358  0.0678 -2.0896
    3CHL1   H7B  161   3.796   4.456   9.778 -0.0008  2.1835  1.1383
    3CHL1    C8  162   3.700   4.262   9.733  0.1084  0.2541  0.2668
    3CHL1    H8  163   3.589   4.249   9.729  0.3072 -2.1986  2.2208
    3CHL1   C14  164   3.756   4.286   9.598  0.0118  0.0659  0.3504
    3CHL1   H14  165   3.865   4.307   9.608  0.1283 -0.8046  0.9222
    3CHL1   C15  166   3.711   4.406   9.515  0.9209  0.3505 -0.6898
    3CHL1  H15A  167   3.601   4.419   9.502  0.8397  1.4688  1.0264
    3CHL1  H15B  168   3.740   4.503   9.561 -1.6723  0.1828  1.4347
    3CHL1   C16  169   3.766   4.380   9.371 -0.4527  0.3228 -0.4791
    3CHL1  H16A  170   3.692   4.417   9.297 -2.5642 -1.0184  0.9179
    3CHL1  H16B  171   3.865   4.426   9.351  0.3072 -1.3095 -0.5485
    3CHL1   C17  172   3.807   4.228   9.367 -0.0647  0.3637 -0.1847
    3CHL1   H17  173   3.917   4.221   9.381  0.1555 -1.7808 -2.6775
    3CHL1   C13  174   3.744   4.170   9.500 -0.1146 -0.4630 -1.1728
    3CHL1   C18  175   3.593   4.144   9.467  0.1232  0.2454  0.5609
    3CHL1  H18A  176   3.539   4.239   9.442 -1.1824  0.0011  2.3399
    3CHL1  H18B  177   3.583   4.073   9.382 -0.9020 -0.2778  1.1090
    3CHL1  H18C  178   3.534   4.100   9.550  0.8753 -0.2906  0.8172
    3CHL1   C12  179   3.815   4.051   9.562 -0.6900  0.0174  0.1476
    3CHL1  H12A  180   3.797   3.962   9.499 -1.4457  0.3269 -0.0668
    3CHL1  H12B  181   3.924   4.073   9.572 -0.3451 -1.6522  0.3085
    3CHL1   C11  182   3.772   4.021   9.705 -0.5865 -0.3225  0.3892
    3CHL1  H11A  183   3.669   3.978   9.707 -0.9357  0.4454 -0.6088
    3CHL1  H11B  184   3.833   3.935   9.740 -0.5066 -1.9429 -3.5290
    3CHL1    C9  185   3.765   4.149   9.796  0.0693 -0.5161 -0.0378
    3CHL1    H9  186   3.871   4.181   9.811  0.1953 -1.4708  1.2133
    3CHL1   C10  187   3.717   4.126   9.943 -0.1101  0.7289  0.6683
    3CHL1   C19  188   3.564   4.074   9.950 -0.3765 -0.2280  0.0984
    3CHL1  H19A  189   3.496   4.138   9.890 -1.3187 -1.3364 -0.0356
    3CHL1  H19B  190   3.565   3.980   9.891  1.3030  1.1314 -2.1282
    3CHL1  H19C  191   3.525   4.053  10.052 -0.4629 -1.7938 -0.2447
    3CHL1    C1  192   3.815   4.015  10.005  0.5373  0.3513  0.5268
    3CHL1   H1A  193   3.802   3.922   9.945  1.3663  1.0880 -0.8067
    3CHL1   H1B  194   3.920   4.050  10.001  1.0917 -1.4009 -0.8478
    3CHL1    C2  195   3.793   3.995  10.156  0.4542  0.3544  0.1961
    3CHL1   H2A  196   3.873   3.928  10.194  2.6586  1.7082 -1.8527
    3CHL1   H2B  197   3.694   3.949  10.176  0.6821  0.3164  1.2929
    3CHL1   C20  198   3.773   4.158   9.232  0.2436 -0.2907 -0.0830
    3CHL1   H20  199   3.662   4.158   9.228  0.2140 -2.8691  0.0409
    3CHL1   C21  200   3.817   4.011   9.230  0.5664 -0.6848 -0.0124
    3CHL1  H21A  201   3.927   3.997   9.231  1.0741  2.9144  0.4707
    3CHL1  H21B  202   3.782   3.971   9.132 -0.7774  0.1915  0.0966
    3CHL1  H21C  203   3.766   3.945   9.303  2.2412 -0.8243  1.0560
    3CHL1   C22  204   3.847   4.232   9.114  0.4734 -0.2092 -0.6688
    3CHL1  H22A  205   3.831   4.342   9.123 -1.6650 -0.4338 -1.4483
    3CHL1  H22B  206   3.952   4.197   9.106  0.6289  0.1189 -0.0695
    3CHL1   C23  207   3.780   4.202   8.973  0.1102  0.7362 -0.0783
    3CHL1  H23A  208   3.805   4.100   8.938  2.2548  0.5245  1.9797
    3CHL1  H23B  209   3.670   4.215   8.979  0.1411  1.3081 -0.6138
    3CHL1   C24  210   3.825   4.297   8.861  0.2676 -0.3967 -0.0562
    3CHL1  H24A  211   3.797   4.403   8.878 -1.1071 -0.3393 -2.5203
    3CHL1  H24B  212   3.934   4.279   8.846  0.3719  0.5269 -0.4407
    3CHL1   C25  213   3.773   4.251   8.719 -0.3615 -0.2666 -0.2473
    3CHL1   H25  214   3.789   4.142   8.703  0.0287 -0.4776  1.5447
    3CHL1   C26  215   3.628   4.275   8.722 -0.0563  0.4203  0.5623
    3CHL1  H26A  216   3.610   4.385   8.729 -0.9960  0.3018 -0.0018
    3CHL1  H26B  217   3.573   4.246   8.631  0.2593  0.5470  0.3288
    3CHL1  H26C  218   3.575   4.222   8.804  2.1954 -0.3346  1.5788
    3CHL1   C27  219   3.838   4.330   8.605  0.5629 -0.5843 -0.8307
    3CHL1  H27A  220   3.786   4.326   8.507 -0.1663  0.5413 -0.4989
    3CHL1  H27B  221   3.832   4.440   8.623 -0.1911 -0.6183 -0.8538
    3CHL1  H27C  222   3.947   4.309   8.603  0.6291 -0.4248  0.4545
    4CHL1    C3  223   2.990   6.540  10.478 -0.4521  0.6992  0.6010
    4CHL1    H3  224   2.905   6.611  10.491  0.1011  1.4781  0.0415
    4CHL1    O3  225   3.031   6.505  10.609 -0.3786 -0.5616  0.0434
    4CHL1   H3'  226   3.036   6.593  10.647  0.6754 -0.4340 -0.3663
    4CHL1    C4  227   2.945   6.415  10.404  0.3303 -0.8224 -0.1607
    4CHL1   H4A  228   3.025   6.339  10.405  0.1792 -1.0051 -1.3518
    4CHL1   H4B  229   2.856   6.377  10.460  0.9879  0.3287  1.7199
    4CHL1    C5  230   2.906   6.461  10.261  0.6274 -0.6267 -0.0343
    4CHL1    C6  231   2.783   6.440  10.215  0.1182 -0.3174  0.0608
    4CHL1    H6  232   2.714   6.384  10.280 -1.7556  1.2528 -0.5473
    4CHL1    C7  233   2.736   6.467  10.077  0.4752  0.8007 -0.1388
    4CHL1   H7A  234   2.682   6.383  10.028 -0.8756  2.4114 -1.4819
    4CHL1   H7B  235   2.677   6.561  10.082 -0.3309  0.1872  2.4620
    4CHL1    C8  236   2.847   6.499   9.978  0.6804 -0.3447 -0.0957
    4CHL1    H8  237   2.907   6.407   9.960  2.1362  0.8197 -1.3754
    4CHL1   C14  238   2.800   6.571   9.856 -0.1204 -0.6952  0.2697
    4CHL1   H14  239   2.755   6.667   9.889  1.9977  0.8388 -1.1469
    4CHL1   C15  240   2.687   6.507   9.771 -0.5721 -0.4533 -0.5948
    4CHL1  H15A  241   2.696   6.401   9.738 -0.6967 -0.3790 -0.8752
    4CHL1  H15B  242   2.599   6.526   9.836 -0.0974  0.3631 -0.1864
    4CHL1   C16  243   2.682   6.597   9.651  0.0851  0.1816  0.3581
    4CHL1  H16A  244   2.676   6.529   9.563  0.8069 -1.1885  1.3458
    4CHL1  H16B  245   2.604   6.675   9.663 -1.1051 -1.4803  4.2558
    4CHL1   C17  246   2.819   6.677   9.644  0.7704  0.3571  0.0675
    4CHL1   H17  247   2.798   6.782   9.673  1.9196  0.6084  0.0189
    4CHL1   C13  248   2.906   6.611   9.755  0.1626  0.4395 -0.4622
    4CHL1   C18  249   2.956   6.475   9.700 -0.1646  0.2046 -0.1881
    4CHL1  H18A  250   3.028   6.502   9.620  1.7964 -1.2082  1.0609
    4CHL1  H18B  251   3.012   6.418   9.777 -0.4915  0.5625  0.3140
    4CHL1  H18C  252   2.876   6.417   9.649  0.1548 -1.0226  0.6738
    4CHL1   C12  253   3.022   6.697   9.812 -0.2713 -0.2331  0.1806
    4CHL1  H12A  254   3.119   6.685   9.758  0.0406 -2.8699  1.2571
    4CHL1  H12B  255   2.992   6.804   9.812  0.8904  0.1378 -2.0298
    4CHL1   C11  256   3.068   6.641   9.952 -0.0030  0.6160  0.5455
    4CHL1  H11A  257   3.121   6.544   9.935 -0.3293  0.7934 -1.4890
    4CHL1  H11B  258   3.137   6.714   9.999  0.7502  0.3272 -0.0955
    4CHL1    C9  259   2.950   6.595  10.052  0.2738 -0.6328  0.8394
    4CHL1    H9  260   2.895   6.688  10.077  1.3541  0.0284  0.7663
    4CHL1   C10  261   3.010   6.535  10.183  1.0423 -1.3054 -0.1677
    4CHL1   C19  262   3.116   6.429  10.148 -0.1113  0.8195 -0.6338
    4CHL1  H19A  263   3.091   6.350  10.075 -0.6752 -0.8082  1.2686
    4CHL1  H19B  264   3.207   6.483  10.113  0.6627  0.0384  0.1442
    4CHL1  H19C  265   3.154   6.377  10.239  1.5378  2.2450 -0.4742
    4CHL1    C1  266   3.059   6.654  10.270 -0.0883  0.2608 -0.6889
    4CHL1   H1A  267   3.138   6.709  10.213  1.7885  0.9600  2.4850
    4CHL1   H1B  268   2.968   6.716  10.288 -0.4380 -0.8550  1.5355
    4CHL1    C2  269   3.108   6.614  10.406  0.7487  0.4227  0.4620
    4CHL1   H2A  270   3.147   6.695  10.472  3.6895  1.0228 -1.8562
    4CHL1   H2B  271   3.194   6.546  10.385  0.1499  0.0021 -0.6619
    4CHL1   C20  272   2.873   6.684   9.501 -0.1479 -0.8355 -0.1360
    4CHL1   H20  273   2.910   6.585   9.466  1.2103 -0.8196  1.2200
    4CHL1   C21  274   3.005   6.771   9.485 -0.4900  0.6620  0.8010
    4CHL1  H21A  275   3.073   6.750   9.570 -0.9899  0.4497  1.1461
    4CHL1  H21B  276   2.996   6.882   9.488 -0.1592  0.7101  0.1740
    4CHL1  H21C  277   3.059   6.736   9.394  1.4796  3.9651  0.6070
    4CHL1   C22  278   2.769   6.735   9.396 -0.2078  0.0546 -0.4593
    4CHL1  H22A  279   2.696   6.651   9.401  0.2793 -0.2764  1.4391
    4CHL1  H22B  280   2.714   6.825   9.431 -0.5349 -1.0608  1.9929
    4CHL1   C23  281   2.817   6.740   9.250 -0.0787  0.0089 -0.1632
    4CHL1  H23A  282   2.903   6.808   9.234  0.6589 -0.4056  1.8270
    4CHL1  H23B  283   2.855   6.639   9.224 -1.1691 -0.2235 -0.8679
    4CHL1   C24  284   2.708   6.773   9.150  0.3457  0.4765 -1.3988
    4CHL1  H24A  285   2.634   6.691   9.143  0.3606 -0.0592  3.4188
    4CHL1  H24B  286   2.668   6.871   9.183 -1.5012 -0.6072 -0.3786
    4CHL1   C25  287   2.757   6.797   9.007  0.5715  0.0226  0.2161
    4CHL1   H25  288   2.828   6.715   8.982  0.7881 -0.1514  1.3499
    4CHL1   C26  289   2.634   6.799   8.906  0.1367 -0.5412  0.9542
    4CHL1  H26A  290   2.580   6.703   8.899 -2.9236  1.1859  0.1212
    4CHL1  H26B  291   2.569   6.885   8.931 -2.6386 -1.8108 -1.6124
    4CHL1  H26C  292   2.671   6.820   8.803  0.2654 -0.4656  1.0144
    4CHL1   C27  293   2.819   6.927   8.991 -0.0875 -0.5018 -0.8756
    4CHL1  H27A  294   2.858   6.940   8.888  2.5251 -1.0905 -0.0017
    4CHL1  H27B  295   2.756   7.013   9.025  0.2839 -1.1337  1.5265
    4CHL1  H27C  296   2.910   6.933   9.054  1.5139  0.9712 -3.2466
    5CHL1    C3  297   4.060   4.406  10.101 -0.2681 -0.2006 -0.2808
    5CHL1    H3  298   3.970   4.349  10.070  0.7720 -3.3348  2.2248
    5CHL1    O3  299   4.052   4.416  10.242  0.1134 -0.3951  0.4660
    5CHL1   H3'  300   4.138   4.450  10.266 -0.2699  0.3084  0.8816
    5CHL1    C4  301   4.175   4.318  10.053  0.0998  0.3250 -0.6340
    5CHL1   H4A  302   4.271   4.353  10.098 -1.1881  0.6819  1.9267
    5CHL1   H4B  303   4.164   4.215  10.094 -2.5437  0.9412  0.3095
    5CHL1    C5  304   4.177   4.321   9.905  0.1687 -0.8328 -0.3901
    5CHL1    C6  305   4.173   4.207   9.839 -0.3284 -0.0692  0.1375
    5CHL1    H6  306   4.168   4.107   9.884  0.1492  0.0655  0.4952
    5CHL1    C7  307   4.187   4.192   9.688  0.2301 -0.3618  0.0386
    5CHL1   H7A  308   4.274   4.126   9.666  0.1321 -0.1868 -0.8920
    5CHL1   H7B  309   4.094   4.160   9.636  1.2178  0.9751 -2.6656
    5CHL1    C8  310   4.241   4.324   9.626  0.4551  0.6371 -0.0416
    5CHL1    H8  311   4.351   4.323   9.644  0.2340 -2.3417  1.3820
    5CHL1   C14  312   4.219   4.316   9.478 -0.4017  0.3435 -0.9080
    5CHL1   H14  313   4.108   4.318   9.475 -0.5182  1.0154  2.2048
    5CHL1   C15  314   4.274   4.198   9.407 -0.1115 -0.2121 -0.4248
    5CHL1  H15A  315   4.367   4.165   9.459 -1.4253 -2.4514  0.5471
    5CHL1  H15B  316   4.199   4.117   9.415 -0.6036  0.2990  0.1288
    5CHL1   C16  317   4.290   4.239   9.260 -0.5496 -0.7145  0.9813
    5CHL1  H16A  318   4.396   4.228   9.228 -0.5251  1.1705  0.3785
    5CHL1  H16B  319   4.212   4.186   9.201 -0.4059 -0.1380  0.2543
    5CHL1   C17  320   4.239   4.395   9.261  0.3787 -0.2523  0.0559
    5CHL1   H17  321   4.130   4.404   9.243  0.6867  1.1626 -1.1224
    5CHL1   C13  322   4.257   4.436   9.405 -0.0329 -0.6148 -0.8654
    5CHL1   C18  323   4.400   4.464   9.429  0.0890  0.2000 -0.6449
    5CHL1  H18A  324   4.427   4.491   9.533 -0.2137  0.4422 -0.6324
    5CHL1  H18B  325   4.469   4.384   9.394  1.0562  0.7544 -0.0075
    5CHL1  H18C  326   4.430   4.556   9.375 -1.3829  1.4397  0.6140
    5CHL1   C12  327   4.163   4.548   9.453  0.4949 -0.5264  0.0006
    5CHL1  H12A  328   4.182   4.639   9.392 -2.1827  0.6313  0.8216
    5CHL1  H12B  329   4.056   4.524   9.434  0.4236 -0.1639 -0.0511
    5CHL1   C11  330   4.180   4.573   9.610 -0.5141 -0.8308  0.2890
    5CHL1  H11A  331   4.285   4.609   9.618 -0.7354  0.0444 -0.5842
    5CHL1  H11B  332   4.121   4.664   9.633 -1.2927 -1.2229 -0.1587
    5CHL1    C9  333   4.163   4.447   9.684 -0.4708 -0.1765 -0.1134
    5CHL1    H9  334   4.056   4.423   9.666 -1.2774  3.1103  0.0530
    5CHL1   C10  335   4.183   4.460   9.840  0.0602 -0.2848  0.8661
    5CHL1   C19  336   4.315   4.530   9.882  0.2437 -0.4674 -0.7338
    5CHL1  H19A  337   4.298   4.638   9.865  0.3365 -0.5130 -1.1097
    5CHL1  H19B  338   4.333   4.501   9.988 -0.2546  0.0510 -0.5028
    5CHL1  H19C  339   4.398   4.483   9.825 -2.0018 -2.3363 -2.5662
    5CHL1    C1  340   4.067   4.538   9.902  0.1598 -0.2189 -0.0533
    5CHL1   H1A  341   4.076   4.642   9.864  0.4588 -0.1519  0.1956
    5CHL1   H1B  342   3.973   4.496   9.862 -0.1315  0.2110  0.1713
    5CHL1    C2  343   4.060   4.550  10.057  0.4588  0.0309  0.6194
    5CHL1   H2A  344   3.964   4.603  10.074 -0.1036 -0.5055 -0.8380
    5CHL1   H2B  345   4.150   4.605  10.093  0.5794 -0.4646  1.0727
    5CHL1   C20  346   4.304   4.472   9.153  0.1843 -0.6114  0.2760
    5CHL1   H20  347   4.413   4.462   9.166  0.3587 -0.3786 -0.9499
    5CHL1   C21  348   4.280   4.629   9.159 -0.0074 -0.1325  0.9086
    5CHL1  H21A  349   4.172   4.656   9.148 -0.3316 -1.4915  0.6944
    5CHL1  H21B  350   4.323   4.663   9.063  0.2250 -3.3015 -0.1702
    5CHL1  H21C  351   4.331   4.671   9.248  0.5499  5.1386 -1.7056
    5CHL1   C22  352   4.262   4.411   9.015 -0.6535 -0.4573  0.8959
    5CHL1  H22A  353   4.295   4.305   9.008  0.8506  0.1546 -1.8515
    5CHL1  H22B  354   4.152   4.403   9.020 -0.4834 -4.3968  0.0935
    5CHL1   C23  355   4.305   4.472   8.890  0.3814 -1.2093 -0.5448
    5CHL1  H23A  356   4.251   4.568   8.879  0.7967 -0.6207  2.2522
    5CHL1  H23B  357   4.414   4.490   8.885  0.2200  0.1092  0.5896
    5CHL1   C24  358   4.254   4.382   8.771  0.1065 -0.0602 -0.2448
    5CHL1  H24A  359   4.313   4.288   8.773  2.3110  1.2978  0.1065
    5CHL1  H24B  360   4.145   4.359   8.780 -0.2921  0.4818 -3.1987
    5CHL1   C25  361   4.271   4.447   8.634  0.1366  1.0379 -0.1955
    5CHL1   H25  362   4.371   4.494   8.637  0.1111  1.0606  0.3112
    5CHL1   C26  363   4.266   4.336   8.520 -0.9280 -0.1288 -0.3725
    5CHL1  H26A  364   4.341   4.256   8.534  1.6866  2.4734  1.1598
    5CHL1  H26B  365   4.166   4.287   8.523 -0.4995 -0.9956 -0.1330
    5CHL1  H26C  366   4.287   4.398   8.430  1.7289  0.4892  0.6291
    5CHL1   C27  367   4.163   4.550   8.618  0.6741 -0.3477 -0.2867
    5CHL1  H27A  368   4.056   4.522   8.625 -0.0717  2.2838 -0.4291
    5CHL1  H27B  369   4.172   4.644   8.677 -2.9382 -0.9472  1.3838
    5CHL1  H27C  370   4.178   4.595   8.517 -1.4389 -1.0949 -0.9573
    6CHL1    C3  371   1.471   1.567  10.423 -0.1717 -0.2995 -0.9955
    6CHL1    H3  372   1.423   1.468  10.409 -2.7613  0.5437  1.4069
    6CHL1    O3  373   1.437   1.617  10.555  0.2373  0.0363  0.2037
    6CHL1   H3'  374   1.341   1.609  10.560  0.1133  1.5293  0.4839
    6CHL1    C4  375   1.618   1.573  10.393  0.3571 -0.0998 -0.1085
    6CHL1   H4A  376   1.649   1.676  10.424  0.2070  0.0167 -0.3487
    6CHL1   H4B  377   1.677   1.506  10.459 -0.0277  0.5367  0.8925
    6CHL1    C5  378   1.652   1.530  10.250  0.6175 -0.1280 -0.2192
    6CHL1    C6  379   1.737   1.425  10.229  0.0933  0.1367 -0.1844
    6CHL1    H6  380   1.777   1.366  10.313 -5.2805 -1.0665  1.7540
    6CHL1    C7  381   1.778   1.369  10.094 -0.2633 -0.6902  0.8091
    6CHL1   H7A  382   1.889   1.365  10.085 -0.2393 -0.5768  1.0350
    6CHL1   H7B  383   1.733   1.271  10.067  0.4265 -0.6970 -0.3441
    6CHL1    C8  384   1.738   1.475   9.977 -0.5107  0.6028 -0.0081
    6CHL1    H8  385   1.817   1.553   9.973 -0.6695  0.8323  0.9937
    6CHL1   C14  386   1.717   1.393   9.842  0.8772 -0.7285 -0.3527
    6CHL1   H14  387   1.640   1.315   9.862 -1.3974  1.0866 -1.7174
    6CHL1   C15  388   1.829   1.304   9.792  0.0891  0.3941  0.1327
    6CHL1  H15A  389   1.928   1.353   9.797  0.8803 -1.2817  1.3279
    6CHL1  H15B  390   1.837   1.212   9.853  2.2794  0.0340 -0.6693
    6CHL1   C16  391   1.797   1.281   9.645  0.1615 -0.2104  0.1078
    6CHL1  H16A  392   1.883   1.313   9.582  1.0308 -1.9055  0.4034
    6CHL1  H16B  393   1.780   1.174   9.621 -0.1498 -0.2965  0.7114
    6CHL1   C17  394   1.668   1.362   9.615  0.4461 -0.3308  0.1183
    6CHL1   H17  395   1.584   1.298   9.648 -0.7870  1.7220  1.0848
    6CHL1   C13  396   1.673   1.475   9.721 -0.6385  0.3261 -0.1175
    6CHL1   C18  397   1.797   1.575   9.692  1.1709 -0.2846 -0.2593
    6CHL1  H18A  398   1.886   1.520   9.657  1.9880  0.6338  0.3460
    6CHL1  H18B  399   1.749   1.645   9.619 -0.3412 -1.6972 -0.6484
    6CHL1  H18C  400   1.815   1.636   9.783 -0.8096 -1.2466  0.8075
    6CHL1   C12  401   1.545   1.559   9.745 -0.4137 -0.0134  0.0161
    6CHL1  H12A  402   1.547   1.625   9.656  0.1653 -0.3205 -0.2012
    6CHL1  H12B  403   1.451   1.501   9.745 -1.3853  1.5190 -1.4258
    6CHL1   C11  404   1.561   1.628   9.887 -0.0414 -0.5651  0.1429
    6CHL1  H11A  405   1.639   1.708   9.879  0.4606 -1.2506 -2.2383
    6CHL1  H11B  406   1.468   1.682   9.914  0.0039 -0.6454  0.4628
    6CHL1    C9  407   1.600   1.540  10.006 -0.8046  0.5774  0.0296
    6CHL1    H9  408   1.535   1.451  10.019  2.4782 -1.9111 -0.0139
    6CHL1   C10  409   1.585   1.607  10.144  0.1127 -0.2707  0.4230
    6CHL1   C19  410   1.652   1.749  10.140  0.2260  0.3777 -0.3431
    6CHL1  H19A  411   1.600   1.828  10.082 -0.0854  0.1358 -0.3976
    6CHL1  H19B  412   1.671   1.786  10.243 -1.6130  0.3759  0.0207
    6CHL1  H19C  413   1.754   1.747  10.096 -0.5327  0.7075 -2.1898
    6CHL1    C1  414   1.431   1.618  10.183  0.2154  0.1018  0.4218
    6CHL1   H1A  415   1.373   1.681  10.112 -0.1039  2.6443  2.8415
    6CHL1   H1B  416   1.388   1.517  10.169  2.0368 -0.7448  0.7066
    6CHL1    C2  417   1.407   1.664  10.326  0.2757  0.2121  0.0080
    6CHL1   H2A  418   1.296   1.662  10.334  0.2036  0.5722 -0.8174
    6CHL1   H2B  419   1.441   1.769  10.341 -0.8380  0.4610  0.9455
    6CHL1   C20  420   1.628   1.404   9.472  0.5934  0.3049 -0.3255
    6CHL1   H20  421   1.545   1.478   9.472  0.5526  0.2588 -0.2513
    6CHL1   C21  422   1.598   1.264   9.405 -0.4648  0.4597 -0.0405
    6CHL1  H21A  423   1.551   1.271   9.304  1.5210  0.6449 -0.9635
    6CHL1  H21B  424   1.518   1.214   9.464 -1.5953  1.5964 -0.5752
    6CHL1  H21C  425   1.692   1.205   9.399 -2.3488 -2.6710  0.2625
    6CHL1   C22  426   1.742   1.484   9.390  0.1553  0.1064 -0.3775
    6CHL1  H22A  427   1.742   1.587   9.431 -0.1676 -0.0860  0.1114
    6CHL1  H22B  428   1.840   1.432   9.396  0.9369  1.6814  0.8183
    6CHL1   C23  429   1.720   1.489   9.236 -0.0660  0.1104  0.3075
    6CHL1  H23A  430   1.722   1.383   9.203  1.1959  0.5721 -1.1458
    6CHL1  H23B  431   1.623   1.536   9.208 -0.2127  0.6906  1.7455
    6CHL1   C24  432   1.843   1.555   9.160  0.4353 -0.8924  0.0276
    6CHL1  H24A  433   1.861   1.660   9.191  0.4364 -1.4001  1.7513
    6CHL1  H24B  434   1.933   1.492   9.173  1.2324  0.0325 -0.9456
    6CHL1   C25  435   1.819   1.555   9.013  0.6162 -0.2527  0.0902
    6CHL1   H25  436   1.786   1.456   8.974  1.4668 -0.7806  0.6779
    6CHL1   C26  437   1.711   1.654   8.966 -0.5253  0.1525  0.1186
    6CHL1  H26A  438   1.725   1.748   9.024  2.4805 -1.4259  2.0869
    6CHL1  H26B  439   1.723   1.680   8.859  2.0849  1.5796  0.7285
    6CHL1  H26C  440   1.606   1.621   8.981 -0.6159 -0.3915 -1.6182
    6CHL1   C27  441   1.953   1.586   8.940  0.6820  0.2070  0.0687
    6CHL1  H27A  442   1.988   1.685   8.977 -1.0204 -0.0443  2.5086
    6CHL1  H27B  443   2.034   1.515   8.965 -0.5221 -2.3066 -2.8712
    6CHL1  H27C  444   1.939   1.582   8.830 -1.1378 -0.0864  0.2975
    7CHL1    C3  445   5.137   4.929  10.549  0.6947  0.0987  0.5675
    7CHL1    H3  446   5.028   4.946  10.535  1.0663  2.1872  0.1227
    7CHL1    O3  447   5.177   4.957  10.678  0.1674  0.0005  0.6662
    7CHL1   H3'  448   5.268   4.987  10.670 -0.1323  1.3335  1.9230
    7CHL1    C4  449   5.168   4.781  10.494  0.4775 -0.2356 -0.0146
    7CHL1   H4A  450   5.269   4.760  10.535  0.3303  0.9453  0.9596
    7CHL1   H4B  451   5.088   4.717  10.538  0.1859 -0.6805 -1.1493
    7CHL1    C5  452   5.163   4.770  10.342  0.9025  0.6908 -0.5460
    7CHL1    C6  453   5.101   4.668  10.286  0.7907 -0.1921 -0.4094
    7CHL1    H6  454   5.047   4.601  10.355  1.9105  0.6388  1.2904
    7CHL1    C7  455   5.070   4.650  10.138 -0.2550  0.2583  0.0452
    7CHL1   H7A  456   5.083   4.542  10.115  2.8862  0.2573  1.5872
    7CHL1   H7B  457   4.969   4.686  10.111  0.5430  0.7478 -2.4841
    7CHL1    C8  458   5.173   4.733  10.057 -0.4928  0.2961 -0.4358
    7CHL1    H8  459   5.270   4.681  10.067 -0.0022  1.3189  0.2590
    7CHL1   C14  460   5.125   4.744   9.918 -0.1960 -0.3145 -0.1987
    7CHL1   H14  461   5.034   4.808   9.909 -0.7749 -0.8984  1.3754
    7CHL1   C15  462   5.093   4.601   9.850  0.4051 -0.0022  0.0941
    7CHL1  H15A  463   5.174   4.533   9.884  0.6855  0.8102  1.0757
    7CHL1  H15B  464   4.993   4.570   9.889  0.5334 -1.3817 -0.6491
    7CHL1   C16  465   5.099   4.631   9.701 -0.5440 -0.2957  0.1427
    7CHL1  H16A  466   5.177   4.563   9.660 -0.4600 -0.0610 -0.0902
    7CHL1  H16B  467   5.006   4.600   9.649  0.0178  0.3781 -1.3111
    7CHL1   C17  468   5.157   4.780   9.689  0.6751  0.5214  0.2514
    7CHL1   H17  469   5.068   4.841   9.663  0.7922 -0.6176 -3.1241
    7CHL1   C13  470   5.226   4.809   9.825 -0.1033  0.3172  0.5528
    7CHL1   C18  471   5.370   4.736   9.825  1.1851 -0.3107 -0.5746
    7CHL1  H18A  472   5.410   4.736   9.928 -1.8842 -1.9486  0.7057
    7CHL1  H18B  473   5.360   4.631   9.791 -0.6508 -1.0201  1.9640
    7CHL1  H18C  474   5.440   4.791   9.758  0.6193 -0.4239 -1.2677
    7CHL1   C12  475   5.237   4.953   9.870  0.1857  0.3433 -0.4209
    7CHL1  H12A  476   5.317   5.006   9.813  0.4931 -0.9586 -1.2203
    7CHL1  H12B  477   5.141   4.998   9.837  0.8597  1.0000 -1.5047
    7CHL1   C11  478   5.276   4.963  10.016  0.0723  0.3000  0.4778
    7CHL1  H11A  479   5.384   4.937  10.020  0.6393  2.0102 -2.2517
    7CHL1  H11B  480   5.273   5.072  10.040  1.6235  0.7849 -1.4205
    7CHL1    C9  481   5.194   4.877  10.111 -0.2533  0.1785  0.5283
    7CHL1    H9  482   5.089   4.911  10.099 -0.9113 -1.6703  0.7978
    7CHL1   C10  483   5.236   4.875  10.259 -0.0330 -0.2900  0.0704
    7CHL1   C19  484   5.386   4.868  10.278  0.1762  0.6780 -0.4711
    7CHL1  H19A  485   5.413   4.884  10.384  0.1153  0.5488 -0.4365
    7CHL1  H19B  486   5.423   4.775  10.230  1.2853  1.4683 -1.1873
    7CHL1  H19C  487   5.432   4.956  10.228  0.7328  0.8738  0.3691
    7CHL1    C1  488   5.192   5.015  10.311  0.8281 -0.2230 -0.5037
    7CHL1   H1A  489   5.240   5.098  10.255 -1.9227  3.3932  2.2676
    7CHL1   H1B  490   5.082   5.020  10.294  1.0322  1.7740 -1.3732
    7CHL1    C2  491   5.215   5.029  10.462  0.1123 -0.3618  0.6315
    7CHL1   H2A  492   5.177   5.132  10.483  0.6250  0.0382 -0.3949
    7CHL1   H2B  493   5.322   5.024  10.490  0.3897 -0.2846 -0.4017
    7CHL1   C20  494   5.242   4.814   9.567 -0.6906  0.0373  0.4987
    7CHL1   H20  495   5.348   4.779   9.573  0.2011  2.6249  0.3079
    7CHL1   C21  496   5.236   4.966   9.547 -0.7132 -0.0084 -0.5324
    7CHL1  H21A  497   5.137   4.998   9.510 -2.0022 -0.5507  2.3053
    7CHL1  H21B  498   5.320   4.990   9.478  1.8221  1.9312  3.0522
    7CHL1  H21C  499   5.259   5.028   9.636  0.7366  1.1827 -1.7097
    7CHL1   C22  500   5.195   4.736   9.440 -0.4456 -0.1755  0.2672
    7CHL1  H22A  501   5.243   4.637   9.442  2.5434  1.2625  2.1096
    7CHL1  H22B  502   5.085   4.721   9.449 -0.2685 -0.9098  1.2603
    7CHL1   C23  503   5.215   4.800   9.301  0.0210 -0.6013  0.5506
    7CHL1  H23A  504   5.199   4.910   9.294 -1.2956 -0.9147 -1.9767
    7CHL1  H23B  505   5.319   4.782   9.265 -0.7318  0.6416 -2.3901
    7CHL1   C24  506   5.124   4.727   9.196 -0.0820 -0.5887 -1.0195
    7CHL1  H24A  507   5.154   4.621   9.215 -2.3384 -0.9148  1.0337
    7CHL1  H24B  508   5.017   4.744   9.221 -0.2285  0.2145 -2.1928
    7CHL1   C25  509   5.157   4.761   9.054 -0.4125  0.0157 -0.0026
    7CHL1   H25  510   5.267   4.747   9.043 -0.1844  0.6559  1.3687
    7CHL1   C26  511   5.088   4.658   8.958  0.4187 -0.6923 -0.0323
    7CHL1  H26A  512   5.118   4.552   8.973  0.5532 -0.9808 -2.2595
    7CHL1  H26B  513   4.977   4.667   8.967  0.4702 -0.3015  0.2380
    7CHL1  H26C  514   5.105   4.685   8.852  0.2742  0.2177  0.1720
    7CHL1   C27  515   5.108   4.912   9.019 -0.4160  0.5503  0.0291
    7CHL1  H27A  516   5.145   4.983   9.096 -0.1927  0.6046 -0.1292
    7CHL1  H27B  517   5.149   4.944   8.921  2.7091  0.8437  1.4022
    7CHL1  H27C  518   4.996   4.913   9.018 -0.4059  1.9306 -0.5768
    8CHL1    C3  519   5.068   6.462  10.192  0.3757 -0.5885  0.0389
    8CHL1    H3  520   5.145   6.526  10.145 -1.7381  1.4849 -0.7326
    8CHL1    O3  521   5.066   6.486  10.333 -0.3139 -0.0762 -0.1858
    8CHL1   H3'  522   4.990   6.443  10.373  0.1549  1.0661  2.0119
    8CHL1    C4  523   4.921   6.490  10.152  0.0081 -0.2260  0.6369
    8CHL1   H4A  524   4.845   6.442  10.217  0.8671 -0.1800  1.6762
    8CHL1   H4B  525   4.899   6.594  10.184  2.2265  0.5397 -0.2216
    8CHL1    C5  526   4.884   6.458  10.010  0.7040 -0.3217  0.9720
    8CHL1    C6  527   4.817   6.556   9.938 -0.1381  0.2171  0.1549
    8CHL1    H6  528   4.778   6.641   9.996  1.4440  0.2189  1.2485
    8CHL1    C7  529   4.798   6.547   9.787  0.2161  0.0729  0.2538
    8CHL1   H7A  530   4.693   6.569   9.760 -0.2979  0.8627  2.7983
    8CHL1   H7B  531   4.859   6.628   9.740 -0.4963 -1.0191 -2.6392
    8CHL1    C8  532   4.852   6.415   9.719  0.5057 -0.9362 -0.0908
    8CHL1    H8  533   4.776   6.334   9.720 -2.2035  1.4944 -0.6082
    8CHL1   C14  534   4.902   6.450   9.575  0.0683 -0.4517  0.1366
    8CHL1   H14  535   4.998   6.504   9.591  1.2424 -1.8740 -1.8931
    8CHL1   C15  536   4.822   6.543   9.480  0.1422  0.7436 -0.0935
    8CHL1  H15A  537   4.711   6.535   9.488 -0.0644  0.1081 -2.8789
    8CHL1  H15B  538   4.833   6.652   9.498 -0.7954  1.1870 -2.0421
    8CHL1   C16  539   4.872   6.502   9.339  0.6975  0.0497 -0.3277
    8CHL1  H16A  540   4.781   6.464   9.288  0.5583  1.1471 -0.9158
    8CHL1  H16B  541   4.906   6.587   9.275 -2.0479 -0.5026 -2.6400
    8CHL1   C17  542   4.980   6.387   9.362 -0.2900  0.0591 -0.1171
    8CHL1   H17  543   5.081   6.432   9.372  0.6107 -2.0451  0.4684
    8CHL1   C13  544   4.949   6.325   9.499 -0.0384  0.6208  0.3829
    8CHL1   C18  545   4.825   6.235   9.478 -1.0005 -0.1149 -0.2462
    8CHL1  H18A  546   4.844   6.137   9.428  2.0123  0.9527 -1.2952
    8CHL1  H18B  547   4.780   6.202   9.574 -2.5531  1.2273 -0.4964
    8CHL1  H18C  548   4.746   6.286   9.419 -0.4142 -0.6676 -1.5508
    8CHL1   C12  549   5.060   6.251   9.570 -0.1385 -0.1618  0.5503
    8CHL1  H12A  550   5.063   6.154   9.516 -0.9015  1.2951 -2.2238
    8CHL1  H12B  551   5.153   6.312   9.566 -0.0289 -0.2676  1.4116
    8CHL1   C11  552   5.020   6.229   9.714  0.0785 -0.3030 -0.1276
    8CHL1  H11A  553   4.938   6.154   9.710  0.2280 -0.5686  1.3758
    8CHL1  H11B  554   5.107   6.187   9.770 -1.2218 -1.9181  0.7369
    8CHL1    C9  555   4.976   6.355   9.787 -0.8080  0.4505  0.6678
    8CHL1    H9  556   5.060   6.427   9.776 -0.2654 -0.5540 -2.2620
    8CHL1   C10  557   4.959   6.342   9.944 -0.4158  0.1282  0.5061
    8CHL1   C19  558   4.856   6.228   9.974 -0.1248 -0.3479 -0.3446
    8CHL1  H19A  559   4.814   6.231  10.077 -2.3478  0.3419 -1.2294
    8CHL1  H19B  560   4.770   6.247   9.905  0.4403 -1.8384 -1.4967
    8CHL1  H19C  561   4.894   6.132   9.933  0.0687  0.0300 -1.0486
    8CHL1    C1  562   5.093   6.307  10.014  0.2005 -0.1224  0.1042
    8CHL1   H1A  563   5.113   6.203   9.979  0.0894  0.7006 -2.5064
    8CHL1   H1B  564   5.173   6.374   9.978 -0.0378 -0.0785 -0.3585
    8CHL1    C2  565   5.097   6.312  10.165 -0.2975  0.5163 -0.6461
    8CHL1   H2A  566   5.196   6.297  10.213  1.1604 -0.5169 -3.8471
    8CHL1   H2B  567   5.020   6.255  10.220  1.1146 -0.8188 -0.0256
    8CHL1   C20  568   4.981   6.291   9.238  0.3615  0.7999  0.4708
    8CHL1   H20  569   4.877   6.258   9.219  0.6617  0.3645 -0.4296
    8CHL1   C21  570   5.078   6.179   9.248  0.7783 -0.3542  0.7095
    8CHL1  H21A  571   5.045   6.097   9.317 -0.1445 -1.5068 -1.0544
    8CHL1  H21B  572   5.180   6.213   9.276  0.6466  0.1935  0.5178
    8CHL1  H21C  573   5.089   6.137   9.145  0.4184 -1.9807  1.3102
    8CHL1   C22  574   5.007   6.369   9.104  0.4211  0.6811 -0.4968
    8CHL1  H22A  575   4.964   6.298   9.030 -3.1387  1.5120  0.6700
    8CHL1  H22B  576   4.939   6.457   9.105 -0.6565 -0.1704  1.0449
    8CHL1   C23  577   5.150   6.419   9.071  1.0954  0.1829  0.1186
    8CHL1  H23A  578   5.178   6.491   9.150 -0.2049  1.1606 -0.2951
    8CHL1  H23B  579   5.224   6.336   9.068  0.1346 -0.6503 -0.8454
    8CHL1   C24  580   5.154   6.494   8.934  0.4080  0.1260 -0.2880
    8CHL1  H24A  581   5.136   6.421   8.852  0.3831  1.8908 -1.8795
    8CHL1  H24B  582   5.075   6.572   8.928  0.0629 -0.3093 -1.6201
    8CHL1   C25  583   5.292   6.559   8.901 -0.5443 -0.9805  0.7162
    8CHL1   H25  584   5.368   6.478   8.899 -1.3832 -1.7592 -1.3139
    8CHL1   C26  585   5.282   6.609   8.759 -0.3316 -1.4575 -0.2695
    8CHL1  H26A  586   5.380   6.656   8.734  0.0487 -0.9380  2.0694
    8CHL1  H26B  587   5.247   6.527   8.693 -1.5396  0.4035 -1.9900
    8CHL1  H26C  588   5.200   6.681   8.737  1.4800  0.3688 -1.2387
    8CHL1   C27  589   5.330   6.677   8.992 -0.2353 -0.0605 -0.3086
    8CHL1  H27A  590   5.371   6.644   9.089 -2.2458  1.1143  0.9614
    8CHL1  H27B  591   5.404   6.748   8.948  0.3266  0.1101  0.9065
    8CHL1  H27C  592   5.247   6.748   9.012  1.2122  1.5643  0.1088
    9CHL1    C3  593   0.733   2.779  10.003 -0.1364  0.2608 -0.2135
    9CHL1    H3  594   0.844   2.786   9.994 -0.2006  0.5660 -0.7660
    9CHL1    O3  595   0.714   2.757  10.144 -0.5328  0.3067  0.3234
    9CHL1   H3'  596   0.621   2.763  10.165 -0.9673 -1.0654 -1.0959
    9CHL1    C4  597   0.669   2.919   9.977 -0.3238  0.0449  0.5508
    9CHL1   H4A  598   0.561   2.906  10.002 -1.0817  0.4815 -2.3071
    9CHL1   H4B  599   0.715   2.996  10.043 -0.4783  0.3354  0.3200
    9CHL1    C5  600   0.691   2.955   9.831 -0.6509 -0.5561  0.0149
    9CHL1    C6  601   0.767   3.048   9.781 -0.3274 -0.3982  0.1856
    9CHL1    H6  602   0.817   3.108   9.859 -2.0521  1.1692  0.1329
    9CHL1    C7  603   0.793   3.075   9.635 -0.3959  1.0861  0.1161
    9CHL1   H7A  604   0.813   3.181   9.608 -0.3037  1.4174  1.4494
    9CHL1   H7B  605   0.884   3.021   9.602  0.7943  4.1120 -1.7434
    9CHL1    C8  606   0.690   3.012   9.541  0.1797  0.6420 -0.6264
    9CHL1    H8  607   0.599   3.072   9.562  0.3193  0.6374 -0.0155
    9CHL1   C14  608   0.731   3.017   9.393 -0.5489  0.1982 -0.1111
    9CHL1   H14  609   0.817   2.945   9.390 -1.0206 -0.4223  0.8712
    9CHL1   C15  610   0.795   3.143   9.332  0.3437  0.6993 -0.3337
    9CHL1  H15A  611   0.741   3.239   9.350 -1.2089  0.1341 -1.8486
    9CHL1  H15B  612   0.896   3.152   9.376  0.3802  2.0235 -0.6533
    9CHL1   C16  613   0.793   3.115   9.179  0.4996 -0.1879 -0.2314
    9CHL1  H16A  614   0.743   3.185   9.108  0.1731 -1.1982 -1.0159
    9CHL1  H16B  615   0.895   3.102   9.137  0.8101 -0.2249  0.5307
    9CHL1   C17  616   0.720   2.975   9.161  0.1588 -0.1489  0.1322
    9CHL1   H17  617   0.790   2.889   9.165  1.4858  0.9132  0.3767
    9CHL1   C13  618   0.633   2.955   9.299  0.2543 -0.4850  0.0519
    9CHL1   C18  619   0.500   3.039   9.284 -0.1377  0.2142  0.1090
    9CHL1  H18A  620   0.507   3.135   9.230  0.8523  0.2327  0.2697
    9CHL1  H18B  621   0.424   2.974   9.234  1.2140 -1.9881  0.8536
    9CHL1  H18C  622   0.461   3.058   9.386 -0.2808  4.0604 -0.5782
    9CHL1   C12  623   0.599   2.809   9.335 -0.3108  0.2203  0.2803
    9CHL1  H12A  624   0.516   2.777   9.269 -1.0772  1.4779  0.6132
    9CHL1  H12B  625   0.691   2.749   9.318 -0.6990  0.6040 -3.7087
    9CHL1   C11  626   0.554   2.802   9.484  0.2174 -0.4899  0.1668
    9CHL1  H11A  627   0.446   2.827   9.493  0.3001 -0.9131  2.6249
    9CHL1  H11B  628   0.555   2.695   9.515 -0.1981 -0.3077  0.8265
    9CHL1    C9  629   0.656   2.869   9.583  0.4490 -0.2292 -0.8569
    9CHL1    H9  630   0.755   2.820   9.570  0.4420 -0.1203 -1.3002
    9CHL1   C10  631   0.622   2.855   9.736 -0.2784 -0.5344 -0.3144
    9CHL1   C19  632   0.468   2.863   9.753  0.0831 -0.1937  0.3328
    9CHL1  H19A  633   0.427   2.944   9.689  0.8643 -0.3757 -0.4097
    9CHL1  H19B  634   0.421   2.764   9.734 -1.8982  0.8400 -0.2604
    9CHL1  H19C  635   0.431   2.895   9.852  1.4795  0.9476  0.5030
    9CHL1    C1  636   0.670   2.710   9.777 -0.5118 -0.0652  0.0062
    9CHL1   H1A  637   0.601   2.630   9.741  1.0733 -1.3697 -0.1607
    9CHL1   H1B  638   0.774   2.692   9.744 -0.2540  0.5059  0.4995
    9CHL1    C2  639   0.661   2.677   9.927 -0.2348 -0.0964 -0.0975
    9CHL1   H2A  640   0.696   2.572   9.939  3.9044  0.8420 -2.5791
    9CHL1   H2B  641   0.555   2.698   9.953 -0.2276 -0.3431  0.1325
    9CHL1   C20  642   0.654   2.951   9.020 -0.5432  0.8174  0.0900
    9CHL1   H20  643   0.578   3.031   9.012 -0.7958  0.7522  1.6187
    9CHL1   C21  644   0.572   2.815   9.011  0.3579  0.5698  0.1175
    9CHL1  H21A  645   0.541   2.793   8.906  0.6716 -1.7779  0.4949
    9CHL1  H21B  646   0.475   2.825   9.064  0.1372 -2.0617  0.2730
    9CHL1  H21C  647   0.620   2.725   9.055 -0.8744  1.1307  2.6764
    9CHL1   C22  648   0.754   2.963   8.905 -0.0376 -0.1788  0.6879
    9CHL1  H22A  649   0.815   3.054   8.923  0.6578 -1.0651  2.9664
    9CHL1  H22B  650   0.821   2.875   8.910  0.8270  0.3896 -0.6742
    9CHL1   C23  651   0.702   2.976   8.764 -0.5109  0.4639 -0.4789
    9CHL1  H23A  652   0.636   2.893   8.732 -0.4593  0.0773  0.4043
    9CHL1  H23B  653   0.638   3.066   8.765  1.2990  1.7944  1.4904
    9CHL1   C24  654   0.818   2.984   8.657 -0.4086  0.4635 -0.3667
    9CHL1  H24A  655   0.909   3.044   8.680  1.8136 -2.0811 -2.1922
    9CHL1  H24B  656   0.857   2.880   8.656  1.0156  0.9865 -1.2041
    9CHL1   C25  657   0.775   3.029   8.517 -0.2735  0.5428  0.3538
    9CHL1   H25  658   0.675   2.985   8.497  1.0357 -1.5409 -1.8877
    9CHL1   C26  659   0.753   3.184   8.519  0.5237 -0.4759 -0.2311
    9CHL1  H26A  660   0.733   3.224   8.417  2.1765  0.7214 -0.1006
    9CHL1  H26B  661   0.663   3.202   8.582  2.5330  3.5263  1.7314
    9CHL1  H26C  662   0.842   3.225   8.572  0.4510  0.2270 -0.6363
    9CHL1   C27  663   0.880   2.979   8.424  0.5362  0.9511 -0.6358
    9CHL1  H27A  664   0.973   3.004   8.480  0.6323 -1.8301  0.5130
    9CHL1  H27B  665   0.871   2.869   8.412 -0.1405  0.9332  0.0472
    9CHL1  H27C  666   0.872   3.042   8.332  0.2048  0.3071 -1.0536
   10CHL1    C3  667   0.385   6.649  10.166 -0.1258  0.9012  0.4560
   10CHL1    H3  668   0.337   6.747  10.145 -0.3250  0.2483 -2.3176
   10CHL1    O3  669   0.417   6.635  10.305 -0.0966  0.0504 -0.0119
   10CHL1   H3'  670   0.475   6.560  10.321  1.7317  1.0473 -1.6668
   10CHL1    C4  671   0.302   6.524  10.127  0.0282 -0.8335  0.3087
   10CHL1   H4A  672   0.362   6.437  10.162  0.9561 -0.2951  0.0749
   10CHL1   H4B  673   0.213   6.509  10.192 -0.8660  2.2229 -0.1364
   10CHL1    C5  674   0.273   6.519   9.979 -0.5292  1.0192  0.6831
   10CHL1    C6  675   0.141   6.505   9.944 -0.0390  0.1739  0.1215
   10CHL1    H6  676   0.066   6.491  10.023 -2.2019 -0.5316 -2.0086
   10CHL1    C7  677   0.102   6.491   9.805 -0.0671  0.2296  0.4100
   10CHL1   H7A  678   0.036   6.406   9.777  0.4093  0.8880 -2.8258
   10CHL1   H7B  679   0.046   6.583   9.777 -0.0211 -0.1995 -1.0963
   10CHL1    C8  680   0.221   6.482   9.696  0.1267  0.2075  0.3353
   10CHL1    H8  681   0.263   6.380   9.705 -1.1415 -0.3014  0.5316
   10CHL1   C14  682   0.181   6.499   9.550 -0.0949 -1.3969 -0.2867
   10CHL1   H14  683   0.141   6.602   9.543  1.8893 -0.6758 -1.6748
   10CHL1   C15  684   0.060   6.427   9.492 -0.0787 -0.1707 -0.5351
   10CHL1  H15A  685   0.060   6.320   9.520  0.6281 -0.0175  0.0777
   10CHL1  H15B  686  -0.034   6.469   9.533 -1.6735 -2.0878 -2.1376
   10CHL1   C16  687   0.078   6.453   9.340  0.3124 -0.3422  0.3326
   10CHL1  H16A  688   0.061   6.360   9.282  0.7571 -0.2340  0.0339
   10CHL1  H16B  689  -0.009   6.520   9.319  0.1820  0.3238  2.8137
   10CHL1   C17  690   0.219   6.511   9.311 -0.1504  0.6457 -0.1303
   10CHL1   H17  691   0.195   6.618   9.297 -3.9306 -0.2598 -1.2165
   10CHL1   C13  692   0.296   6.488   9.446  0.0938  0.2616  0.2958
   10CHL1   C18  693   0.362   6.350   9.441 -0.3584 -0.7596  0.3385
   10CHL1  H18A  694   0.448   6.352   9.371  0.8056  0.6773  1.7654
   10CHL1  H18B  695   0.395   6.317   9.542  0.4775 -0.5447  0.1399
   10CHL1  H18C  696   0.294   6.272   9.399 -0.9330  1.0699 -2.1897
   10CHL1   C12  697   0.389   6.601   9.481  0.3179  0.3490  0.2192
   10CHL1  H12A  698   0.467   6.601   9.402 -1.6210 -0.6323 -1.7580
   10CHL1  H12B  699   0.334   6.697   9.471 -1.7853 -0.6160  2.0527
   10CHL1   C11  700   0.442   6.582   9.630 -0.5635 -0.7064  0.1304
   10CHL1  H11A  701   0.513   6.496   9.632 -2.3609 -2.2192 -0.2019
   10CHL1  H11B  702   0.510   6.670   9.640 -0.5059 -0.5314 -1.7485
   10CHL1    C9  703   0.335   6.577   9.743 -0.2065  0.1364  0.4398
   10CHL1    H9  704   0.288   6.677   9.749 -1.1007  0.1018 -4.3956
   10CHL1   C10  705   0.390   6.550   9.884 -0.1513 -0.1828 -0.1377
   10CHL1   C19  706   0.482   6.419   9.887  0.0286 -0.3688 -0.6193
   10CHL1  H19A  707   0.428   6.332   9.844 -1.4090  0.9019 -1.4470
   10CHL1  H19B  708   0.581   6.423   9.837  0.7294 -2.6397  0.5048
   10CHL1  H19C  709   0.498   6.390   9.993 -1.3353  0.2731 -0.2255
   10CHL1    C1  710   0.476   6.674   9.941 -0.8193  0.0262  0.8525
   10CHL1   H1A  711   0.566   6.672   9.876 -1.6066 -1.2903 -0.2327
   10CHL1   H1B  712   0.407   6.760   9.929 -1.3498 -0.5239 -0.0464
   10CHL1    C2  713   0.519   6.648  10.084 -0.0955  0.6280 -0.4943
   10CHL1   H2A  714   0.583   6.727  10.130 -0.2348 -0.5086  1.7469
   10CHL1   H2B  715   0.575   6.557  10.112 -1.1800  0.3297  0.7381
   10CHL1   C20  716   0.274   6.467   9.177 -0.0740  0.4456 -0.1917
   10CHL1   H20  717   0.280   6.356   9.175  1.8814  0.5020  1.5351
   10CHL1   C21  718   0.416   6.514   9.139  0.4843 -0.7374  0.0279
   10CHL1  H21A  719   0.492   6.467   9.204  2.3794  1.0575 -0.8410
   10CHL1  H21B  720   0.415   6.625   9.153 -0.4578 -0.4749 -1.9605
   10CHL1  H21C  721   0.443   6.497   9.033 -1.3323  0.5488 -0.6798
   10CHL1   C22  722   0.178   6.510   9.061 -0.5088  0.4560 -0.5858
   10CHL1  H22A  723   0.073   6.525   9.093  0.1075  0.8139  1.3357
   10CHL1  H22B  724   0.204   6.612   9.026 -0.5219  0.2743 -1.1184
   10CHL1   C23  725   0.176   6.411   8.944 -0.0991 -0.4559 -0.1029
   10CHL1  H23A  726   0.267   6.426   8.882  0.2076  0.0072  0.4641
   10CHL1  H23B  727   0.177   6.312   8.995 -1.5355 -0.4011  0.0561
   10CHL1   C24  728   0.051   6.415   8.861  0.6967 -0.4418 -0.0260
   10CHL1  H24A  729   0.062   6.366   8.761 -0.2373  0.9199 -0.8062
   10CHL1  H24B  730  -0.018   6.364   8.932  0.5555 -0.7257 -0.3643
   10CHL1   C25  731  -0.010   6.552   8.828 -0.0726 -0.9820  0.2221
   10CHL1   H25  732  -0.026   6.597   8.928 -0.1200 -1.3602  0.3865
   10CHL1   C26  733   0.070   6.652   8.738 -0.2926 -0.2162 -0.1345
   10CHL1  H26A  734   0.020   6.747   8.711 -2.4436 -0.8800  1.3951
   10CHL1  H26B  735   0.166   6.680   8.788 -0.1094  1.6165 -1.4586
   10CHL1  H26C  736   0.090   6.593   8.646  0.9796 -1.1588  0.7220
   10CHL1   C27  737  -0.142   6.515   8.752  0.0488 -0.9801  0.8175
   10CHL1  H27A  738  -0.203   6.446   8.814  0.0542  1.1397  3.2699
   10CHL1  H27B  739  -0.202   6.603   8.722  2.1504  0.0291 -0.5791
   10CHL1  H27C  740  -0.113   6.455   8.663 -1.0844  0.4174 -0.5088
   11CHL1    C3  741   3.166   3.181  10.082  0.2099  0.1125  0.2174
   11CHL1    H3  742   3.171   3.285  10.042 -0.5408  0.7928  1.8701
   11CHL1    O3  743   3.171   3.184  10.221  0.3401 -0.1280  0.3548
   11CHL1   H3'  744   3.154   3.094  10.250 -1.0354 -0.5460 -1.6153
   11CHL1    C4  745   3.048   3.099  10.029 -0.0535 -0.1439  0.7258
   11CHL1   H4A  746   3.035   3.004  10.085  0.0948 -0.2265  0.6211
   11CHL1   H4B  747   2.951   3.148  10.054 -0.0647  1.1665 -1.7363
   11CHL1    C5  748   3.053   3.071   9.875  0.6509  0.7259  0.0007
   11CHL1    C6  749   2.960   3.116   9.793  0.0377 -0.6020  0.1632
   11CHL1    H6  750   2.877   3.174   9.836  0.4844 -0.6092  1.0256
   11CHL1    C7  751   2.955   3.087   9.647 -0.3158 -0.1445 -0.2311
   11CHL1   H7A  752   2.856   3.038   9.633 -0.6055  0.3027  0.2459
   11CHL1   H7B  753   2.968   3.173   9.578 -0.3125 -1.1927 -1.5603
   11CHL1    C8  754   3.054   2.967   9.608  0.3944 -0.0008  0.6221
   11CHL1    H8  755   3.013   2.868   9.636  0.3864 -0.7468 -1.9774
   11CHL1   C14  756   3.067   2.970   9.462  0.0469  0.7486 -0.3924
   11CHL1   H14  757   3.116   3.063   9.425  1.7448 -0.9619 -2.5820
   11CHL1   C15  758   2.934   2.953   9.382  0.1294  0.8621 -0.8855
   11CHL1  H15A  759   2.884   2.862   9.420 -1.4161  1.6720 -0.9232
   11CHL1  H15B  760   2.875   3.047   9.395  2.3691  2.6048 -2.8121
   11CHL1   C16  761   2.983   2.924   9.244 -1.5108  0.1719 -1.1159
   11CHL1  H16A  762   2.921   2.846   9.197 -0.7700 -1.5686  0.7224
   11CHL1  H16B  763   2.977   3.018   9.184  0.0629  1.1761  0.2589
   11CHL1   C17  764   3.134   2.884   9.256  0.1215 -0.8495 -0.3387
   11CHL1   H17  765   3.190   2.973   9.222 -2.2337  0.8616  0.1943
   11CHL1   C13  766   3.160   2.865   9.411 -0.4642 -0.0936 -0.6800
   11CHL1   C18  767   3.113   2.716   9.446 -0.3561 -0.5617 -0.3264
   11CHL1  H18A  768   3.187   2.637   9.421  0.7870  0.1755  0.6805
   11CHL1  H18B  769   3.098   2.700   9.555  1.1697  1.6598  0.2344
   11CHL1  H18C  770   3.025   2.686   9.386 -0.5192  0.1144 -0.4280
   11CHL1   C12  771   3.302   2.894   9.462  0.4208 -0.6958  0.0153
   11CHL1  H12A  772   3.376   2.812   9.447  1.5908  0.4057 -0.3567
   11CHL1  H12B  773   3.337   2.988   9.414  1.3927 -0.4696  1.1478
   11CHL1   C11  774   3.293   2.897   9.610  0.0974 -0.1328  0.8555
   11CHL1  H11A  775   3.266   2.794   9.641 -0.9042  0.9009  3.6048
   11CHL1  H11B  776   3.394   2.913   9.654 -0.5598 -0.1775  2.4442
   11CHL1    C9  777   3.188   2.989   9.671  0.9064  0.5471  0.7057
   11CHL1    H9  778   3.225   3.091   9.647  2.7792 -0.2679  0.0416
   11CHL1   C10  779   3.180   2.999   9.829  0.3348  0.3401  0.1151
   11CHL1   C19  780   3.179   2.856   9.892  1.1087 -0.0736 -0.0577
   11CHL1  H19A  781   3.172   2.857  10.003 -0.7280  2.2728 -0.1685
   11CHL1  H19B  782   3.093   2.799   9.852  1.0755 -0.6824  0.8384
   11CHL1  H19C  783   3.275   2.807   9.863 -0.3145 -0.9280 -3.5538
   11CHL1    C1  784   3.297   3.084   9.890  0.5339  0.5326  0.2107
   11CHL1   H1A  785   3.387   3.027   9.856  0.1262 -0.0140  0.0348
   11CHL1   H1B  786   3.302   3.181   9.836  1.1476  0.4852  0.1741
   11CHL1    C2  787   3.291   3.111  10.040 -0.1094 -0.5954 -0.2672
   11CHL1   H2A  788   3.378   3.163  10.085 -0.6633 -2.1206  2.7039
   11CHL1   H2B  789   3.302   3.010  10.085  0.9865 -0.7408 -0.8283
   11CHL1   C20  790   3.176   2.773   9.158 -1.4385 -0.0290 -0.1634
   11CHL1   H20  791   3.118   2.683   9.188 -0.8536 -0.2495  0.3248
   11CHL1   C21  792   3.334   2.753   9.151  0.6878  0.1094 -0.5481
   11CHL1  H21A  793   3.358   2.677   9.074 -2.1523 -2.0194  0.5862
   11CHL1  H21B  794   3.365   2.715   9.250 -0.6592  1.2087  0.3260
   11CHL1  H21C  795   3.383   2.851   9.130  2.3648 -0.6361 -0.1323
   11CHL1   C22  796   3.119   2.786   9.012  0.4200 -0.1520  0.4208
   11CHL1  H22A  797   3.013   2.819   9.008  1.2530  2.4619 -0.9582
   11CHL1  H22B  798   3.170   2.874   8.967 -0.6074  0.2045 -0.0662
   11CHL1   C23  799   3.128   2.663   8.920 -0.4366  0.5185  0.1515
   11CHL1  H23A  800   3.232   2.626   8.910 -0.7569 -0.2399 -0.4579
   11CHL1  H23B  801   3.067   2.579   8.958 -1.5610 -0.0731 -2.8243
   11CHL1   C24  802   3.062   2.691   8.783 -0.6049 -0.7482 -0.2485
   11CHL1  H24A  803   2.959   2.725   8.804 -0.1621  0.0994  0.5695
   11CHL1  H24B  804   3.118   2.769   8.727 -2.0939  2.3989  2.5200
   11CHL1   C25  805   3.063   2.568   8.692 -0.0839 -0.0717  0.3376
   11CHL1   H25  806   3.013   2.488   8.751  2.0023 -2.8407 -1.5114
   11CHL1   C26  807   2.972   2.590   8.566 -0.3968 -0.7606 -0.0631
   11CHL1  H26A  808   2.869   2.618   8.597  0.0851  0.6754  0.2420
   11CHL1  H26B  809   3.004   2.676   8.504 -1.0938 -2.0389 -2.2773
   11CHL1  H26C  810   2.973   2.495   8.508  0.5759 -1.8624  1.7428
   11CHL1   C27  811   3.197   2.523   8.645  0.1738  0.3489 -0.1702
   11CHL1  H27A  812   3.185   2.445   8.568 -1.2994  0.7558 -0.3797
   11CHL1  H27B  813   3.262   2.601   8.602 -0.6696  1.7287  0.9940
   11CHL1  H27C  814   3.248   2.473   8.730 -0.0665 -0.3450 -0.4326
   12CHL1    C3  815   5.715   6.009  10.378 -0.5205  0.4406  0.1261
   12CHL1    H3  816   5.767   6.102  10.345 -1.5011  1.0843  0.3749
   12CHL1    O3  817   5.722   6.007  10.520 -0.3737 -0.6983  0.3674
   12CHL1   H3'  818   5.769   5.924  10.537  0.2799 -0.1837  1.1476
   12CHL1    C4  819   5.567   6.013  10.336  0.2605 -0.4255  0.4824
   12CHL1   H4A  820   5.537   5.910  10.365  1.5964 -1.7269 -2.5064
   12CHL1   H4B  821   5.508   6.091  10.389  0.8892 -0.0884  0.7030
   12CHL1    C5  822   5.555   6.015  10.183  0.2076  0.3069 -0.5327
   12CHL1    C6  823   5.483   6.120  10.125  0.3998  0.8146 -0.4695
   12CHL1    H6  824   5.424   6.185  10.193  2.7665  2.8404 -0.2839
   12CHL1    C7  825   5.458   6.127   9.973  0.3372 -0.3663  0.3308
   12CHL1   H7A  826   5.352   6.141   9.943  0.4710 -0.5484 -0.2228
   12CHL1   H7B  827   5.513   6.215   9.934 -0.8416  0.5889  0.7623
   12CHL1    C8  828   5.505   5.998   9.900 -0.1946  0.0569  0.2639
   12CHL1    H8  829   5.431   5.917   9.919 -0.1179 -0.8864 -3.0360
   12CHL1   C14  830   5.512   6.026   9.749  0.4455 -0.5870  0.6086
   12CHL1   H14  831   5.577   6.115   9.748  0.3584 -0.4494 -4.8724
   12CHL1   C15  832   5.385   6.070   9.679 -0.6376  0.6013  0.8584
   12CHL1  H15A  833   5.307   6.003   9.719 -1.3095  0.8324 -0.0572
   12CHL1  H15B  834   5.371   6.178   9.699  1.7827  0.9793  0.7322
   12CHL1   C16  835   5.420   6.061   9.531 -0.9593 -0.7075  0.7424
   12CHL1  H16A  836   5.333   6.011   9.484 -1.3148 -0.7371  1.4266
   12CHL1  H16B  837   5.463   6.147   9.476 -0.8814 -2.1206 -1.4520
   12CHL1   C17  838   5.544   5.953   9.530  0.2803  0.4850 -0.3289
   12CHL1   H17  839   5.637   6.013   9.515  2.2877 -2.5071 -0.3758
   12CHL1   C13  840   5.562   5.903   9.672 -1.2338  0.6678  0.8432
   12CHL1   C18  841   5.473   5.776   9.694  0.0647  1.1798 -0.1269
   12CHL1  H18A  842   5.526   5.691   9.648 -0.9916 -0.5104  1.7070
   12CHL1  H18B  843   5.462   5.755   9.803  1.0617  2.0842  0.1606
   12CHL1  H18C  844   5.371   5.793   9.654 -1.8588 -3.2647  2.4717
   12CHL1   C12  845   5.707   5.871   9.720 -0.5721  0.7264  0.1129
   12CHL1  H12A  846   5.742   5.786   9.657  0.9266  0.4296  1.3282
   12CHL1  H12B  847   5.773   5.956   9.696  1.1522 -0.9206 -1.1525
   12CHL1   C11  848   5.710   5.846   9.874 -0.1972 -0.2884  0.6176
   12CHL1  H11A  849   5.646   5.756   9.887 -1.8356  0.5518 -1.3896
   12CHL1  H11B  850   5.815   5.823   9.902  0.2693  1.6775  0.4888
   12CHL1    C9  851   5.641   5.950   9.960  0.0111  0.2221  0.2672
   12CHL1    H9  852   5.709   6.038   9.957 -0.3311  0.4621 -0.9674
   12CHL1   C10  853   5.632   5.907  10.114  0.2426 -0.4201  0.7856
   12CHL1   C19  854   5.555   5.772  10.124  0.5636  0.6369  0.2464
   12CHL1  H19A  855   5.468   5.749  10.059  2.8815  0.9829 -3.0877
   12CHL1  H19B  856   5.629   5.697  10.089 -0.5698 -0.1454 -0.5070
   12CHL1  H19C  857   5.531   5.752  10.231  0.9880  1.0088  0.4106
   12CHL1    C1  858   5.780   5.899  10.168 -0.4578  0.2165  0.3454
   12CHL1   H1A  859   5.829   5.814  10.116 -0.2509  0.2527  0.4828
   12CHL1   H1B  860   5.837   5.990  10.140  3.5007 -1.3759  2.8152
   12CHL1    C2  861   5.790   5.886  10.318  0.7378 -0.2511 -0.4696
   12CHL1   H2A  862   5.897   5.882  10.348  0.9699 -1.7597 -1.4314
   12CHL1   H2B  863   5.758   5.789  10.363 -0.0841 -0.3175 -1.1797
   12CHL1   C20  864   5.543   5.854   9.416  0.5907 -0.4377  0.1503
   12CHL1   H20  865   5.461   5.782   9.435  3.0460 -2.8554  1.9094
   12CHL1   C21  866   5.681   5.775   9.394  0.3523 -0.1654 -0.3507
   12CHL1  H21A  867   5.663   5.713   9.303  1.5257  0.7042 -1.1899
   12CHL1  H21B  868   5.716   5.711   9.477  1.0139 -1.5960 -1.7019
   12CHL1  H21C  869   5.765   5.842   9.367 -0.0522  0.6287  0.3326
   12CHL1   C22  870   5.513   5.919   9.281  0.2768  0.5047 -0.5694
   12CHL1  H22A  871   5.433   5.994   9.297 -0.8104 -0.8574  0.5666
   12CHL1  H22B  872   5.597   5.985   9.252  0.1206  1.4751  1.1111
   12CHL1   C23  873   5.475   5.825   9.171  0.0519 -0.0602  0.1210
   12CHL1  H23A  874   5.567   5.770   9.143  0.9244 -0.0121  2.8195
   12CHL1  H23B  875   5.410   5.738   9.193 -1.3904  0.7675 -0.7783
   12CHL1   C24  876   5.416   5.903   9.044  0.2165  0.5313  0.1625
   12CHL1  H24A  877   5.346   5.983   9.077  0.8882  1.0089  0.4513
   12CHL1  H24B  878   5.497   5.970   9.008  0.7594  0.1603  0.6650
   12CHL1   C25  879   5.359   5.818   8.930 -0.3114  0.2189 -0.2614
   12CHL1   H25  880   5.288   5.746   8.977 -3.4166  1.8584 -2.2533
   12CHL1   C26  881   5.284   5.914   8.829 -0.3504 -0.4099 -0.2954
   12CHL1  H26A  882   5.204   5.969   8.882 -0.1448  0.6880 -1.1233
   12CHL1  H26B  883   5.359   5.983   8.784  0.2370  0.5492  2.0542
   12CHL1  H26C  884   5.254   5.839   8.752 -3.8577  0.6491 -0.0236
   12CHL1   C27  885   5.464   5.724   8.870  0.6099 -0.0773 -0.0447
   12CHL1  H27A  886   5.535   5.787   8.811  1.3052 -1.2705 -0.4982
   12CHL1  H27B  887   5.529   5.669   8.942  3.0220  1.3678 -1.0626
   12CHL1  H27C  888   5.412   5.661   8.795 -1.2993 -0.8560  1.8859
   13CHL1    C3  889   4.790   1.089   9.864 -0.2659  0.3894  0.7993
   13CHL1    H3  890   4.895   1.105   9.833  0.2238  0.4721  2.4869
   13CHL1    O3  891   4.780   1.118  10.000 -0.5290 -0.0007  0.1343
   13CHL1   H3'  892   4.706   1.179  10.000 -1.0025 -0.5734  0.4631
   13CHL1    C4  893   4.684   1.179   9.785 -0.2242 -0.5075  0.9772
   13CHL1   H4A  894   4.585   1.143   9.820 -0.7695  0.5841  0.5758
   13CHL1   H4B  895   4.701   1.286   9.808  3.1060 -0.5581 -0.9606
   13CHL1    C5  896   4.682   1.141   9.639 -0.7915 -0.4103  0.3672
   13CHL1    C6  897   4.695   1.242   9.549  0.6929  0.2549  0.2492
   13CHL1    H6  898   4.699   1.345   9.586  0.0934  0.0280  0.9723
   13CHL1    C7  899   4.717   1.230   9.400  0.6578 -0.2941 -1.2418
   13CHL1   H7A  900   4.666   1.306   9.335 -0.4521 -1.0703 -1.2943
   13CHL1   H7B  901   4.825   1.234   9.374  0.2065  1.3483 -3.0156
   13CHL1    C8  902   4.675   1.092   9.349  0.2577  0.0190  0.3634
   13CHL1    H8  903   4.564   1.087   9.346  0.2366  0.1845  0.7867
   13CHL1   C14  904   4.734   1.082   9.207 -0.4977 -0.3003  0.9075
   13CHL1   H14  905   4.845   1.079   9.214 -0.3932 -2.0258 -0.8858
   13CHL1   C15  906   4.703   1.182   9.093  1.2005 -0.2408  0.3506
   13CHL1  H15A  907   4.594   1.200   9.081  1.2213  0.6870  1.4137
   13CHL1  H15B  908   4.746   1.278   9.129  1.4253 -0.4549  0.6520
   13CHL1   C16  909   4.742   1.100   8.964  1.0269  0.1370  0.5155
   13CHL1  H16A  910   4.658   1.094   8.892  2.6714 -0.4292 -1.3967
   13CHL1  H16B  911   4.831   1.144   8.914  0.3928 -1.0028 -1.6807
   13CHL1   C17  912   4.774   0.952   9.015 -0.7266 -0.5415  0.3480
   13CHL1   H17  913   4.879   0.953   9.049 -0.1463  0.0185 -1.4248
   13CHL1   C13  914   4.704   0.940   9.143 -0.6500 -0.0741  0.4118
   13CHL1   C18  915   4.553   0.921   9.128 -0.7144  0.2953  0.0635
   13CHL1  H18A  916   4.498   1.002   9.075  0.7341 -0.4331 -2.6666
   13CHL1  H18B  917   4.533   0.828   9.070 -0.6122  1.3863 -1.7585
   13CHL1  H18C  918   4.502   0.916   9.226 -1.8332  0.0589 -0.5133
   13CHL1   C12  919   4.758   0.833   9.239  0.4458  0.2027 -0.0742
   13CHL1  H12A  920   4.735   0.735   9.193  0.2647  0.0034  0.4349
   13CHL1  H12B  921   4.868   0.839   9.249  0.6373 -2.3422 -0.4301
   13CHL1   C11  922   4.695   0.844   9.381  0.8219  0.1479  0.0413
   13CHL1  H11A  923   4.586   0.828   9.376  0.8160 -0.0631  0.8111
   13CHL1  H11B  924   4.735   0.762   9.445 -1.7156 -0.0436  1.4374
   13CHL1    C9  925   4.729   0.982   9.438  0.3852  0.3296 -0.4992
   13CHL1    H9  926   4.840   0.987   9.437  0.3803  1.2808  1.3239
   13CHL1   C10  927   4.689   0.994   9.592  0.4582 -0.2858 -0.2503
   13CHL1   C19  928   4.539   0.947   9.601  0.9675  0.3085 -0.3325
   13CHL1  H19A  929   4.491   0.957   9.702 -1.9467 -2.8339 -1.2892
   13CHL1  H19B  930   4.468   1.002   9.536  1.7484  1.8855  0.1382
   13CHL1  H19C  931   4.516   0.839   9.585  1.0001  0.5702 -2.1326
   13CHL1    C1  932   4.768   0.910   9.689 -0.4260  0.5716  0.5608
   13CHL1   H1A  933   4.751   0.802   9.671  1.4418  0.3997 -0.2469
   13CHL1   H1B  934   4.876   0.931   9.677 -0.4305 -0.0925 -0.6733
   13CHL1    C2  935   4.743   0.941   9.841 -0.5133 -0.1540  0.1693
   13CHL1   H2A  936   4.808   0.885   9.912  0.3621  0.2170 -0.3281
   13CHL1   H2B  937   4.633   0.930   9.854 -0.3027 -2.0505  0.4484
   13CHL1   C20  938   4.759   0.847   8.898 -0.2756 -0.2093 -0.5517
   13CHL1   H20  939   4.750   0.748   8.948 -0.5833 -0.2468 -0.6738
   13CHL1   C21  940   4.893   0.838   8.831 -0.3940 -0.0488  0.6179
   13CHL1  H21A  941   4.896   0.776   8.739  1.2340  1.6442 -0.5171
   13CHL1  H21B  942   4.961   0.778   8.895 -1.3200 -1.1834  0.5468
   13CHL1  H21C  943   4.942   0.934   8.803  1.5712 -1.8374 -2.4109
   13CHL1   C22  944   4.641   0.868   8.796 -0.8820  0.2786 -0.2194
   13CHL1  H22A  945   4.543   0.878   8.848 -0.4487  1.6889  0.3665
   13CHL1  H22B  946   4.655   0.966   8.745  1.0016 -1.1742 -2.5824
   13CHL1   C23  947   4.633   0.753   8.682 -0.1350 -1.2179 -0.3565
   13CHL1  H23A  948   4.554   0.780   8.609 -0.0887 -0.2411 -0.0446
   13CHL1  H23B  949   4.716   0.755   8.608  0.7995  0.2703  0.7017
   13CHL1   C24  950   4.605   0.618   8.751  0.6305 -0.1385  0.7229
   13CHL1  H24A  951   4.693   0.576   8.806  0.9854  1.3607  1.3173
   13CHL1  H24B  952   4.536   0.633   8.836  0.7287  0.6243  0.6670
   13CHL1   C25  953   4.550   0.510   8.659 -0.2788  0.8846 -0.0991
   13CHL1   H25  954   4.608   0.523   8.565 -0.1525  3.3249  0.2660
   13CHL1   C26  955   4.597   0.374   8.724  1.2883 -0.2183 -0.3185
   13CHL1  H26A  956   4.701   0.352   8.691  1.0814  0.5315 -1.5072
   13CHL1  H26B  957   4.584   0.369   8.834 -1.4422 -1.3785 -0.6442
   13CHL1  H26C  958   4.528   0.298   8.680 -0.4412  2.3456 -2.1373
   13CHL1   C27  959   4.403   0.523   8.627 -0.4616 -0.4085  0.4497
   13CHL1  H27A  960   4.366   0.430   8.580  1.2657 -0.7465 -0.2812
   13CHL1  H27B  961   4.342   0.520   8.720  0.1801 -0.3317  0.8767
   13CHL1  H27C  962   4.374   0.608   8.562  1.0264  0.6432  1.1314
   14CHL1    C3  963   4.610   4.355  10.200  0.0959 -0.3677 -1.1172
   14CHL1    H3  964   4.511   4.382  10.159 -0.2981 -0.1566 -0.0455
   14CHL1    O3  965   4.605   4.369  10.343  0.2161  0.9610  0.3980
   14CHL1   H3'  966   4.534   4.308  10.360  1.1498  0.0359  1.0452
   14CHL1    C4  967   4.645   4.208  10.170 -0.2402 -0.5964 -0.2155
   14CHL1   H4A  968   4.750   4.199  10.205  0.3204  3.0611 -0.7686
   14CHL1   H4B  969   4.581   4.132  10.220 -0.0402  0.3067  1.4475
   14CHL1    C5  970   4.641   4.187  10.017 -0.0353  0.3366  0.2190
   14CHL1    C6  971   4.558   4.097   9.950 -0.5092 -0.5869 -0.2187
   14CHL1    H6  972   4.488   4.037  10.010  0.0453  0.1529  1.1953
   14CHL1    C7  973   4.556   4.078   9.800 -0.1163  0.3200 -0.2896
   14CHL1   H7A  974   4.550   3.971   9.772 -1.9999  0.3603 -0.0672
   14CHL1   H7B  975   4.460   4.117   9.760 -1.5829 -1.7120  1.2091
   14CHL1    C8  976   4.674   4.142   9.727 -0.0820  0.0013  0.1701
   14CHL1    H8  977   4.752   4.068   9.756  0.1290 -0.0036 -0.4124
   14CHL1   C14  978   4.653   4.150   9.574 -1.0158 -1.2245 -0.0220
   14CHL1   H14  979   4.568   4.218   9.550 -0.4142 -0.4525  0.0589
   14CHL1   C15  980   4.624   4.021   9.496 -0.1528  0.0949 -0.0807
   14CHL1  H15A  981   4.695   3.952   9.548 -0.6061  0.9998  1.7871
   14CHL1  H15B  982   4.522   3.979   9.512 -0.0046 -0.1691  0.1947
   14CHL1   C16  983   4.663   4.050   9.349 -0.3066  0.9426 -0.1959
   14CHL1  H16A  984   4.715   3.960   9.310 -1.2768 -0.1317  0.9383
   14CHL1  H16B  985   4.571   4.063   9.288 -1.6514 -0.3061  1.5045
   14CHL1   C17  986   4.742   4.184   9.353  0.0247 -0.7936 -0.1940
   14CHL1   H17  987   4.667   4.264   9.338 -1.1566 -1.5130  1.7179
   14CHL1   C13  988   4.782   4.208   9.502 -0.6318 -0.3558 -0.3452
   14CHL1   C18  989   4.905   4.110   9.523 -0.1995 -0.2645  0.2445
   14CHL1  H18A  990   4.995   4.150   9.470 -0.7771  0.2698 -0.3466
   14CHL1  H18B  991   4.930   4.092   9.629 -0.9603 -1.0147  0.3079
   14CHL1  H18C  992   4.887   4.007   9.485 -3.2472  0.7023 -1.1230
   14CHL1   C12  993   4.812   4.351   9.549  0.2409 -0.2024  0.1758
   14CHL1  H12A  994   4.911   4.384   9.512  0.1553  1.2433  1.2226
   14CHL1  H12B  995   4.722   4.402   9.508 -0.1714 -0.0403  1.2686
   14CHL1   C11  996   4.809   4.365   9.701  0.5100  0.9371  0.0386
   14CHL1  H11A  997   4.907   4.316   9.720 -0.4092  0.0209  2.5979
   14CHL1  H11B  998   4.816   4.468   9.741 -0.9137  0.5062  1.4393
   14CHL1    C9  999   4.703   4.282   9.784 -0.0215  0.0295  0.1575
   14CHL1    H9 1000   4.608   4.337   9.765 -1.0007 -1.9775 -0.8653
   14CHL1   C10 1001   4.738   4.275   9.937 -0.6375 -0.5821 -0.3965
   14CHL1   C19 1002   4.884   4.223   9.955 -0.4976 -0.3678 -0.1800
   14CHL1  H19A 1003   4.911   4.204  10.061  1.5410 -0.4670 -0.6925
   14CHL1  H19B 1004   4.908   4.128   9.902 -0.0415 -1.1942  1.4518
   14CHL1  H19C 1005   4.961   4.298   9.927  0.8351 -0.9525  1.7969
   14CHL1    C1 1006   4.734   4.420   9.991  0.1450  0.1769 -0.2965
   14CHL1   H1A 1007   4.816   4.481   9.949  0.0177  0.3152 -0.3453
   14CHL1   H1B 1008   4.642   4.476   9.964 -0.3135 -1.3504 -2.0043
   14CHL1    C2 1009   4.718   4.434  10.144 -0.3493  0.5097 -0.3895
   14CHL1   H2A 1010   4.707   4.545  10.145  0.9651  0.6586 -1.0618
   14CHL1   H2B 1011   4.819   4.416  10.185 -1.0508 -0.8483  0.7665
   14CHL1   C20 1012   4.846   4.197   9.240 -0.3386 -1.1836  0.0943
   14CHL1   H20 1013   4.930   4.127   9.259  1.4509  0.6412 -0.7916
   14CHL1   C21 1014   4.916   4.339   9.248 -0.6346  0.4397 -0.0434
   14CHL1  H21A 1015   4.984   4.328   9.336  0.9189 -1.8269 -1.4583
   14CHL1  H21B 1016   4.851   4.428   9.239  1.7103  2.1106 -0.7716
   14CHL1  H21C 1017   4.998   4.345   9.173 -1.1916  0.4807 -0.6478
   14CHL1   C22 1018   4.792   4.174   9.095 -0.2580 -0.2494 -0.4093
   14CHL1  H22A 1019   4.882   4.200   9.035  0.8039 -0.9893  0.8407
   14CHL1  H22B 1020   4.763   4.068   9.079  1.0444 -0.6032 -0.4681
   14CHL1   C23 1021   4.666   4.249   9.048  0.7176  0.1013 -0.5347
   14CHL1  H23A 1022   4.583   4.238   9.121  0.2145 -3.2056 -1.5428
   14CHL1  H23B 1023   4.693   4.356   9.040  0.5048  0.1263 -0.9065
   14CHL1   C24 1024   4.599   4.217   8.917 -0.4515 -0.3304 -0.3685
   14CHL1  H24A 1025   4.556   4.116   8.932  3.0385 -1.7620  0.4697
   14CHL1  H24B 1026   4.519   4.288   8.888 -0.5092  0.8065  2.3695
   14CHL1   C25 1027   4.695   4.225   8.795  0.7588  1.0989 -0.2111
   14CHL1   H25 1028   4.786   4.160   8.804  0.6607  1.0445  0.4526
   14CHL1   C26 1029   4.619   4.190   8.664  0.0495 -0.8296  0.0578
   14CHL1  H26A 1030   4.677   4.222   8.574  1.0962 -1.7985  0.3752
   14CHL1  H26B 1031   4.610   4.079   8.654 -0.1458 -0.6977 -1.3089
   14CHL1  H26C 1032   4.516   4.232   8.662  0.1375 -0.6038  0.3872
   14CHL1   C27 1033   4.757   4.364   8.791 -0.2583 -0.3195 -0.6117
   14CHL1  H27A 1034   4.823   4.379   8.703  1.0742 -3.1346 -0.1405
   14CHL1  H27B 1035   4.671   4.431   8.770 -0.5900 -0.0308  1.6312
   14CHL1  H27C 1036   4.801   4.391   8.889 -0.5428 -0.0144 -0.5709
   15CHL1    C3 1037   4.798   3.422  10.054 -0.4034  0.3478 -0.3259
   15CHL1    H3 1038   4.892   3.478  10.036 -0.0107 -0.3446 -0.4774
   15CHL1    O3 1039   4.786   3.388  10.191 -0.1980  0.2082  0.2868
   15CHL1   H3' 1040   4.850   3.318  10.206 -0.4295  0.0147  0.3827
   15CHL1    C4 1041   4.676   3.507  10.009 -0.0157  0.1458 -0.4667
   15CHL1   H4A 1042   4.584   3.452  10.036  0.5852 -0.1602  0.9920
   15CHL1   H4B 1043   4.675   3.605  10.062  0.6020  0.7320 -1.5042
   15CHL1    C5 1044   4.678   3.524   9.859  0.2937  0.2355  0.8495
   15CHL1    C6 1045   4.674   3.649   9.806 -0.1902 -0.3781 -0.6606
   15CHL1    H6 1046   4.670   3.739   9.870 -1.9223 -1.0601  0.2503
   15CHL1    C7 1047   4.674   3.673   9.656  0.3706  0.0390 -0.0303
   15CHL1   H7A 1048   4.593   3.745   9.630  0.3324 -0.8304 -2.4704
   15CHL1   H7B 1049   4.769   3.714   9.616 -0.4899  1.2083 -0.9169
   15CHL1    C8 1050   4.647   3.551   9.578 -0.4106 -0.2769  0.3314
   15CHL1    H8 1051   4.542   3.515   9.572 -1.1762  2.1603 -1.8170
   15CHL1   C14 1052   4.683   3.565   9.430  0.3281 -0.8391 -0.8000
   15CHL1   H14 1053   4.793   3.578   9.434  0.3813 -0.7380 -2.5518
   15CHL1   C15 1054   4.636   3.703   9.364 -0.1467 -1.0441  0.2521
   15CHL1  H15A 1055   4.535   3.736   9.396  0.9683  0.0914  2.7780
   15CHL1  H15B 1056   4.719   3.769   9.398 -3.0895  1.6241  2.5155
   15CHL1   C16 1057   4.637   3.672   9.212 -0.7839 -0.4819  0.4531
   15CHL1  H16A 1058   4.536   3.668   9.166 -1.4105 -0.1788  1.7756
   15CHL1  H16B 1059   4.706   3.741   9.159 -2.8831  0.7108 -0.8148
   15CHL1   C17 1060   4.686   3.524   9.201 -0.2866  0.6473  0.2825
   15CHL1   H17 1061   4.797   3.518   9.207 -0.2263  2.3705  1.2832
   15CHL1   C13 1062   4.653   3.454   9.335  0.6118 -0.2828  0.9391
   15CHL1   C18 1063   4.495   3.423   9.335 -0.2290  0.5636  0.6615
   15CHL1  H18A 1064   4.439   3.517   9.315 -1.0733 -0.4386 -1.9597
   15CHL1  H18B 1065   4.483   3.342   9.260 -1.7275  2.4113 -1.1801
   15CHL1  H18C 1066   4.453   3.386   9.431 -1.6507  0.5260  0.0351
   15CHL1   C12 1067   4.737   3.330   9.382  0.1629  0.5365 -0.4115
   15CHL1  H12A 1068   4.695   3.244   9.326 -1.5294  1.0454  0.0285
   15CHL1  H12B 1069   4.847   3.331   9.367 -0.0004 -0.7969 -1.7310
   15CHL1   C11 1070   4.710   3.302   9.538 -0.1310  0.3538  0.0600
   15CHL1  H11A 1071   4.606   3.264   9.545 -0.0712  0.1508 -0.1412
   15CHL1  H11B 1072   4.770   3.217   9.578 -2.4667 -0.8311  1.1446
   15CHL1    C9 1073   4.726   3.431   9.633  0.2779 -0.3884  0.2256
   15CHL1    H9 1074   4.832   3.463   9.631 -0.1356  1.0244  0.2477
   15CHL1   C10 1075   4.688   3.400   9.780  0.6808  0.1872  0.3746
   15CHL1   C19 1076   4.552   3.323   9.791  0.3300  0.7396 -0.3917
   15CHL1  H19A 1077   4.464   3.374   9.746 -0.5393  0.5443  1.0476
   15CHL1  H19B 1078   4.575   3.224   9.746  2.0416  0.7967  0.2982
   15CHL1  H19C 1079   4.516   3.303   9.895 -1.5024  0.3787 -1.0806
   15CHL1    C1 1080   4.811   3.312   9.833 -0.0818 -0.0367  0.6639
   15CHL1   H1A 1081   4.796   3.213   9.785 -2.3913  0.5042  0.2130
   15CHL1   H1B 1082   4.906   3.362   9.803  0.2915 -0.5946  0.9078
   15CHL1    C2 1083   4.806   3.288   9.984  0.3749  0.5166  0.2341
   15CHL1   H2A 1084   4.897   3.230  10.009  0.3859  0.1123 -0.7047
   15CHL1   H2B 1085   4.713   3.231  10.009  0.0704  0.7485 -0.3477
   15CHL1   C20 1086   4.648   3.465   9.065 -0.2524  0.2138 -0.0328
   15CHL1   H20 1087   4.540   3.482   9.044 -0.9456 -2.2617  1.3387
   15CHL1   C21 1088   4.689   3.308   9.068 -0.4225 -0.4644 -0.0015
   15CHL1  H21A 1089   4.656   3.279   8.966  1.0047  1.2589 -0.9734
   15CHL1  H21B 1090   4.624   3.253   9.139 -0.9145  0.7235  0.4715
   15CHL1  H21C 1091   4.796   3.285   9.087 -0.6831 -3.1295 -1.4801
   15CHL1   C22 1092   4.730   3.544   8.949 -1.0555  0.2488 -0.0078
   15CHL1  H22A 1093   4.691   3.647   8.948 -1.3695  0.1319 -2.2320
   15CHL1  H22B 1094   4.838   3.551   8.975 -0.6656  0.2245 -1.5572
   15CHL1   C23 1095   4.719   3.486   8.808  0.4206  0.0103  0.2710
   15CHL1  H23A 1096   4.788   3.547   8.746  2.1592 -0.6353  1.5230
   15CHL1  H23B 1097   4.753   3.380   8.815  1.5284  0.2543 -1.1085
   15CHL1   C24 1098   4.574   3.497   8.756  0.1203 -0.5029 -0.4034
   15CHL1  H24A 1099   4.512   3.434   8.823 -0.3657  0.2560 -0.1382
   15CHL1  H24B 1100   4.549   3.605   8.765  0.1422 -0.5012 -0.3689
   15CHL1   C25 1101   4.558   3.453   8.605 -0.0746  0.6182  0.1664
   15CHL1   H25 1102   4.614   3.527   8.545  1.3708 -1.0944 -0.6508
   15CHL1   C26 1103   4.618   3.311   8.597 -1.1903  0.1975  0.7188
   15CHL1  H26A 1104   4.595   3.262   8.500  0.0965 -0.0804  0.5412
   15CHL1  H26B 1105   4.729   3.310   8.603 -0.9772 -2.0105 -2.4388
   15CHL1  H26C 1106   4.587   3.252   8.687  1.3875 -0.8303  0.9790
   15CHL1   C27 1107   4.408   3.439   8.574 -0.2768  0.0385  0.1576
   15CHL1  H27A 1108   4.393   3.403   8.470 -0.0803  0.9119 -0.1714
   15CHL1  H27B 1109   4.365   3.356   8.635  1.3573 -1.9783 -1.3321
   15CHL1  H27C 1110   4.365   3.540   8.590 -2.4477 -0.4824 -2.0912
   16CHL1    C3 1111   5.650   3.562  10.259  0.3506  0.0676  0.6391
   16CHL1    H3 1112   5.545   3.528  10.262 -0.7686  3.2105 -0.9314
   16CHL1    O3 1113   5.685   3.575  10.388 -0.1472 -0.0159 -0.1074
   16CHL1   H3' 1114   5.753   3.511  10.408  1.2414  0.6782 -2.3532
   16CHL1    C4 1115   5.740   3.465  10.181  0.1053  0.0564  0.4683
   16CHL1   H4A 1116   5.845   3.501  10.193  0.1462  0.1503 -0.1714
   16CHL1   H4B 1117   5.739   3.364  10.226 -0.2387 -0.7683 -1.3867
   16CHL1    C5 1118   5.703   3.450  10.033 -0.2648  0.7193  0.2258
   16CHL1    C6 1119   5.668   3.326   9.980  0.5021  0.5051 -0.1094
   16CHL1    H6 1120   5.666   3.232  10.036 -1.0159 -0.1467 -1.2072
   16CHL1    C7 1121   5.624   3.306   9.841 -0.7413  0.4748  0.1918
   16CHL1   H7A 1122   5.662   3.210   9.798 -2.2236 -0.1625  0.2640
   16CHL1   H7B 1123   5.514   3.294   9.835 -0.8283  0.5190  1.4735
   16CHL1    C8 1124   5.673   3.427   9.761 -0.3989 -0.3885  0.7640
   16CHL1    H8 1125   5.783   3.421   9.744 -0.8114  0.9003 -2.7127
   16CHL1   C14 1126   5.604   3.417   9.618  0.0094  0.0738  0.2303
   16CHL1   H14 1127   5.494   3.406   9.625  0.2247 -2.5551 -0.2330
   16CHL1   C15 1128   5.621   3.283   9.541 -0.2524 -0.0260 -0.6149
   16CHL1  H15A 1129   5.725   3.246   9.547  0.4135  1.3847 -3.0515
   16CHL1  H15B 1130   5.552   3.202   9.575  2.0776 -1.6624  0.3240
   16CHL1   C16 1131   5.596   3.316   9.394  0.0484 -0.0900  0.0034
   16CHL1  H16A 1132   5.676   3.280   9.326  0.4684 -3.6732  2.2891
   16CHL1  H16B 1133   5.501   3.274   9.355 -1.3811  1.4706  1.6880
   16CHL1   C17 1134   5.573   3.472   9.391  0.0134  0.1461 -0.1478
   16CHL1   H17 1135   5.466   3.487   9.416 -0.8630 -2.9604 -1.8178
   16CHL1   C13 1136   5.646   3.526   9.513 -0.1277 -0.8701 -0.5120
   16CHL1   C18 1137   5.794   3.523   9.486  0.4846 -0.6068 -0.3307
   16CHL1  H18A 1138   5.865   3.545   9.569 -0.2423 -0.1259  0.1686
   16CHL1  H18B 1139   5.828   3.426   9.442  1.0348  0.0591 -1.3787
   16CHL1  H18C 1140   5.816   3.596   9.406  1.0540 -1.1722 -0.6917
   16CHL1   C12 1141   5.597   3.661   9.571  0.1830  0.2287 -0.2942
   16CHL1  H12A 1142   5.628   3.747   9.508  1.4986  0.4057  0.5641
   16CHL1  H12B 1143   5.487   3.651   9.574  0.1927  0.5907  2.1739
   16CHL1   C11 1144   5.646   3.674   9.718  0.1710 -0.4050 -0.1116
   16CHL1  H11A 1145   5.753   3.697   9.703 -0.1430  1.2195  0.1410
   16CHL1  H11B 1146   5.595   3.761   9.763  1.1046  0.4321 -0.6467
   16CHL1    C9 1147   5.623   3.562   9.819 -0.7431 -0.1677  0.0451
   16CHL1    H9 1148   5.514   3.559   9.841 -1.1699  4.3503 -0.8510
   16CHL1   C10 1149   5.694   3.578   9.958 -0.0147 -0.2748 -0.6118
   16CHL1   C19 1150   5.832   3.647   9.947  0.2960  0.2688  0.6523
   16CHL1  H19A 1151   5.892   3.588   9.873 -0.7709 -0.9982  0.7831
   16CHL1  H19B 1152   5.830   3.751   9.908  0.1961 -0.1203 -0.4022
   16CHL1  H19C 1153   5.878   3.654  10.048 -1.8954 -1.8627  1.8388
   16CHL1    C1 1154   5.604   3.682  10.036 -0.2189 -0.3740  0.0721
   16CHL1   H1A 1155   5.619   3.779   9.985  1.6536 -0.4705  0.3974
   16CHL1   H1B 1156   5.498   3.651  10.036 -0.6886  1.0499  2.4390
   16CHL1    C2 1157   5.646   3.695  10.186  0.6858  0.1126 -1.4753
   16CHL1   H2A 1158   5.578   3.769  10.233 -0.4560 -1.9410  0.2406
   16CHL1   H2B 1159   5.749   3.733  10.203  1.1135 -1.7260  0.3045
   16CHL1   C20 1160   5.606   3.525   9.252 -0.0406 -0.1364  0.0989
   16CHL1   H20 1161   5.714   3.505   9.239  0.0394 -0.4817  1.2346
   16CHL1   C21 1162   5.591   3.682   9.238 -0.5123  0.5760 -1.2702
   16CHL1  H21A 1163   5.614   3.711   9.133  0.4338  0.5483 -1.0752
   16CHL1  H21B 1164   5.666   3.738   9.298 -0.3708 -0.8970 -0.0449
   16CHL1  H21C 1165   5.488   3.709   9.271 -0.4812  2.0949 -2.3770
   16CHL1   C22 1166   5.532   3.443   9.137  0.1252  0.1518  0.5651
   16CHL1  H22A 1167   5.575   3.478   9.040  0.0678  2.2803  1.2966
   16CHL1  H22B 1168   5.563   3.336   9.146  1.4957  0.3966 -0.9120
   16CHL1   C23 1169   5.382   3.467   9.136  0.3510 -0.2860 -0.7992
   16CHL1  H23A 1170   5.334   3.430   9.229  0.0521  0.3434 -0.7011
   16CHL1  H23B 1171   5.374   3.578   9.141  0.0026 -0.1639 -3.5510
   16CHL1   C24 1172   5.293   3.432   9.016  0.2529  0.1283  0.3371
   16CHL1  H24A 1173   5.293   3.323   8.994 -0.6547  0.2024 -0.0680
   16CHL1  H24B 1174   5.190   3.465   9.043  0.5369  1.1313  0.2071
   16CHL1   C25 1175   5.331   3.487   8.874  0.0246 -0.1739  0.0713
   16CHL1   H25 1176   5.427   3.453   8.830 -0.9181 -2.0534 -0.5923
   16CHL1   C26 1177   5.219   3.451   8.774  0.0678  0.6091 -0.6050
   16CHL1  H26A 1178   5.123   3.493   8.812  1.4469  1.3279  2.2131
   16CHL1  H26B 1179   5.230   3.509   8.680  0.0564 -0.5738 -1.3510
   16CHL1  H26C 1180   5.204   3.342   8.759 -1.4988  0.4694  1.6021
   16CHL1   C27 1181   5.344   3.640   8.889  0.6191 -0.4418  0.0184
   16CHL1  H27A 1182   5.355   3.692   8.791 -0.5087  1.8688  1.0608
   16CHL1  H27B 1183   5.240   3.674   8.908  0.6302  1.2157 -2.6238
   16CHL1  H27C 1184   5.417   3.684   8.959  1.2851  2.6950 -2.5233
   17CHL1    C3 1185   0.784   0.746  10.401  0.3667 -0.6131 -0.4201
   17CHL1    H3 1186   0.688   0.692  10.386 -0.1591  0.2167 -0.0796
   17CHL1    O3 1187   0.784   0.776  10.537  0.1630  0.3062  0.1101
   17CHL1   H3' 1188   0.695   0.808  10.553  0.6717  1.3002  1.0242
   17CHL1    C4 1189   0.906   0.663  10.355  0.0344  0.4666 -0.2045
   17CHL1   H4A 1190   0.989   0.718  10.405  0.7564 -1.6185  0.9790
   17CHL1   H4B 1191   0.910   0.567  10.410  0.2909  1.2558  1.1922
   17CHL1    C5 1192   0.925   0.639  10.211  0.1016 -0.3577  0.3381
   17CHL1    C6 1193   0.946   0.520  10.157  0.1058 -0.0882  0.0644
   17CHL1    H6 1194   0.958   0.430  10.220  1.0317 -1.6875 -2.3072
   17CHL1    C7 1195   0.983   0.496  10.012  0.0303 -0.2420 -0.1539
   17CHL1   H7A 1196   1.074   0.432  10.008  0.4351  0.4080 -2.1154
   17CHL1   H7B 1197   0.899   0.442   9.963  0.2217 -1.2849  0.6583
   17CHL1    C8 1198   1.004   0.629   9.930  0.0564 -0.0434  0.6822
   17CHL1    H8 1199   1.102   0.671   9.959  0.1298  0.2711 -0.0249
   17CHL1   C14 1200   0.976   0.607   9.777 -0.2770  0.1735  0.8592
   17CHL1   H14 1201   0.869   0.576   9.776 -0.1584 -0.3024  2.1920
   17CHL1   C15 1202   1.044   0.485   9.711  0.0758 -0.3182  0.1394
   17CHL1  H15A 1203   1.151   0.490   9.741 -0.6250 -1.6657  2.9859
   17CHL1  H15B 1204   1.008   0.388   9.752  0.3263 -1.2434 -1.7894
   17CHL1   C16 1205   1.039   0.517   9.562 -0.3858 -0.0369  1.6634
   17CHL1  H16A 1206   1.146   0.509   9.533 -1.5256  1.0508 -3.2464
   17CHL1  H16B 1207   0.989   0.441   9.498 -0.5257  3.3951 -2.5419
   17CHL1   C17 1208   0.971   0.657   9.549 -0.0309 -0.5350 -0.2011
   17CHL1   H17 1209   0.864   0.629   9.556 -0.5131  1.5035  1.1108
   17CHL1   C13 1210   0.987   0.724   9.687  0.6035  0.1203  0.2824
   17CHL1   C18 1211   1.122   0.782   9.698 -0.5081 -0.9930  0.1838
   17CHL1  H18A 1212   1.135   0.860   9.620  1.0212 -0.1231  1.2716
   17CHL1  H18B 1213   1.155   0.817   9.798  1.7116  0.6372 -1.0726
   17CHL1  H18C 1214   1.199   0.711   9.659  2.3368  1.0828  1.8664
   17CHL1   C12 1215   0.879   0.825   9.730  0.4337 -0.0294  0.1635
   17CHL1  H12A 1216   0.886   0.922   9.677  0.4647  0.2993  0.7611
   17CHL1  H12B 1217   0.787   0.769   9.703  0.4413 -0.0577  0.1953
   17CHL1   C11 1218   0.886   0.855   9.878  0.8111  0.5968  0.0412
   17CHL1  H11A 1219   0.977   0.917   9.893  0.1646  1.6797 -0.4406
   17CHL1  H11B 1220   0.799   0.914   9.914  0.7174  0.1967  0.4815
   17CHL1    C9 1221   0.898   0.732   9.972  0.3986 -0.7092  0.7553
   17CHL1    H9 1222   0.799   0.682   9.965 -0.1681  0.6006 -0.9934
   17CHL1   C10 1223   0.910   0.766  10.120  0.4085  0.4135  0.8120
   17CHL1   C19 1224   1.026   0.869  10.152  0.8747  0.0216  0.4125
   17CHL1  H19A 1225   1.119   0.814  10.126 -0.0241 -2.2639  1.7926
   17CHL1  H19B 1226   1.031   0.962  10.092 -2.2406  0.5264  0.8692
   17CHL1  H19C 1227   1.025   0.887  10.262 -0.1274 -1.7860  0.7249
   17CHL1    C1 1228   0.777   0.834  10.168  0.0801  0.2476  0.0601
   17CHL1   H1A 1229   0.736   0.922  10.115 -0.7390  1.0236  1.9261
   17CHL1   H1B 1230   0.696   0.758  10.157 -0.6075  1.2321 -1.8773
   17CHL1    C2 1231   0.776   0.879  10.312 -0.0104  0.2784 -0.0161
   17CHL1   H2A 1232   0.680   0.928  10.341 -0.1904 -1.5723  2.7363
   17CHL1   H2B 1233   0.859   0.946  10.344 -0.7797  0.6209  1.3225
   17CHL1   C20 1234   0.992   0.750   9.426 -0.7124 -0.2720  0.3288
   17CHL1   H20 1235   0.991   0.859   9.447 -1.3945  0.2737 -2.2632
   17CHL1   C21 1236   0.869   0.727   9.332  0.2706 -0.1385 -0.1698
   17CHL1  H21A 1237   0.865   0.791   9.242  0.5402 -0.5279 -0.4627
   17CHL1  H21B 1238   0.776   0.745   9.389  0.7258  2.0150 -0.0722
   17CHL1  H21C 1239   0.863   0.622   9.297 -0.7130  0.4793 -1.8908
   17CHL1   C22 1240   1.129   0.733   9.349 -0.4629 -0.1997  0.0372
   17CHL1  H22A 1241   1.210   0.718   9.423  0.9883 -1.4628 -1.7597
   17CHL1  H22B 1242   1.136   0.637   9.292  2.3941 -1.3390  2.1835
   17CHL1   C23 1243   1.149   0.838   9.246 -0.9216 -0.5396 -0.7832
   17CHL1  H23A 1244   1.062   0.859   9.181 -1.4839 -0.7822 -0.1148
   17CHL1  H23B 1245   1.174   0.937   9.290 -1.1630 -0.5117 -0.7117
   17CHL1   C24 1246   1.274   0.800   9.162 -0.2545  0.9881  0.0866
   17CHL1  H24A 1247   1.359   0.758   9.221 -1.6384 -4.0063 -1.2687
   17CHL1  H24B 1248   1.240   0.718   9.096 -0.9108  1.6981 -0.4694
   17CHL1   C25 1249   1.326   0.904   9.064  0.5994 -0.9235  0.0462
   17CHL1   H25 1250   1.363   0.995   9.117 -1.9827  0.6461 -0.7776
   17CHL1   C26 1251   1.451   0.848   8.984  0.5433 -0.2775 -0.5651
   17CHL1  H26A 1252   1.541   0.913   8.985  0.9424 -0.8438  0.5814
   17CHL1  H26B 1253   1.467   0.747   9.026  0.5850 -0.3561 -0.7698
   17CHL1  H26C 1254   1.431   0.832   8.876  1.4397 -1.2047 -0.5998
   17CHL1   C27 1255   1.220   0.965   8.970  0.1525  1.1851 -0.0747
   17CHL1  H27A 1256   1.148   0.881   8.954 -0.7009  1.0376  4.0551
   17CHL1  H27B 1257   1.168   1.048   9.024 -1.0929  2.7289 -3.4948
   17CHL1  H27C 1258   1.262   0.998   8.873  0.5444  0.2111 -0.2442
   18CHL1    C3 1259   0.273   6.007  10.205  0.3736 -0.3739 -0.0287
   18CHL1    H3 1260   0.370   5.982  10.156 -0.8918 -0.4459 -2.5801
   18CHL1    O3 1261   0.303   6.040  10.337 -0.3601  0.5049  0.1491
   18CHL1   H3' 1262   0.346   5.961  10.372  0.3919  0.4583 -0.8676
   18CHL1    C4 1263   0.192   6.108  10.128 -0.2989 -0.0044  0.1663
   18CHL1   H4A 1264   0.095   6.137  10.175  0.7183  1.8075  1.2402
   18CHL1   H4B 1265   0.255   6.200  10.128  1.6638 -1.3026  1.7340
   18CHL1    C5 1266   0.168   6.060   9.982  0.3786  0.1755 -0.1451
   18CHL1    C6 1267   0.203   6.145   9.887  0.1978  0.3479  0.0888
   18CHL1    H6 1268   0.241   6.242   9.921 -1.1813 -0.0683  2.9413
   18CHL1    C7 1269   0.172   6.111   9.741 -0.2323 -0.3775  0.1807
   18CHL1   H7A 1270   0.125   6.196   9.687  0.1906  0.3031  0.8749
   18CHL1   H7B 1271   0.269   6.093   9.689 -0.4493  1.5044 -0.9416
   18CHL1    C8 1272   0.088   5.984   9.720  0.3846  0.0184 -0.2585
   18CHL1    H8 1273  -0.019   6.008   9.736  0.6172  1.3298 -0.5486
   18CHL1   C14 1274   0.101   5.936   9.575 -0.1604 -0.1737 -0.0416
   18CHL1   H14 1275   0.206   5.903   9.560 -0.1980 -0.7616  0.9537
   18CHL1   C15 1276   0.071   6.033   9.462  0.5465 -0.8620 -0.4977
   18CHL1  H15A 1277  -0.019   6.092   9.487 -0.0103 -2.0454  0.3380
   18CHL1  H15B 1278   0.156   6.104   9.452  0.4456 -0.9078 -1.7971
   18CHL1   C16 1279   0.046   5.942   9.341 -0.0337 -0.0737  0.2314
   18CHL1  H16A 1280  -0.050   5.969   9.292  0.6590 -0.9010 -1.6130
   18CHL1  H16B 1281   0.117   5.951   9.257  1.8100 -3.2725  1.3806
   18CHL1   C17 1282   0.030   5.800   9.398  0.4950 -0.0195 -0.0661
   18CHL1   H17 1283   0.126   5.746   9.384 -0.4512 -1.4246 -1.3508
   18CHL1   C13 1284   0.006   5.811   9.551  0.3562 -0.0271  0.6356
   18CHL1   C18 1285  -0.151   5.845   9.566  0.4558 -0.3961 -0.1247
   18CHL1  H18A 1286  -0.181   5.931   9.502  0.6846  0.3615  0.7748
   18CHL1  H18B 1287  -0.211   5.754   9.549  2.7297 -1.6335 -1.8235
   18CHL1  H18C 1288  -0.168   5.874   9.672 -0.9656 -1.0007 -0.1757
   18CHL1   C12 1289   0.059   5.697   9.642 -0.2968 -0.3150  0.0773
   18CHL1  H12A 1290   0.000   5.602   9.647 -2.2992  0.8602 -0.4378
   18CHL1  H12B 1291   0.159   5.664   9.608 -0.8429 -1.1157 -0.7862
   18CHL1   C11 1292   0.041   5.745   9.789 -0.3006 -0.7020 -0.5424
   18CHL1  H11A 1293  -0.069   5.738   9.807 -0.5110  3.1236  0.0012
   18CHL1  H11B 1294   0.092   5.669   9.853 -1.6119 -0.0716  1.2845
   18CHL1    C9 1295   0.122   5.874   9.817  0.2533 -0.5496 -0.4104
   18CHL1    H9 1296   0.231   5.851   9.807  0.0300 -2.7125  1.5601
   18CHL1   C10 1297   0.104   5.921   9.964  0.1951 -0.7571  0.2836
   18CHL1   C19 1298  -0.043   5.939  10.003 -0.0822  0.5443 -0.4318
   18CHL1  H19A 1299  -0.094   6.009   9.933 -1.4999  1.3329  1.3710
   18CHL1  H19B 1300  -0.091   5.839   9.991 -0.2631  0.8612 -2.6645
   18CHL1  H19C 1301  -0.058   5.960  10.111  1.9791  3.2513 -0.6185
   18CHL1    C1 1302   0.167   5.818  10.065  0.8758  0.0283 -0.0925
   18CHL1   H1A 1303   0.125   5.715  10.071  0.8674  0.0733  0.6354
   18CHL1   H1B 1304   0.272   5.804  10.030  0.0993 -0.0707 -2.4474
   18CHL1    C2 1305   0.190   5.878  10.210 -0.0045 -0.1699 -0.0415
   18CHL1   H2A 1306   0.240   5.796  10.266  0.4736  0.3613  0.3142
   18CHL1   H2B 1307   0.093   5.900  10.261 -0.3496 -3.0456  0.6636
   18CHL1   C20 1308  -0.063   5.711   9.305 -0.4098  0.2895 -0.3067
   18CHL1   H20 1309  -0.166   5.751   9.309 -1.3925 -2.1231 -0.1530
   18CHL1   C21 1310  -0.069   5.567   9.366 -0.1366 -0.0808  0.3153
   18CHL1  H21A 1311  -0.145   5.510   9.310 -1.7175  1.2683  1.0416
   18CHL1  H21B 1312  -0.102   5.571   9.472 -1.5622  3.3490 -0.1963
   18CHL1  H21C 1313   0.032   5.520   9.367  0.7307  1.6629 -1.4926
   18CHL1   C22 1314  -0.007   5.701   9.157  0.3840 -0.1907 -0.3325
   18CHL1  H22A 1315   0.012   5.799   9.110  0.6153 -0.3873 -0.6538
   18CHL1  H22B 1316   0.091   5.648   9.163  0.4570 -0.3635 -2.6241
   18CHL1   C23 1317  -0.091   5.614   9.059  0.3100  0.2687 -1.0866
   18CHL1  H23A 1318  -0.081   5.512   9.100  1.9563  0.6593 -0.5107
   18CHL1  H23B 1319  -0.199   5.639   9.072  0.7088  0.8469  1.3536
   18CHL1   C24 1320  -0.047   5.638   8.920  0.3137  0.1452  0.3917
   18CHL1  H24A 1321  -0.064   5.744   8.894 -0.5812 -0.3973 -1.2690
   18CHL1  H24B 1322   0.060   5.613   8.900  0.1818  1.4625 -2.2220
   18CHL1   C25 1323  -0.111   5.567   8.803  0.5752  0.2380 -0.3147
   18CHL1   H25 1324  -0.222   5.575   8.804  0.6075  0.6821 -0.2859
   18CHL1   C26 1325  -0.081   5.629   8.664  0.3220 -0.6664  0.1464
   18CHL1  H26A 1326   0.022   5.605   8.630  1.1843  0.5958  1.7950
   18CHL1  H26B 1327  -0.144   5.584   8.584  1.0956 -0.0882 -0.7980
   18CHL1  H26C 1328  -0.085   5.740   8.668  1.4215 -0.6162 -0.1168
   18CHL1   C27 1329  -0.072   5.420   8.803  0.1403  0.4388  0.8161
   18CHL1  H27A 1330  -0.136   5.381   8.721  0.3825  2.3829 -0.3350
   18CHL1  H27B 1331   0.035   5.401   8.778 -0.1988  0.3507 -0.5949
   18CHL1  H27C 1332  -0.108   5.363   8.891 -2.5187  1.2497  0.2953
   19CHL1    C3 1333   4.309   2.694  10.026  0.3340 -0.4211  0.2088
   19CHL1    H3 1334   4.247   2.604  10.005  0.5029 -0.4285 -0.2614
   19CHL1    O3 1335   4.328   2.693  10.166  0.0407  0.9543  0.1516
   19CHL1   H3' 1336   4.405   2.746  10.188  1.1029 -1.6834  3.2609
   19CHL1    C4 1337   4.444   2.682   9.956 -0.6658 -0.1159  0.0871
   19CHL1   H4A 1338   4.502   2.769   9.995 -0.7136 -0.5837  1.2223
   19CHL1   H4B 1339   4.499   2.594   9.996  1.1228  1.3400  0.9577
   19CHL1    C5 1340   4.431   2.690   9.801 -0.0721  0.1863 -1.5314
   19CHL1    C6 1341   4.475   2.592   9.718 -0.1818  0.2494  0.2324
   19CHL1    H6 1342   4.528   2.509   9.767 -0.3299  0.3355  0.5452
   19CHL1    C7 1343   4.472   2.599   9.564  0.2069 -0.9782  0.5406
   19CHL1   H7A 1344   4.562   2.561   9.512  0.5633  3.0059 -1.9265
   19CHL1   H7B 1345   4.381   2.544   9.531  0.1030  0.5183 -1.8317
   19CHL1    C8 1346   4.460   2.746   9.515 -0.3759  0.7954 -0.3624
   19CHL1    H8 1347   4.557   2.787   9.552  1.2052 -2.5105 -0.6973
   19CHL1   C14 1348   4.459   2.746   9.362  0.6394 -0.0657  0.0317
   19CHL1   H14 1349   4.375   2.683   9.325  1.0241  0.8233 -2.4526
   19CHL1   C15 1350   4.581   2.682   9.288  0.5876 -0.4501  0.5654
   19CHL1  H15A 1351   4.674   2.721   9.334  2.5427 -1.9883 -1.9240
   19CHL1  H15B 1352   4.585   2.571   9.288  2.0184 -0.4091 -0.2066
   19CHL1   C16 1353   4.563   2.745   9.144  0.1990 -0.2113 -0.2366
   19CHL1  H16A 1354   4.664   2.789   9.130  0.4023 -0.1756  1.2029
   19CHL1  H16B 1355   4.545   2.674   9.060 -0.1446 -1.5499  0.9370
   19CHL1   C17 1356   4.449   2.858   9.153  0.2734  0.1463  0.0714
   19CHL1   H17 1357   4.356   2.804   9.127  0.7045 -0.7094  0.2845
   19CHL1   C13 1358   4.443   2.887   9.306 -0.2380  0.2582 -0.0914
   19CHL1   C18 1359   4.565   2.978   9.340 -0.4156 -0.1404  0.5677
   19CHL1  H18A 1360   4.661   2.950   9.292  0.2106  0.0362  1.6965
   19CHL1  H18B 1361   4.544   3.083   9.309 -0.2819 -0.4111 -0.4677
   19CHL1  H18C 1362   4.579   2.991   9.449 -0.5400  0.5640  0.5011
   19CHL1   C12 1363   4.307   2.944   9.367  0.3266 -0.3886  0.3471
   19CHL1  H12A 1364   4.301   3.049   9.332  1.2398 -0.2694  0.5508
   19CHL1  H12B 1365   4.218   2.879   9.354 -0.5539  0.8783 -0.0410
   19CHL1   C11 1366   4.321   2.955   9.520 -0.2683  0.2986  0.0189
   19CHL1  H11A 1367   4.394   3.032   9.553  0.2268  0.4288 -1.3813
   19CHL1  H11B 1368   4.224   2.993   9.560  0.6208 -1.3759  4.0111
   19CHL1    C9 1369   4.340   2.813   9.592  0.2794  0.0253  0.2111
   19CHL1    H9 1370   4.250   2.754   9.565 -1.4096  1.6856  2.0281
   19CHL1   C10 1371   4.364   2.816   9.745  0.6305  0.7152  0.1286
   19CHL1   C19 1372   4.457   2.930   9.778 -0.5509 -0.0959 -0.0891
   19CHL1  H19A 1373   4.403   3.025   9.760 -1.5227 -0.8048 -0.9078
   19CHL1  H19B 1374   4.493   2.934   9.883  1.4702  0.1578 -0.7654
   19CHL1  H19C 1375   4.544   2.945   9.711 -0.4678  1.3916  0.3285
   19CHL1    C1 1376   4.225   2.829   9.816 -0.6751  0.3198 -0.5749
   19CHL1   H1A 1377   4.194   2.935   9.801 -1.2552  0.8561  3.7629
   19CHL1   H1B 1378   4.154   2.748   9.790 -0.2055 -0.2666 -0.0444
   19CHL1    C2 1379   4.235   2.824   9.975  0.8448  0.4229 -0.1320
   19CHL1   H2A 1380   4.133   2.826  10.019 -0.0036 -2.4170 -1.8269
   19CHL1   H2B 1381   4.284   2.918  10.008  0.8385  0.5155 -0.3885
   19CHL1   C20 1382   4.463   2.972   9.046  0.3127 -0.3508  0.5855
   19CHL1   H20 1383   4.542   3.045   9.074 -0.3027  0.5197  0.0514
   19CHL1   C21 1384   4.337   3.059   9.034  0.1071  0.3479 -0.1289
   19CHL1  H21A 1385   4.333   3.119   9.127 -1.8244  1.6632 -1.0303
   19CHL1  H21B 1386   4.250   2.995   9.005 -0.4665  0.8575  0.4533
   19CHL1  H21C 1387   4.355   3.133   8.954 -0.5081  0.4733 -0.1595
   19CHL1   C22 1388   4.510   2.924   8.907 -0.3939  0.3152 -0.1793
   19CHL1  H22A 1389   4.529   3.020   8.855  1.6446 -0.3013 -0.5880
   19CHL1  H22B 1390   4.605   2.869   8.922 -0.4518  0.3178  0.2006
   19CHL1   C23 1391   4.406   2.842   8.825 -0.9042  1.1200  1.0781
   19CHL1  H23A 1392   4.384   2.751   8.885 -1.9578 -1.0976 -2.4826
   19CHL1  H23B 1393   4.310   2.898   8.824 -1.4137  0.2548  0.0322
   19CHL1   C24 1394   4.429   2.795   8.681 -0.1384 -0.3047 -0.2444
   19CHL1  H24A 1395   4.502   2.712   8.680 -0.3572 -0.5101  0.7516
   19CHL1  H24B 1396   4.331   2.758   8.643 -1.2355  1.5703  0.6578
   19CHL1   C25 1397   4.465   2.913   8.580  0.2939 -0.4686  0.3315
   19CHL1   H25 1398   4.564   2.955   8.610  0.6445  0.6951 -2.2981
   19CHL1   C26 1399   4.473   2.876   8.434  0.0326 -0.0106 -0.4715
   19CHL1  H26A 1400   4.374   2.835   8.406  0.4949 -1.7719  0.3859
   19CHL1  H26B 1401   4.497   2.957   8.361 -0.5695 -0.5251 -1.2566
   19CHL1  H26C 1402   4.535   2.786   8.414 -2.2674 -1.7211 -0.0363
   19CHL1   C27 1403   4.362   3.024   8.602 -0.6224 -0.1700 -0.1512
   19CHL1  H27A 1404   4.261   2.984   8.581 -0.6417 -1.1795  1.7508
   19CHL1  H27B 1405   4.365   3.070   8.703 -1.2642 -0.6593  0.0926
   19CHL1  H27C 1406   4.351   3.104   8.526 -1.4343  0.8573  1.0211
   20CHL1    C3 1407   6.416   3.446  10.410  0.4823  0.8606  0.3749
   20CHL1    H3 1408   6.430   3.555  10.399  0.4796  0.8336  0.0991
   20CHL1    O3 1409   6.390   3.402  10.550 -0.4059  0.7100  0.3960
   20CHL1   H3' 1410   6.385   3.306  10.549  2.7786  0.4787  1.4494
   20CHL1    C4 1411   6.293   3.406  10.328  0.6181 -0.2098  0.2079
   20CHL1   H4A 1412   6.260   3.302  10.350 -1.1289  0.0832 -1.0275
   20CHL1   H4B 1413   6.205   3.459  10.370 -0.0030 -0.6390 -0.5383
   20CHL1    C5 1414   6.313   3.420  10.182 -0.1163 -0.8780  0.0474
   20CHL1    C6 1415   6.235   3.492  10.095 -0.2336  0.0618 -0.6378
   20CHL1    H6 1416   6.151   3.550  10.134  0.4842  0.2882  0.5760
   20CHL1    C7 1417   6.259   3.519   9.948  0.8481  0.0564  0.6191
   20CHL1   H7A 1418   6.160   3.527   9.898  1.0735  0.2769  0.1996
   20CHL1   H7B 1419   6.310   3.618   9.940 -0.0627  0.3357 -2.1271
   20CHL1    C8 1420   6.344   3.407   9.891 -1.2975  0.0616  0.3770
   20CHL1    H8 1421   6.283   3.314   9.892 -0.7261 -0.3230  2.3898
   20CHL1   C14 1422   6.387   3.432   9.748 -0.1605  0.3753  0.8993
   20CHL1   H14 1423   6.452   3.522   9.748  2.1818 -1.2573  0.3393
   20CHL1   C15 1424   6.271   3.470   9.651 -0.5014 -0.3073  0.4149
   20CHL1  H15A 1425   6.182   3.406   9.666  0.0796 -1.2894 -0.2533
   20CHL1  H15B 1426   6.250   3.578   9.667  1.5779  0.2473 -0.3747
   20CHL1   C16 1427   6.330   3.431   9.511  0.0023  0.2596  0.2823
   20CHL1  H16A 1428   6.261   3.362   9.458  2.0094 -0.3035 -1.6768
   20CHL1  H16B 1429   6.336   3.521   9.446  1.2875 -0.0165  0.0076
   20CHL1   C17 1430   6.475   3.381   9.535 -0.0897  0.5459  0.0614
   20CHL1   H17 1431   6.532   3.476   9.542 -0.0021  0.5349 -0.4527
   20CHL1   C13 1432   6.464   3.322   9.681 -0.0271  0.2035  0.4528
   20CHL1   C18 1433   6.385   3.187   9.676 -0.1079  0.0287  1.6619
   20CHL1  H18A 1434   6.429   3.103   9.617 -1.8876  0.7563 -0.7425
   20CHL1  H18B 1435   6.380   3.150   9.781  1.7073  0.8260  2.0475
   20CHL1  H18C 1436   6.280   3.206   9.647 -0.5171 -0.6736  2.6321
   20CHL1   C12 1437   6.599   3.309   9.757  0.1126 -0.1437 -0.0332
   20CHL1  H12A 1438   6.655   3.221   9.720  2.3592 -0.0763  3.0379
   20CHL1  H12B 1439   6.654   3.405   9.756 -1.2613  0.6721 -1.5666
   20CHL1   C11 1440   6.569   3.288   9.905  0.8312  0.0473  0.5101
   20CHL1  H11A 1441   6.540   3.181   9.914  1.1393 -0.0107  0.8449
   20CHL1  H11B 1442   6.663   3.293   9.964  0.0295 -3.0308  2.1430
   20CHL1    C9 1443   6.471   3.387   9.975  0.7377  0.1508 -0.2259
   20CHL1    H9 1444   6.523   3.485   9.983  1.0306  0.1833 -2.3726
   20CHL1   C10 1445   6.437   3.352  10.118  0.2513  0.5898 -0.6830
   20CHL1   C19 1446   6.425   3.203  10.133  0.4332 -0.2725 -0.5533
   20CHL1  H19A 1447   6.367   3.151  10.054  0.6609  0.4459 -1.2033
   20CHL1  H19B 1448   6.528   3.162  10.137  0.3142 -0.7529 -2.0737
   20CHL1  H19C 1449   6.390   3.175  10.234 -0.7561  2.1948 -0.2456
   20CHL1    C1 1450   6.556   3.407  10.210  0.4742 -0.0253  0.0148
   20CHL1   H1A 1451   6.646   3.355  10.169  1.9473  1.6614  1.0206
   20CHL1   H1B 1452   6.568   3.516  10.197  2.0490 -0.2980 -1.0261
   20CHL1    C2 1453   6.545   3.390  10.358 -0.5069  0.1130  1.0266
   20CHL1   H2A 1454   6.623   3.438  10.419  1.0621 -1.4544  0.2893
   20CHL1   H2B 1455   6.547   3.282  10.387 -0.9264  0.1025  1.0327
   20CHL1   C20 1456   6.531   3.302   9.422 -0.1304  0.5017  0.3967
   20CHL1   H20 1457   6.494   3.199   9.443  0.5963  0.8137  3.4868
   20CHL1   C21 1458   6.681   3.331   9.412  0.2521 -0.3200  0.4214
   20CHL1  H21A 1459   6.693   3.438   9.385  1.3815 -0.4693  0.3161
   20CHL1  H21B 1460   6.730   3.268   9.335 -0.7382  1.2312 -1.5148
   20CHL1  H21C 1461   6.726   3.307   9.510 -0.0414  1.1781  0.9286
   20CHL1   C22 1462   6.464   3.331   9.282 -0.2126  0.0730  0.0327
   20CHL1  H22A 1463   6.358   3.297   9.285 -0.0819 -0.1501  3.8162
   20CHL1  H22B 1464   6.455   3.436   9.245 -0.7884  0.4979  1.3630
   20CHL1   C23 1465   6.534   3.250   9.170  0.3417  0.2015 -0.0254
   20CHL1  H23A 1466   6.630   3.299   9.144 -0.2844  0.4813 -1.8608
   20CHL1  H23B 1467   6.560   3.146   9.200 -2.8224 -0.8044 -0.6063
   20CHL1   C24 1468   6.444   3.241   9.044  0.3548 -0.5045  0.6219
   20CHL1  H24A 1469   6.339   3.218   9.073  0.5860 -1.1022  0.9924
   20CHL1  H24B 1470   6.452   3.337   8.989  2.0040 -0.4940  0.8358
   20CHL1   C25 1471   6.495   3.154   8.929  1.0302  0.0250  0.4830
   20CHL1   H25 1472   6.497   3.053   8.976  0.3483  0.6855  1.9497
   20CHL1   C26 1473   6.390   3.155   8.813 -1.1068  0.4201 -0.4015
   20CHL1  H26A 1474   6.417   3.091   8.726 -0.0224  1.6953 -1.0014
   20CHL1  H26B 1475   6.289   3.117   8.843 -1.0933  1.0372  0.4394
   20CHL1  H26C 1476   6.367   3.261   8.789 -1.0654  0.6505  0.5307
   20CHL1   C27 1477   6.634   3.184   8.878 -0.3588 -0.0516 -0.0029
   20CHL1  H27A 1478   6.667   3.113   8.799  0.3721 -1.0015  1.1271
   20CHL1  H27B 1479   6.646   3.283   8.829  0.9670  0.4906  1.3678
   20CHL1  H27C 1480   6.711   3.174   8.958  0.1322  0.9582 -0.3349
   21CHL1    C3 1481   5.869   6.343  10.232  0.0383 -0.0254 -0.9008
   21CHL1    H3 1482   5.855   6.232  10.226  3.4122 -0.6262  1.4314
   21CHL1    O3 1483   5.891   6.391  10.362  0.4519  1.0421 -0.0639
   21CHL1   H3' 1484   5.982   6.420  10.374  0.5149  1.1540 -0.7823
   21CHL1    C4 1485   5.988   6.386  10.144 -0.2023 -0.6006 -0.7357
   21CHL1   H4A 1486   6.022   6.489  10.168  1.8115 -1.4910  0.3447
   21CHL1   H4B 1487   6.075   6.327  10.180 -1.4499 -2.5649 -0.8268
   21CHL1    C5 1488   5.965   6.367   9.995 -0.4615 -0.1007 -0.3696
   21CHL1    C6 1489   6.056   6.311   9.916 -0.6472 -0.5304 -0.4619
   21CHL1    H6 1490   6.161   6.300   9.947 -0.2467  2.6716 -0.5093
   21CHL1    C7 1491   6.040   6.278   9.773 -0.5588  0.2032  0.4571
   21CHL1   H7A 1492   6.130   6.300   9.712 -1.6298  1.3788 -0.7413
   21CHL1   H7B 1493   6.007   6.173   9.765 -2.8242  0.7765  1.6542
   21CHL1    C8 1494   5.927   6.359   9.714 -0.3872  0.4285  0.5080
   21CHL1    H8 1495   5.970   6.458   9.687  1.6041 -0.1449  1.4841
   21CHL1   C14 1496   5.878   6.300   9.577  0.1535  0.4768 -0.7580
   21CHL1   H14 1497   5.845   6.196   9.599 -0.2140  0.6931 -0.2734
   21CHL1   C15 1498   5.992   6.284   9.476 -0.7599  0.0980 -0.0332
   21CHL1  H15A 1499   6.038   6.381   9.450 -0.7287  0.3303  0.8645
   21CHL1  H15B 1500   6.063   6.203   9.504 -0.6566  0.9343  2.2713
   21CHL1   C16 1501   5.912   6.243   9.352 -0.4271  0.5271 -0.3132
   21CHL1  H16A 1502   5.942   6.299   9.261  0.8090  0.4231  0.0226
   21CHL1  H16B 1503   5.910   6.132   9.340  1.2632  0.3543  0.9155
   21CHL1   C17 1504   5.760   6.288   9.369  0.0497 -0.9348  0.0022
   21CHL1   H17 1505   5.691   6.204   9.392 -1.7287  0.5799  0.2699
   21CHL1   C13 1506   5.763   6.367   9.501  0.0075 -0.3246 -0.4738
   21CHL1   C18 1507   5.809   6.513   9.468  0.3669  0.6003  0.7719
   21CHL1  H18A 1508   5.721   6.565   9.425  2.8146  4.3983  0.1444
   21CHL1  H18B 1509   5.834   6.574   9.557 -0.0547  1.0180  0.6068
   21CHL1  H18C 1510   5.894   6.516   9.396 -0.2107 -0.1799  0.0429
   21CHL1   C12 1511   5.643   6.363   9.593  0.3402  0.6000 -0.2681
   21CHL1  H12A 1512   5.545   6.403   9.560  0.1930  2.0235  1.8042
   21CHL1  H12B 1513   5.610   6.259   9.616 -1.8033  1.4331  0.5365
   21CHL1   C11 1514   5.676   6.426   9.728 -0.2949  0.3396 -0.0399
   21CHL1  H11A 1515   5.694   6.535   9.717  1.7633 -0.0821 -1.2016
   21CHL1  H11B 1516   5.595   6.427   9.804 -0.5958  1.9991 -0.3700
   21CHL1    C9 1517   5.801   6.366   9.794  0.6475 -0.2927  0.0088
   21CHL1    H9 1518   5.779   6.258   9.809  0.0288 -0.1567  0.0764
   21CHL1   C10 1519   5.829   6.416   9.941 -0.0227 -0.4592 -0.1011
   21CHL1   C19 1520   5.830   6.567   9.936  0.0402 -0.6707 -0.2949
   21CHL1  H19A 1521   5.729   6.600   9.903 -0.7830 -1.4784  1.3279
   21CHL1  H19B 1522   5.855   6.608  10.037 -2.1484  1.2159 -0.4754
   21CHL1  H19C 1523   5.904   6.610   9.865 -0.8800 -0.6889 -1.2692
   21CHL1    C1 1524   5.715   6.372  10.042  0.1987 -0.1217 -0.5868
   21CHL1   H1A 1525   5.613   6.408  10.015 -0.0466  0.8690  1.5675
   21CHL1   H1B 1526   5.718   6.261  10.034  0.3644 -0.3753  2.4045
   21CHL1    C2 1527   5.738   6.402  10.183 -0.3048 -0.2857 -0.0426
   21CHL1   H2A 1528   5.655   6.355  10.241  0.1898 -0.9370  0.1422
   21CHL1   H2B 1529   5.743   6.509  10.212  1.2423 -1.0342  2.6350
   21CHL1   C20 1530   5.704   6.353   9.243 -0.4731 -0.1010 -0.3078
   21CHL1   H20 1531   5.772   6.434   9.208 -0.8319  0.1855 -0.3392
   21CHL1   C21 1532   5.569   6.416   9.261  0.1993 -0.4054 -0.8636
   21CHL1  H21A 1533   5.497   6.333   9.274  1.2035 -1.5467 -2.4909
   21CHL1  H21B 1534   5.535   6.475   9.173 -0.8936 -0.9440 -0.8194
   21CHL1  H21C 1535   5.560   6.487   9.346  2.1620 -0.9024 -0.2123
   21CHL1   C22 1536   5.698   6.253   9.118  0.3828 -0.6924 -0.5677
   21CHL1  H22A 1537   5.787   6.187   9.126 -0.1374 -1.7006 -2.6296
   21CHL1  H22B 1538   5.607   6.191   9.134 -0.5996  1.0394  0.6458
   21CHL1   C23 1539   5.696   6.311   8.976 -0.4189 -0.1610  0.5385
   21CHL1  H23A 1540   5.618   6.389   8.965 -0.0941 -0.1156 -1.7098
   21CHL1  H23B 1541   5.789   6.363   8.948 -0.0581  0.7543  3.3069
   21CHL1   C24 1542   5.663   6.196   8.884  0.1195  0.4381  0.8012
   21CHL1  H24A 1543   5.750   6.128   8.901  0.0738 -0.1635 -1.2050
   21CHL1  H24B 1544   5.567   6.150   8.914  0.0624  1.0338  1.5413
   21CHL1   C25 1545   5.654   6.234   8.731  0.0302  0.0048 -0.2832
   21CHL1   H25 1546   5.748   6.286   8.703 -0.9556  2.3692  0.6923
   21CHL1   C26 1547   5.622   6.117   8.647 -0.2184 -0.1893 -0.1741
   21CHL1  H26A 1548   5.634   6.131   8.537  0.3740 -1.3138 -0.2650
   21CHL1  H26B 1549   5.696   6.037   8.668  1.2340  0.7824 -1.4665
   21CHL1  H26C 1550   5.518   6.082   8.664 -0.1431  1.4555  4.1629
   21CHL1   C27 1551   5.545   6.340   8.706  0.5204  0.0109 -0.0344
   21CHL1  H27A 1552   5.563   6.445   8.735  1.9282 -0.1339 -0.3592
   21CHL1  H27B 1553   5.516   6.350   8.599 -0.1668  0.2636  0.1702
   21CHL1  H27C 1554   5.457   6.312   8.768  1.5469  0.8248  1.8178
   22CHL1    C3 1555   5.769   0.732  10.083  0.6609  0.2856 -0.2550
   22CHL1    H3 1556   5.870   0.697  10.054 -0.2670 -1.1782 -1.8232
   22CHL1    O3 1557   5.741   0.723  10.224  0.1687 -0.1275 -0.4782
   22CHL1   H3' 1558   5.698   0.638  10.236  0.6989 -0.2007  0.9219
   22CHL1    C4 1559   5.773   0.883  10.047 -0.3171 -0.4435  0.5668
   22CHL1   H4A 1560   5.686   0.931  10.097  0.3880  0.4459  0.9512
   22CHL1   H4B 1561   5.861   0.918  10.105 -0.5553  0.7474  0.2254
   22CHL1    C5 1562   5.771   0.911   9.895 -0.8334  0.2802  0.1619
   22CHL1    C6 1563   5.864   0.991   9.844 -0.3495  0.6120  0.1989
   22CHL1    H6 1564   5.930   1.041   9.916  2.0716 -1.9173 -0.1548
   22CHL1    C7 1565   5.892   1.015   9.696 -0.2852 -0.6711  0.5163
   22CHL1   H7A 1566   5.903   1.124   9.678  1.7397 -0.7713  1.0750
   22CHL1   H7B 1567   5.985   0.960   9.670  0.7262 -0.5327  3.6163
   22CHL1    C8 1568   5.778   0.962   9.604 -0.3003 -0.1915 -1.3359
   22CHL1    H8 1569   5.689   1.027   9.619 -0.6595 -0.9678  0.0108
   22CHL1   C14 1570   5.825   0.945   9.465  0.5538  0.1566  0.0570
   22CHL1   H14 1571   5.905   0.868   9.467  0.1007 -0.3245 -0.6582
   22CHL1   C15 1572   5.880   1.074   9.389  0.2160 -0.3639  0.2190
   22CHL1  H15A 1573   5.822   1.160   9.429  1.5061  0.1668  0.9679
   22CHL1  H15B 1574   5.988   1.079   9.414 -0.3193  0.5298  2.4311
   22CHL1   C16 1575   5.861   1.050   9.237  0.0654 -0.5019  0.1480
   22CHL1  H16A 1576   5.792   1.123   9.189  0.8071  0.5413  0.6732
   22CHL1  H16B 1577   5.949   1.047   9.169  0.0513 -2.2271  0.1927
   22CHL1   C17 1578   5.801   0.909   9.231  0.3720 -0.4770 -0.0609
   22CHL1   H17 1579   5.887   0.839   9.235  0.6254 -0.1340  0.7031
   22CHL1   C13 1580   5.720   0.888   9.365 -0.2239  0.8987  0.1871
   22CHL1   C18 1581   5.586   0.970   9.375 -0.5865 -0.0426  0.0940
   22CHL1  H18A 1582   5.602   1.074   9.340  1.4306 -0.9712 -1.9130
   22CHL1  H18B 1583   5.513   0.928   9.302 -0.0488 -1.9565  0.6360
   22CHL1  H18C 1584   5.545   0.965   9.478  0.5262 -0.0455  0.5456
   22CHL1   C12 1585   5.702   0.743   9.416  0.2093  0.7971  0.3554
   22CHL1  H12A 1586   5.616   0.694   9.365 -0.8477  2.4959  0.4651
   22CHL1  H12B 1587   5.802   0.696   9.403  0.4338  1.2183  0.5524
   22CHL1   C11 1588   5.661   0.734   9.565 -0.9024 -0.3209 -0.2924
   22CHL1  H11A 1589   5.554   0.763   9.560  0.1023  4.1728  1.5643
   22CHL1  H11B 1590   5.661   0.628   9.597 -0.9210 -0.9810 -2.3901
   22CHL1    C9 1591   5.746   0.826   9.660  0.8425 -0.2784  0.3951
   22CHL1    H9 1592   5.845   0.775   9.653  0.6237 -0.4959 -1.3152
   22CHL1   C10 1593   5.686   0.820   9.810  0.7210  0.2607  0.6665
   22CHL1   C19 1594   5.541   0.887   9.810  0.6217  0.0363  0.2128
   22CHL1  H19A 1595   5.471   0.819   9.757 -0.6384  0.7327  0.9581
   22CHL1  H19B 1596   5.508   0.909   9.914  0.3683 -0.7452  0.3034
   22CHL1  H19C 1597   5.536   0.990   9.767  0.4714  0.1576  0.5232
   22CHL1    C1 1598   5.682   0.676   9.857  0.3535 -0.3201 -0.5117
   22CHL1   H1A 1599   5.596   0.621   9.814 -0.2687  0.0730  0.2173
   22CHL1   H1B 1600   5.776   0.623   9.829  0.9156 -0.1490  0.9957
   22CHL1    C2 1601   5.652   0.661  10.008 -0.5424  0.4530  0.6561
   22CHL1   H2A 1602   5.658   0.551  10.023 -1.0285  0.1830 -1.0349
   22CHL1   H2B 1603   5.551   0.696  10.037 -2.2415 -2.8012 -1.0384
   22CHL1   C20 1604   5.719   0.882   9.098 -0.5368 -0.4039 -0.7865
   22CHL1   H20 1605   5.626   0.942   9.111 -0.6886 -1.2285  2.2724
   22CHL1   C21 1606   5.685   0.735   9.083  0.5318  0.2851 -0.7890
   22CHL1  H21A 1607   5.607   0.696   9.151 -0.1101 -0.7213 -2.0663
   22CHL1  H21B 1608   5.774   0.668   9.092  1.4728  1.8038  1.4470
   22CHL1  H21C 1609   5.650   0.713   8.980  1.0645 -3.5486 -0.2334
   22CHL1   C22 1610   5.771   0.926   8.960 -0.9610 -0.0621 -0.0588
   22CHL1  H22A 1611   5.705   0.892   8.878 -0.4739 -1.0701 -0.0425
   22CHL1  H22B 1612   5.772   1.037   8.961  2.9472 -0.0144 -0.6629
   22CHL1   C23 1613   5.904   0.867   8.924  0.0498  0.6768  0.4037
   22CHL1  H23A 1614   5.979   0.891   9.003  0.3130 -0.4079  0.4929
   22CHL1  H23B 1615   5.897   0.756   8.922 -0.3566  0.6823  1.4321
   22CHL1   C24 1616   5.957   0.930   8.789 -0.3569 -0.0016  0.0131
   22CHL1  H24A 1617   5.889   0.911   8.703  1.1417 -1.0693 -0.9532
   22CHL1  H24B 1618   5.954   1.041   8.799 -2.2352 -0.0253 -0.0545
   22CHL1   C25 1619   6.097   0.888   8.748  0.0117 -0.2652 -0.4707
   22CHL1   H25 1620   6.086   0.779   8.731  0.3689 -0.1238 -1.7314
   22CHL1   C26 1621   6.138   0.951   8.614  0.3910  0.6112  0.0915
   22CHL1  H26A 1622   6.056   0.939   8.540 -0.1023 -3.1977  1.1348
   22CHL1  H26B 1623   6.159   1.060   8.618 -1.2482  1.0564 -2.4680
   22CHL1  H26C 1624   6.223   0.896   8.569 -0.3024 -0.2899 -0.1249
   22CHL1   C27 1625   6.196   0.930   8.861 -0.0348  0.1679 -0.6622
   22CHL1  H27A 1626   6.301   0.920   8.826  0.3579 -1.2139  0.8709
   22CHL1  H27B 1627   6.183   1.038   8.884  1.1830  0.6589 -2.1788
   22CHL1  H27C 1628   6.180   0.855   8.942  0.0495  2.6846  1.7523
   23CHL1    C3 1629   1.954   2.151  10.124  0.2178 -0.3764 -0.3032
   23CHL1    H3 1630   1.897   2.242  10.095  0.5794 -0.1910 -0.4391
   23CHL1    O3 1631   1.980   2.148  10.260  0.2311 -0.6040  0.4053
   23CHL1   H3' 1632   1.993   2.238  10.289 -2.8262 -0.0954  0.3956
   23CHL1    C4 1633   1.890   2.019  10.085  0.0898  0.2293 -0.3171
   23CHL1   H4A 1634   1.955   1.933  10.113  2.5371  1.9708 -0.4540
   23CHL1   H4B 1635   1.796   2.017  10.143 -0.8363 -0.9970 -1.8113
   23CHL1    C5 1636   1.859   2.028   9.936 -0.1508 -0.1271  0.6333
   23CHL1    C6 1637   1.739   2.038   9.880 -0.2599  0.3259 -0.7341
   23CHL1    H6 1638   1.651   2.045   9.945  0.5663  1.6973  0.2714
   23CHL1    C7 1639   1.714   2.039   9.731 -0.3231  0.4615 -0.8303
   23CHL1   H7A 1640   1.628   1.970   9.716 -1.1242  1.4787 -1.0084
   23CHL1   H7B 1641   1.670   2.139   9.712 -0.3321  0.9160  1.4503
   23CHL1    C8 1642   1.839   2.002   9.648  0.3073  0.5740 -0.3285
   23CHL1    H8 1643   1.850   1.891   9.652  2.5992  0.6319 -3.0875
   23CHL1   C14 1644   1.820   2.027   9.497  0.3048 -0.5326  0.9743
   23CHL1   H14 1645   1.789   2.134   9.488 -0.0366 -0.7445 -0.3448
   23CHL1   C15 1646   1.703   1.955   9.430  0.1378 -0.5979 -0.8006
   23CHL1  H15A 1647   1.699   1.849   9.463  2.9233 -0.0678  1.3994
   23CHL1  H15B 1648   1.600   1.997   9.440 -0.8841 -3.0390 -0.6798
   23CHL1   C16 1649   1.745   1.963   9.281  0.5308 -0.5991 -0.7039
   23CHL1  H16A 1650   1.761   1.864   9.235 -0.7327 -1.1461  0.0020
   23CHL1  H16B 1651   1.671   2.019   9.220  0.7448  0.8635  0.3256
   23CHL1   C17 1652   1.887   2.028   9.271 -0.0120  0.6054 -0.1432
   23CHL1   H17 1653   1.867   2.136   9.251 -2.4239 -0.0514 -1.5263
   23CHL1   C13 1654   1.948   2.007   9.417 -0.2807  0.0942 -0.1695
   23CHL1   C18 1655   1.993   1.860   9.426 -0.2155  0.3989  0.4657
   23CHL1  H18A 1656   2.081   1.853   9.359  0.3639 -3.1232  1.5200
   23CHL1  H18B 1657   2.014   1.825   9.529 -1.3222  0.5819  0.7699
   23CHL1  H18C 1658   1.909   1.800   9.386 -0.6235  1.2213  0.0792
   23CHL1   C12 1659   2.045   2.101   9.468 -0.4303 -0.4856 -0.1090
   23CHL1  H12A 1660   2.141   2.087   9.413 -0.8020  0.4808 -1.0286
   23CHL1  H12B 1661   2.011   2.207   9.463  1.1103 -0.0212 -1.0417
   23CHL1   C11 1662   2.082   2.071   9.611  0.4179  0.6822  0.2536
   23CHL1  H11A 1663   2.114   1.964   9.612  0.3590  0.6438 -0.8125
   23CHL1  H11B 1664   2.163   2.139   9.643 -0.0646  2.6600 -2.4976
   23CHL1    C9 1665   1.956   2.081   9.703 -0.2213 -1.2974 -0.1548
   23CHL1    H9 1666   1.924   2.188   9.706  1.3707 -0.8176  3.7113
   23CHL1   C10 1667   1.988   2.045   9.852 -0.9307  0.0400 -0.6671
   23CHL1   C19 1668   2.079   1.923   9.864 -0.3702  0.7508 -0.1406
   23CHL1  H19A 1669   2.100   1.888   9.967  0.4570  0.6617 -0.3388
   23CHL1  H19B 1670   2.046   1.834   9.807  0.2804  0.0869  0.5148
   23CHL1  H19C 1671   2.177   1.950   9.820 -0.2964 -0.5508 -0.7920
   23CHL1    C1 1672   2.056   2.175   9.913  0.2524 -0.0496  0.7392
   23CHL1   H1A 1673   2.150   2.196   9.859 -0.4851  1.3220 -0.0504
   23CHL1   H1B 1674   1.993   2.266   9.900  0.2952  0.0670  1.3497
   23CHL1    C2 1675   2.091   2.159  10.062 -0.5895 -0.1976 -0.0048
   23CHL1   H2A 1676   2.147   2.245  10.104  1.3560 -1.2969 -0.2910
   23CHL1   H2B 1677   2.156   2.071  10.084 -0.1793  0.4312  1.3735
   23CHL1   C20 1678   1.963   1.995   9.145  0.3763 -0.0978  0.6743
   23CHL1   H20 1679   1.987   1.887   9.154  2.1823  0.3498  1.5409
   23CHL1   C21 1680   2.095   2.079   9.148 -0.1148  0.0220  0.3111
   23CHL1  H21A 1681   2.176   2.046   9.216 -1.1522 -0.6632  1.2234
   23CHL1  H21B 1682   2.068   2.184   9.171  0.0525 -0.2738  1.8839
   23CHL1  H21C 1683   2.143   2.077   9.048  1.4165  0.6976  1.0281
   23CHL1   C22 1684   1.872   2.032   9.021 -0.5989 -0.2486 -0.3070
   23CHL1  H22A 1685   1.777   1.974   9.025 -0.8946  0.1740 -1.2293
   23CHL1  H22B 1686   1.854   2.141   9.020  0.7124 -0.0199 -0.3180
   23CHL1   C23 1687   1.944   1.998   8.894  1.2723 -0.4440 -0.7399
   23CHL1  H23A 1688   2.045   2.045   8.885 -0.1175  2.7645 -0.0492
   23CHL1  H23B 1689   1.953   1.889   8.877 -0.1137 -0.9086  1.3039
   23CHL1   C24 1690   1.853   2.051   8.783  0.4939 -0.0931 -0.5178
   23CHL1  H24A 1691   1.752   2.004   8.791 -1.0986  3.4652  1.3019
   23CHL1  H24B 1692   1.827   2.159   8.781 -2.4335 -0.7534 -1.8522
   23CHL1   C25 1693   1.909   2.017   8.643 -0.4207 -0.8858  0.3449
   23CHL1   H25 1694   1.955   1.916   8.651  0.9554 -0.2427  0.5665
   23CHL1   C26 1695   1.786   2.014   8.540 -0.5639 -0.3985  0.0214
   23CHL1  H26A 1696   1.713   1.932   8.558 -0.5069 -0.0090  2.1956
   23CHL1  H26B 1697   1.726   2.107   8.550  1.5393  0.8178  1.7997
   23CHL1  H26C 1698   1.817   2.006   8.434 -0.2450 -1.8960  0.2209
   23CHL1   C27 1699   2.010   2.109   8.593 -0.2935 -0.0055  0.3105
   23CHL1  H27A 1700   2.040   2.073   8.493 -0.7965 -0.7223  0.4171
   23CHL1  H27B 1701   1.978   2.214   8.579  2.5013  0.8515 -0.1207
   23CHL1  H27C 1702   2.096   2.131   8.661 -0.1096 -1.9113  0.7129
   24CHL1    C3 1703   3.792   3.054  10.051  0.2473 -0.2407 -0.0068
   24CHL1    H3 1704   3.843   3.149  10.024 -2.1258  1.3716  1.0128
   24CHL1    O3 1705   3.781   3.054  10.188 -0.6432 -0.0018 -0.2232
   24CHL1   H3' 1706   3.729   2.976  10.208  1.5316 -1.9953 -2.0084
   24CHL1    C4 1707   3.653   3.070   9.979  0.1198  0.4435  0.3944
   24CHL1   H4A 1708   3.583   2.990  10.012 -1.1881  0.4985 -2.0844
   24CHL1   H4B 1709   3.619   3.173   9.999  4.1591  1.9197  0.0730
   24CHL1    C5 1710   3.664   3.050   9.829  0.1330  0.5624  1.0381
   24CHL1    C6 1711   3.604   3.141   9.744  0.4239 -0.4652  0.4546
   24CHL1    H6 1712   3.544   3.216   9.797  0.8555 -0.5049  1.0009
   24CHL1    C7 1713   3.602   3.141   9.594 -1.0622 -0.0143  0.8222
   24CHL1   H7A 1714   3.498   3.142   9.556 -1.3302 -1.3917  1.5038
   24CHL1   H7B 1715   3.659   3.227   9.551  1.2285 -1.4311  0.8969
   24CHL1    C8 1716   3.672   3.018   9.534 -0.7599 -0.0746  0.7492
   24CHL1    H8 1717   3.611   2.925   9.531 -0.0764 -0.5091  0.0842
   24CHL1   C14 1718   3.719   3.042   9.390 -0.1071  0.4402  0.1878
   24CHL1   H14 1719   3.798   3.120   9.403  0.6157 -0.1687 -0.5204
   24CHL1   C15 1720   3.626   3.103   9.290 -0.1366  0.3939  0.3590
   24CHL1  H15A 1721   3.527   3.055   9.303  0.1682 -0.0775  0.9947
   24CHL1  H15B 1722   3.616   3.213   9.301  0.2453  0.6409 -1.7018
   24CHL1   C16 1723   3.689   3.061   9.153  0.1207  0.3089  0.8977
   24CHL1  H16A 1724   3.611   3.010   9.092 -0.9451 -0.4528  2.8499
   24CHL1  H16B 1725   3.711   3.150   9.092  0.9137 -0.8224 -0.4960
   24CHL1   C17 1726   3.817   2.977   9.189 -0.1862  0.0864  0.4144
   24CHL1   H17 1727   3.896   3.054   9.199  1.4666 -1.5586  0.3165
   24CHL1   C13 1728   3.796   2.924   9.337  0.0542  0.4664  0.0499
   24CHL1   C18 1729   3.696   2.803   9.315  0.6039  0.3894 -0.0380
   24CHL1  H18A 1730   3.668   2.770   9.417 -0.8967  0.7636 -0.3249
   24CHL1  H18B 1731   3.595   2.828   9.277 -0.1100 -0.7301  1.1076
   24CHL1  H18C 1732   3.737   2.721   9.252  2.2288  1.5860 -0.5917
   24CHL1   C12 1733   3.913   2.883   9.424 -0.0669 -0.5529 -0.0333
   24CHL1  H12A 1734   3.978   2.801   9.386  0.2588  0.6375 -2.1135
   24CHL1  H12B 1735   3.987   2.966   9.426  1.2554 -1.6594 -1.3154
   24CHL1   C11 1736   3.873   2.851   9.571  0.6424  0.2313  0.4874
   24CHL1  H11A 1737   3.823   2.752   9.565  0.3368  0.4171 -0.0592
   24CHL1  H11B 1738   3.969   2.845   9.625  0.5163  3.2184  1.1282
   24CHL1    C9 1739   3.789   2.967   9.627 -0.4332  0.3321  0.3398
   24CHL1    H9 1740   3.863   3.050   9.620  0.0255 -0.1090 -0.0408
   24CHL1   C10 1741   3.749   2.938   9.768  0.0769 -0.3810 -0.6075
   24CHL1   C19 1742   3.671   2.807   9.781  0.0668  0.3482 -0.2789
   24CHL1  H19A 1743   3.574   2.817   9.729  0.2172  0.4794 -0.5378
   24CHL1  H19B 1744   3.732   2.725   9.737  0.9658 -0.0809  1.7415
   24CHL1  H19C 1745   3.635   2.791   9.884 -0.2420 -1.1240 -0.6100
   24CHL1    C1 1746   3.876   2.932   9.854  0.4012 -0.6317 -0.1940
   24CHL1   H1A 1747   3.927   2.839   9.822 -0.1760 -0.7117 -0.9038
   24CHL1   H1B 1748   3.935   3.021   9.820  1.4959 -1.5534 -0.7630
   24CHL1    C2 1749   3.861   2.930  10.003 -0.0913  0.2074  0.0142
   24CHL1   H2A 1750   3.961   2.931  10.051  0.3190 -0.3502 -0.8063
   24CHL1   H2B 1751   3.796   2.844  10.032 -0.4406 -0.4551 -2.6153
   24CHL1   C20 1752   3.878   2.883   9.076 -0.3912 -0.4693  0.2969
   24CHL1   H20 1753   3.809   2.796   9.069 -1.1500  0.2015 -0.7583
   24CHL1   C21 1754   4.022   2.841   9.107 -0.4615  0.7151  0.3645
   24CHL1  H21A 1755   4.087   2.925   9.140 -0.0615  0.3225  0.5779
   24CHL1  H21B 1756   4.067   2.779   9.027  0.3422  1.7290  0.0253
   24CHL1  H21C 1757   4.018   2.755   9.176 -1.3269  0.1504 -0.3711
   24CHL1   C22 1758   3.869   2.957   8.941  0.2242  0.0648  0.4610
   24CHL1  H22A 1759   3.767   3.001   8.928 -0.0778 -1.3172 -2.1146
   24CHL1  H22B 1760   3.941   3.040   8.954  1.4443 -0.7105 -1.1586
   24CHL1   C23 1761   3.899   2.866   8.821  0.3637  0.4890  0.2730
   24CHL1  H23A 1762   3.995   2.814   8.841  0.3198  0.0932 -0.5242
   24CHL1  H23B 1763   3.811   2.797   8.821  0.6298  0.1467 -1.2816
   24CHL1   C24 1764   3.909   2.937   8.682  0.0147  1.2115 -0.4422
   24CHL1  H24A 1765   3.828   3.014   8.688 -0.6137  0.6804 -1.9777
   24CHL1  H24B 1766   3.997   3.004   8.687  0.7604  0.2123 -0.0096
   24CHL1   C25 1767   3.887   2.847   8.563 -0.1610  0.3314  0.8537
   24CHL1   H25 1768   3.788   2.800   8.581  0.7236 -1.3498  1.5138
   24CHL1   C26 1769   3.887   2.931   8.439 -0.4754  0.2058  0.2142
   24CHL1  H26A 1770   3.988   2.972   8.419 -0.1307 -0.7171  0.0367
   24CHL1  H26B 1771   3.862   2.875   8.346 -0.1691 -0.8950  0.7844
   24CHL1  H26C 1772   3.805   3.006   8.444 -0.4641  0.1167  1.9987
   24CHL1   C27 1773   3.993   2.732   8.555  0.7975 -0.5867 -0.6536
   24CHL1  H27A 1774   3.974   2.656   8.634  1.0817 -1.1482 -1.1192
   24CHL1  H27B 1775   3.992   2.693   8.451  1.5372 -1.2254 -0.4242
   24CHL1  H27C 1776   4.093   2.773   8.578  0.7627  0.2322 -1.9272
   25CHL1    C3 1777   5.339   4.194  10.280 -0.3381 -0.3062 -0.1211
   25CHL1    H3 1778   5.298   4.091  10.268  1.5264 -0.8819 -1.7282
   25CHL1    O3 1779   5.354   4.241  10.416  0.3547 -0.0810  0.5000
   25CHL1   H3' 1780   5.337   4.335  10.417  0.3361 -0.0760 -0.2462
   25CHL1    C4 1781   5.486   4.197  10.223 -0.9051  0.0835  0.4199
   25CHL1   H4A 1782   5.527   4.296  10.252 -0.1174 -0.7324  2.1733
   25CHL1   H4B 1783   5.544   4.123  10.282 -2.1636 -1.0823  0.2251
   25CHL1    C5 1784   5.493   4.174  10.071 -0.5534  0.2464 -0.7385
   25CHL1    C6 1785   5.579   4.087  10.014  0.3573  0.0333 -0.7310
   25CHL1    H6 1786   5.658   4.029  10.064  0.7172  0.5971 -0.6388
   25CHL1    C7 1787   5.573   4.062   9.869 -0.1050  0.2720 -0.0904
   25CHL1   H7A 1788   5.674   4.047   9.826 -0.9958 -2.3290 -1.3669
   25CHL1   H7B 1789   5.521   3.967   9.845 -0.2907  0.6024 -1.0268
   25CHL1    C8 1790   5.510   4.164   9.783  0.9388  0.1195  0.0077
   25CHL1    H8 1791   5.581   4.247   9.761  0.8884 -0.2089 -1.4054
   25CHL1   C14 1792   5.487   4.116   9.647 -0.4236  0.0424  0.5244
   25CHL1   H14 1793   5.419   4.028   9.652  1.5679 -1.6247 -0.6611
   25CHL1   C15 1794   5.606   4.055   9.575 -0.7536 -0.0583  0.9654
   25CHL1  H15A 1795   5.689   4.127   9.562 -1.2400  0.7722  2.3167
   25CHL1  H15B 1796   5.645   3.970   9.635  0.0022  0.7140  1.5790
   25CHL1   C16 1797   5.546   4.037   9.432 -0.3820  0.4754  0.1895
   25CHL1  H16A 1798   5.632   4.058   9.365 -0.8486  1.1363 -0.2094
   25CHL1  H16B 1799   5.507   3.934   9.423  3.1493 -0.7472 -2.1799
   25CHL1   C17 1800   5.429   4.140   9.418  0.0908 -0.3198  0.4560
   25CHL1   H17 1801   5.338   4.078   9.431 -0.2420 -0.4967 -2.2688
   25CHL1   C13 1802   5.434   4.224   9.544  0.1125 -0.7377  0.3123
   25CHL1   C18 1803   5.536   4.338   9.519  0.5425 -0.1875  0.0447
   25CHL1  H18A 1804   5.552   4.399   9.610  1.8096  1.9416 -1.5468
   25CHL1  H18B 1805   5.637   4.297   9.496  0.6308 -0.2315  0.5118
   25CHL1  H18C 1806   5.498   4.407   9.441 -0.3090 -0.0058  0.6244
   25CHL1   C12 1807   5.307   4.285   9.602  0.6011  0.2800 -0.5195
   25CHL1  H12A 1808   5.265   4.368   9.541 -3.0043 -0.2024  1.2083
   25CHL1  H12B 1809   5.226   4.209   9.592 -0.8821  1.4208  2.2610
   25CHL1   C11 1810   5.316   4.331   9.747  0.3300 -0.2403  0.0665
   25CHL1  H11A 1811   5.379   4.422   9.754  0.9141 -0.6259 -0.1695
   25CHL1  H11B 1812   5.218   4.353   9.794  0.4485  1.0693 -0.2835
   25CHL1    C9 1813   5.378   4.216   9.838  0.3268  0.0651  0.7057
   25CHL1    H9 1814   5.304   4.135   9.826 -1.2454  1.7337 -1.3986
   25CHL1   C10 1815   5.392   4.264   9.988  0.2214 -0.2980  0.3191
   25CHL1   C19 1816   5.446   4.406   9.995 -0.2639 -0.7141 -0.5070
   25CHL1  H19A 1817   5.525   4.421   9.919  2.4434  0.4753  2.4280
   25CHL1  H19B 1818   5.365   4.478   9.970  0.2675  1.0683  2.6109
   25CHL1  H19C 1819   5.474   4.443  10.096 -0.1056 -1.8235 -0.1412
   25CHL1    C1 1820   5.250   4.260  10.058  0.0341 -0.1053  0.3595
   25CHL1   H1A 1821   5.184   4.335  10.010 -0.5830 -1.1258 -0.4074
   25CHL1   H1B 1822   5.213   4.156  10.045 -0.7694  0.6628 -4.4314
   25CHL1    C2 1823   5.242   4.288  10.206  0.3493  0.5298  0.1970
   25CHL1   H2A 1824   5.141   4.284  10.253  0.4073  2.9920  0.6111
   25CHL1   H2B 1825   5.271   4.396  10.212 -0.3871  0.7434 -0.0766
   25CHL1   C20 1826   5.413   4.194   9.275 -0.5181  0.1398 -0.1994
   25CHL1   H20 1827   5.502   4.254   9.246 -1.8164  2.6708  0.9574
   25CHL1   C21 1828   5.297   4.290   9.255 -0.0478 -0.2327  0.2563
   25CHL1  H21A 1829   5.202   4.269   9.308  0.4715 -0.9713  0.9107
   25CHL1  H21B 1830   5.273   4.312   9.149  0.1910 -2.4187 -0.2854
   25CHL1  H21C 1831   5.317   4.386   9.307  0.1469  0.9736 -1.9699
   25CHL1   C22 1832   5.394   4.079   9.172  0.4680  0.2184 -0.6783
   25CHL1  H22A 1833   5.475   4.004   9.184  1.7373  1.6673 -0.0627
   25CHL1  H22B 1834   5.296   4.033   9.195  0.4001  0.3514 -0.7036
   25CHL1   C23 1835   5.385   4.128   9.023  0.1937  0.2786 -0.2753
   25CHL1  H23A 1836   5.281   4.167   9.026  0.6866  1.5174  1.3465
   25CHL1  H23B 1837   5.452   4.212   8.995 -0.7329  0.9935 -0.3671
   25CHL1   C24 1838   5.399   4.014   8.914  0.2727 -0.4661  1.2905
   25CHL1  H24A 1839   5.504   3.976   8.920  0.0805 -1.3054 -0.4943
   25CHL1  H24B 1840   5.340   3.926   8.945  1.7242 -2.0950 -0.4365
   25CHL1   C25 1841   5.370   4.057   8.767 -0.0411 -0.8073 -0.2631
   25CHL1   H25 1842   5.267   4.098   8.766  0.1543 -0.2299 -3.3554
   25CHL1   C26 1843   5.469   4.161   8.705 -0.9444  0.1249 -0.6986
   25CHL1  H26A 1844   5.492   4.244   8.774  0.5187 -1.4833  0.8164
   25CHL1  H26B 1845   5.570   4.115   8.699 -0.7823  0.5533 -1.2521
   25CHL1  H26C 1846   5.439   4.195   8.604 -0.4850  0.6716 -0.6521
   25CHL1   C27 1847   5.369   3.932   8.678 -0.2176 -0.0472 -0.7003
   25CHL1  H27A 1848   5.290   3.859   8.702 -1.1853  0.1539 -3.1471
   25CHL1  H27B 1849   5.362   3.969   8.574 -0.8714 -0.0610 -0.6583
   25CHL1  H27C 1850   5.469   3.884   8.682  1.6641  3.7321  0.5106
   26CHL1    C3 1851   6.338   0.017  10.185 -0.0402  0.1832  0.0356
   26CHL1    H3 1852   6.240   0.069  10.176 -0.5114 -0.8268 -0.7508
   26CHL1    O3 1853   6.369  -0.017  10.320  0.2858  0.0034  0.1589
   26CHL1   H3' 1854   6.463  -0.039  10.316 -0.4577 -3.4327  0.2142
   26CHL1    C4 1855   6.337  -0.120  10.109  0.3834  0.3517 -0.2829
   26CHL1   H4A 1856   6.426  -0.176  10.146  1.2778  0.7354 -1.7887
   26CHL1   H4B 1857   6.244  -0.171  10.141  0.7418 -0.3645 -0.3812
   26CHL1    C5 1858   6.328  -0.103   9.957 -0.3904 -0.6485 -0.3309
   26CHL1    C6 1859   6.232  -0.158   9.882  0.0498 -0.0637 -0.2973
   26CHL1    H6 1860   6.154  -0.220   9.928 -0.4273  1.7593  1.4413
   26CHL1    C7 1861   6.211  -0.135   9.741  0.0860 -0.3596  0.0604
   26CHL1   H7A 1862   6.157  -0.220   9.694  3.8538 -1.7543 -1.9416
   26CHL1   H7B 1863   6.140  -0.053   9.719 -1.3373 -1.5431  0.1230
   26CHL1    C8 1864   6.344  -0.103   9.675 -0.1316  0.5749 -0.1285
   26CHL1    H8 1865   6.412  -0.190   9.681  0.4697  1.2136  2.8585
   26CHL1   C14 1866   6.325  -0.060   9.533 -0.0030  0.6023 -0.3332
   26CHL1   H14 1867   6.250   0.021   9.547  0.0888  0.1586  3.2142
   26CHL1   C15 1868   6.254  -0.159   9.448  0.0703  0.9310  0.3352
   26CHL1  H15A 1869   6.307  -0.256   9.449 -0.1794  0.7902 -0.1256
   26CHL1  H15B 1870   6.144  -0.164   9.465  0.3019 -0.4898  1.4972
   26CHL1   C16 1871   6.273  -0.097   9.302  0.4825  0.6753 -0.3777
   26CHL1  H16A 1872   6.341  -0.166   9.249  0.5184  0.1858  0.3017
   26CHL1  H16B 1873   6.176  -0.085   9.248 -0.6483 -0.1393  1.4152
   26CHL1   C17 1874   6.355   0.033   9.323  0.3805  0.0419  0.1028
   26CHL1   H17 1875   6.275   0.108   9.340  1.2089  0.8831  0.3517
   26CHL1   C13 1876   6.439   0.007   9.451 -0.6128  0.2046  0.5519
   26CHL1   C18 1877   6.556  -0.094   9.421  0.2606 -0.6033  0.3499
   26CHL1  H18A 1878   6.527  -0.196   9.387 -1.6133  0.0569 -0.1182
   26CHL1  H18B 1879   6.622  -0.043   9.348 -1.1985  0.9474  0.0662
   26CHL1  H18C 1880   6.612  -0.098   9.517 -0.0399  2.5984  0.7130
   26CHL1   C12 1881   6.480   0.130   9.528  0.1676  0.1616 -0.1133
   26CHL1  H12A 1882   6.559   0.193   9.482  1.0473  0.8581  2.2379
   26CHL1  H12B 1883   6.391   0.196   9.538  0.1783  0.3094 -0.9803
   26CHL1   C11 1884   6.522   0.090   9.673 -0.0474 -0.0681 -0.2886
   26CHL1  H11A 1885   6.612   0.025   9.665 -2.0397 -2.7258 -1.9571
   26CHL1  H11B 1886   6.539   0.185   9.728 -1.7630 -1.1289  2.1361
   26CHL1    C9 1887   6.407   0.016   9.749  0.0536 -0.4393 -0.3792
   26CHL1    H9 1888   6.322   0.087   9.743  1.6628  1.4587 -0.9607
   26CHL1   C10 1889   6.436  -0.013   9.903 -0.5019 -0.4983 -0.6109
   26CHL1   C19 1890   6.578  -0.082   9.911 -0.6871 -0.7798 -0.0697
   26CHL1  H19A 1891   6.601  -0.118  10.014 -0.6631  0.7020  0.4481
   26CHL1  H19B 1892   6.590  -0.164   9.836  1.0554  0.3963 -1.0959
   26CHL1  H19C 1893   6.661  -0.013   9.885 -0.3161 -1.1858  0.0285
   26CHL1    C1 1894   6.433   0.125   9.983  0.1947 -0.4943  0.1350
   26CHL1   H1A 1895   6.508   0.199   9.948 -1.7226  1.9949  1.2097
   26CHL1   H1B 1896   6.341   0.184   9.964  0.6160 -0.2898 -1.3002
   26CHL1    C2 1897   6.453   0.110  10.135  0.7456  0.2999  0.1934
   26CHL1   H2A 1898   6.449   0.204  10.196 -1.5891  0.0668  0.4301
   26CHL1   H2B 1899   6.556   0.070  10.148  0.1373 -1.0871  0.7890
   26CHL1   C20 1900   6.433   0.085   9.193 -0.1820 -0.4142  0.2823
   26CHL1   H20 1901   6.520   0.019   9.174 -0.9180 -1.9209  2.0566
   26CHL1   C21 1902   6.485   0.235   9.211 -0.4485 -0.8570  0.0594
   26CHL1  H21A 1903   6.529   0.269   9.114  1.4272 -1.7222  0.5779
   26CHL1  H21B 1904   6.565   0.244   9.287 -1.1371 -0.6956  0.7658
   26CHL1  H21C 1905   6.403   0.304   9.242  0.3072 -0.8736  2.1232
   26CHL1   C22 1906   6.341   0.079   9.072  0.1134  0.2812 -0.9175
   26CHL1  H22A 1907   6.273  -0.008   9.076  0.3431  0.1467  0.3446
   26CHL1  H22B 1908   6.266   0.160   9.090  0.4226  0.6361 -1.2130
   26CHL1   C23 1909   6.406   0.097   8.933 -0.0354 -0.1356  0.0078
   26CHL1  H23A 1910   6.458   0.193   8.913  0.5333 -0.2363  0.9568
   26CHL1  H23B 1911   6.477   0.012   8.922  1.2090  0.7924  0.6401
   26CHL1   C24 1912   6.301   0.093   8.817 -0.5138 -0.7275  0.5794
   26CHL1  H24A 1913   6.255  -0.008   8.815 -0.9403 -0.5129 -1.7141
   26CHL1  H24B 1914   6.226   0.172   8.838  1.2892  0.9667  0.7915
   26CHL1   C25 1915   6.357   0.123   8.670  0.2857 -0.2618  0.0304
   26CHL1   H25 1916   6.447   0.062   8.646  0.2187  0.0027 -0.8740
   26CHL1   C26 1917   6.256   0.087   8.565 -0.2842  0.1564 -0.3409
   26CHL1  H26A 1918   6.289   0.121   8.465 -1.0418  1.3105 -0.2154
   26CHL1  H26B 1919   6.230  -0.020   8.557 -0.2142  0.1354 -0.2866
   26CHL1  H26C 1920   6.161   0.141   8.584  0.3382  0.9409  0.6136
   26CHL1   C27 1921   6.400   0.267   8.643  0.0153 -0.7776 -1.3241
   26CHL1  H27A 1922   6.320   0.339   8.671 -0.2933 -0.4692 -2.9153
   26CHL1  H27B 1923   6.489   0.293   8.704 -1.8820 -0.7442  1.5249
   26CHL1  H27C 1924   6.430   0.287   8.538  0.1452  0.1091 -1.1278
   27CHL1    C3 1925   5.719   4.605  10.269  0.3795  0.5202  0.4551
   27CHL1    H3 1926   5.625   4.549  10.248  1.7933 -2.1696  1.1433
   27CHL1    O3 1927   5.710   4.630  10.406  0.5550 -0.2154  0.0635
   27CHL1   H3' 1928   5.793   4.671  10.432  0.2697  0.2299  0.2804
   27CHL1    C4 1929   5.827   4.505  10.248 -0.4264  0.5310  0.1741
   27CHL1   H4A 1930   5.923   4.542  10.291  0.6610 -2.2199  0.2059
   27CHL1   H4B 1931   5.804   4.407  10.296 -0.1169 -0.1880 -1.1081
   27CHL1    C5 1932   5.855   4.470  10.101 -0.3405 -0.0530  0.4566
   27CHL1    C6 1933   5.857   4.350  10.053 -0.4799  0.4274  0.1396
   27CHL1    H6 1934   5.840   4.257  10.110 -0.9041  0.5749  0.2586
   27CHL1    C7 1935   5.874   4.312   9.907 -0.1468 -0.0065  0.3650
   27CHL1   H7A 1936   5.926   4.214   9.902  1.0646  0.6811 -1.1840
   27CHL1   H7B 1937   5.770   4.307   9.867 -0.7728  1.3829  1.7498
   27CHL1    C8 1938   5.949   4.422   9.830  0.1219  0.7460 -0.6551
   27CHL1    H8 1939   6.054   4.423   9.867  1.0060 -1.7786 -2.8980
   27CHL1   C14 1940   5.937   4.392   9.683 -0.0459  0.4163  0.1094
   27CHL1   H14 1941   5.828   4.388   9.662 -0.0614  2.8976 -0.5400
   27CHL1   C15 1942   5.980   4.254   9.632  0.2574  0.1584 -0.2512
   27CHL1  H15A 1943   6.079   4.231   9.677  0.0415  0.8503  0.5953
   27CHL1  H15B 1944   5.898   4.184   9.659 -0.4081  1.2833  0.6885
   27CHL1   C16 1945   5.988   4.273   9.480  0.1871 -0.1256 -0.0340
   27CHL1  H16A 1946   6.095   4.257   9.457  0.0507 -2.2162  0.6554
   27CHL1  H16B 1947   5.932   4.191   9.430 -1.6958  0.7154  0.6548
   27CHL1   C17 1948   5.947   4.420   9.445 -0.8739  0.4909 -0.2491
   27CHL1   H17 1949   5.837   4.416   9.437 -0.8332 -0.2770 -0.4697
   27CHL1   C13 1950   5.985   4.500   9.582  0.1035  0.3242  0.8019
   27CHL1   C18 1951   6.140   4.515   9.596 -0.2030  0.8696 -0.0660
   27CHL1  H18A 1952   6.168   4.606   9.539 -3.4798  0.7623 -1.9843
   27CHL1  H18B 1953   6.158   4.534   9.704 -2.3907  1.6871  0.1908
   27CHL1  H18C 1954   6.191   4.424   9.558  0.2171  1.4204 -0.8418
   27CHL1   C12 1955   5.923   4.634   9.618  0.3598 -0.1879 -0.4973
   27CHL1  H12A 1956   5.970   4.716   9.560  1.2091  0.0766  0.5635
   27CHL1  H12B 1957   5.815   4.626   9.594  0.5931  0.6474 -1.8952
   27CHL1   C11 1958   5.940   4.667   9.759  0.3858 -0.1237  0.2892
   27CHL1  H11A 1959   6.048   4.683   9.781  0.0967  0.4222  1.3354
   27CHL1  H11B 1960   5.893   4.765   9.785 -0.5898  0.0285 -1.8978
   27CHL1    C9 1961   5.881   4.561   9.859 -0.6326  0.2918 -0.0987
   27CHL1    H9 1962   5.774   4.549   9.830 -0.8593 -1.4796  1.3841
   27CHL1   C10 1963   5.886   4.599  10.013 -0.4232  0.1428  0.1011
   27CHL1   C19 1964   6.029   4.627  10.059  0.1141  0.2086 -0.4177
   27CHL1  H19A 1965   6.098   4.541  10.047  1.9380  1.5545  0.1503
   27CHL1  H19B 1966   6.064   4.712   9.996  0.3802  0.8759  0.6125
   27CHL1  H19C 1967   6.040   4.664  10.163 -2.0836 -0.9922  0.2836
   27CHL1    C1 1968   5.781   4.710  10.045  0.4101  0.3071 -0.5852
   27CHL1   H1A 1969   5.821   4.808  10.011  0.3960  0.3748 -0.4019
   27CHL1   H1B 1970   5.687   4.683   9.991  0.8793  0.9182 -1.7304
   27CHL1    C2 1971   5.743   4.731  10.191  0.0449  0.4624  0.4076
   27CHL1   H2A 1972   5.648   4.787  10.206 -0.3661 -0.5158  1.5241
   27CHL1   H2B 1973   5.830   4.780  10.241  1.7370  1.5590 -3.4458
   27CHL1   C20 1974   6.003   4.463   9.309  0.2404  0.5737  0.3307
   27CHL1   H20 1975   6.114   4.456   9.311  0.2463 -0.1492 -1.7350
   27CHL1   C21 1976   5.953   4.612   9.278 -0.2599 -0.2239  0.3733
   27CHL1  H21A 1977   5.982   4.644   9.176 -1.6860  3.2863  0.9731
   27CHL1  H21B 1978   6.007   4.682   9.347  1.8823 -3.2668  1.8990
   27CHL1  H21C 1979   5.842   4.614   9.283 -0.2666 -1.6280  0.8353
   27CHL1   C22 1980   5.959   4.373   9.191 -0.3861  0.7386  1.1821
   27CHL1  H22A 1981   5.983   4.417   9.092  2.0524 -0.7273  1.0913
   27CHL1  H22B 1982   6.025   4.284   9.191 -0.3410  0.7658  0.1976
   27CHL1   C23 1983   5.816   4.323   9.200  0.0114 -0.4322  0.2931
   27CHL1  H23A 1984   5.790   4.266   9.292  1.3367 -2.0626 -0.3082
   27CHL1  H23B 1985   5.747   4.409   9.188 -0.6251 -1.1222 -1.0883
   27CHL1   C24 1986   5.774   4.226   9.081 -0.1069 -0.2235  0.2465
   27CHL1  H24A 1987   5.665   4.209   9.093  0.3160 -1.6372  2.4514
   27CHL1  H24B 1988   5.790   4.270   8.981  1.2298 -2.8153 -0.7525
   27CHL1   C25 1989   5.849   4.092   9.071  1.2770 -1.1488 -0.6567
   27CHL1   H25 1990   5.956   4.116   9.055  1.2425 -0.9746 -0.6257
   27CHL1   C26 1991   5.819   3.996   9.185 -0.0155 -0.7909 -0.4290
   27CHL1  H26A 1992   5.826   4.047   9.284 -0.6100 -0.9396 -0.3076
   27CHL1  H26B 1993   5.718   3.951   9.171 -0.3755 -1.1410  2.8107
   27CHL1  H26C 1994   5.898   3.918   9.190  0.6679  0.0036  2.0978
   27CHL1   C27 1995   5.811   4.037   8.932 -0.0763  0.1953 -0.5465
   27CHL1  H27A 1996   5.841   3.931   8.915 -1.8036 -0.3500 -0.3370
   27CHL1  H27B 1997   5.701   4.040   8.921 -0.0411  1.1907 -0.6244
   27CHL1  H27C 1998   5.850   4.098   8.847 -0.4647  0.7622 -0.3172
   28CHL1    C3 1999   4.925   2.817  10.091 -0.8259  0.6288  0.1125
   28CHL1    H3 2000   4.969   2.724  10.133  0.5481  1.1314 -0.2032
   28CHL1    O3 2001   4.871   2.890  10.198 -0.2444 -0.3575  0.6559
   28CHL1   H3' 2002   4.949   2.910  10.251  0.5478  1.1919 -1.0347
   28CHL1    C4 2003   5.027   2.901  10.010 -0.0061 -0.2314  0.0297
   28CHL1   H4A 2004   4.976   2.999  10.002  1.6219  0.7125  0.9477
   28CHL1   H4B 2005   5.119   2.917  10.071  1.8193 -2.8129 -1.9278
   28CHL1    C5 2006   5.065   2.839   9.870 -0.2104 -0.8141 -0.0821
   28CHL1    C6 2007   5.190   2.800   9.845 -0.7120 -0.3888 -0.2526
   28CHL1    H6 2008   5.268   2.824   9.919  0.0243 -0.7990 -0.9046
   28CHL1    C7 2009   5.237   2.740   9.712 -0.0253  0.6366  0.1270
   28CHL1   H7A 2010   5.328   2.789   9.671  3.1844 -3.2044  2.2525
   28CHL1   H7B 2011   5.273   2.638   9.737  3.2648  1.7646  0.2426
   28CHL1    C8 2012   5.130   2.745   9.601  0.0271  0.2012 -0.2286
   28CHL1    H8 2013   5.124   2.850   9.566 -0.1200  0.1247 -0.4358
   28CHL1   C14 2014   5.164   2.644   9.498 -0.5483  0.3307 -0.2191
   28CHL1   H14 2015   5.161   2.548   9.554 -0.7978  2.1347  2.9671
   28CHL1   C15 2016   5.312   2.652   9.442 -0.1364 -0.0946  0.1576
   28CHL1  H15A 2017   5.344   2.755   9.414  3.1171 -0.8087  1.0577
   28CHL1  H15B 2018   5.378   2.600   9.514 -2.1507 -0.3036  1.8746
   28CHL1   C16 2019   5.305   2.569   9.316 -0.4372 -0.5501  0.3211
   28CHL1  H16A 2020   5.339   2.622   9.225 -1.2569 -1.0569 -0.2908
   28CHL1  H16B 2021   5.371   2.480   9.316 -1.4991 -1.3859 -2.9328
   28CHL1   C17 2022   5.159   2.528   9.291  0.7120  0.8162  0.1536
   28CHL1   H17 2023   5.147   2.426   9.334  0.4788  1.0074  0.5492
   28CHL1   C13 2024   5.079   2.630   9.379  0.2523  0.7238 -0.1061
   28CHL1   C18 2025   5.072   2.773   9.307 -0.1083  0.6240 -0.5386
   28CHL1  H18A 2026   4.986   2.780   9.237 -0.3171 -1.3947 -0.5171
   28CHL1  H18B 2027   5.069   2.860   9.377  0.2801 -0.0709  0.3466
   28CHL1  H18C 2028   5.161   2.788   9.242  0.8153  0.1446  0.5836
   28CHL1   C12 2029   4.942   2.582   9.432 -0.6892  0.0606 -0.1693
   28CHL1  H12A 2030   4.872   2.570   9.346  0.8194  1.1449 -1.5875
   28CHL1  H12B 2031   4.963   2.482   9.475 -3.2810 -0.2831  0.3476
   28CHL1   C11 2032   4.883   2.673   9.542 -0.0202 -0.2192  0.3183
   28CHL1  H11A 2033   4.848   2.763   9.487 -1.1571  0.1461  1.6009
   28CHL1  H11B 2034   4.789   2.636   9.589  0.2340 -0.1579  0.8659
   28CHL1    C9 2035   4.990   2.706   9.661  1.1959  0.6879  0.9998
   28CHL1    H9 2036   5.020   2.608   9.705  0.7570  0.5826  1.0652
   28CHL1   C10 2037   4.952   2.792   9.779 -0.0125 -0.1521  0.2521
   28CHL1   C19 2038   4.879   2.918   9.728  0.6348 -0.3459  0.4388
   28CHL1  H19A 2039   4.843   2.987   9.806 -0.3868  0.0113 -0.3447
   28CHL1  H19B 2040   4.940   2.980   9.658  2.0907 -1.4651  0.6863
   28CHL1  H19C 2041   4.786   2.879   9.682  0.7170  0.5184 -0.4865
   28CHL1    C1 2042   4.851   2.706   9.871  0.2279  0.6159 -0.0240
   28CHL1   H1A 2043   4.760   2.692   9.808  0.2543  1.0757 -0.1666
   28CHL1   H1B 2044   4.899   2.608   9.891 -2.5420 -0.5250  1.2495
   28CHL1    C2 2045   4.813   2.781  10.003  0.8224  0.4457 -0.0061
   28CHL1   H2A 2046   4.741   2.714  10.055  1.0745  1.0235  1.0810
   28CHL1   H2B 2047   4.749   2.867   9.976  1.9493  1.2165 -0.2457
   28CHL1   C20 2048   5.131   2.518   9.139 -0.0555 -0.6365 -0.2472
   28CHL1   H20 2049   5.160   2.614   9.092 -0.3111 -0.2107  0.4539
   28CHL1   C21 2050   4.981   2.506   9.102 -1.2633 -0.6828 -0.6625
   28CHL1  H21A 2051   4.927   2.596   9.138 -1.2768 -0.9028 -0.1283
   28CHL1  H21B 2052   4.941   2.416   9.154 -0.4720 -0.1671  0.8755
   28CHL1  H21C 2053   4.969   2.505   8.992  0.8177  1.7537 -0.9667
   28CHL1   C22 2054   5.219   2.405   9.078 -0.1804  0.1165  0.6455
   28CHL1  H22A 2055   5.323   2.411   9.116  0.3408 -0.9033 -0.5879
   28CHL1  H22B 2056   5.185   2.306   9.116 -0.6645  0.8000  2.0309
   28CHL1   C23 2057   5.223   2.417   8.922  0.4466  1.2678  0.2268
   28CHL1  H23A 2058   5.276   2.330   8.878 -0.4176  1.2143 -0.7259
   28CHL1  H23B 2059   5.121   2.424   8.879  0.2916 -3.1262 -0.3286
   28CHL1   C24 2060   5.298   2.543   8.880  0.3315 -0.1558 -0.7463
   28CHL1  H24A 2061   5.229   2.630   8.878 -1.0582 -1.1198  2.6774
   28CHL1  H24B 2062   5.375   2.569   8.956 -1.7551  2.6606  0.4796
   28CHL1   C25 2063   5.360   2.529   8.735  0.4506  0.0945 -0.2476
   28CHL1   H25 2064   5.445   2.458   8.737 -0.4328 -0.9379  2.0319
   28CHL1   C26 2065   5.250   2.500   8.629  0.1951 -0.0774  0.5563
   28CHL1  H26A 2066   5.209   2.397   8.628 -1.3330  0.5300 -1.0623
   28CHL1  H26B 2067   5.152   2.548   8.651 -1.0310 -1.4324 -1.8480
   28CHL1  H26C 2068   5.282   2.526   8.526 -1.0425 -1.1985 -0.1264
   28CHL1   C27 2069   5.433   2.660   8.701 -0.0070 -0.1188 -0.2145
   28CHL1  H27A 2070   5.523   2.685   8.761  0.6388 -1.9979 -0.3831
   28CHL1  H27B 2071   5.472   2.658   8.597  4.2595 -0.5535  1.3083
   28CHL1  H27C 2072   5.366   2.749   8.714  0.5529 -0.2470  4.1151
   29CHL1    C3 2073   6.596   6.678   6.541 -0.0269  0.3387  0.2090
   29CHL1    H3 2074   6.639   6.776   6.571  1.4805 -1.0281  2.6144
   29CHL1    O3 2075   6.635   6.643   6.410 -0.0447 -0.0289 -0.9266
   29CHL1   H3' 2076   6.595   6.556   6.402 -0.2529 -0.0658  0.3335
   29CHL1    C4 2077   6.631   6.570   6.641 -0.1156  0.1202  0.2754
   29CHL1   H4A 2078   6.590   6.471   6.611  0.3551 -0.1004  0.3549
   29CHL1   H4B 2079   6.740   6.548   6.641  0.0877  1.0789  0.7523
   29CHL1    C5 2080   6.590   6.606   6.781  0.6786  0.4935 -0.0584
   29CHL1    C6 2081   6.668   6.603   6.887  0.1319  0.0364  0.0664
   29CHL1    H6 2082   6.772   6.577   6.865  0.5329  2.9273 -1.6377
   29CHL1    C7 2083   6.631   6.617   7.029 -0.6804 -0.0917  0.7723
   29CHL1   H7A 2084   6.662   6.520   7.074 -2.4941 -1.3226 -0.5970
   29CHL1   H7B 2085   6.689   6.698   7.079  1.9962 -1.2171 -0.3656
   29CHL1    C8 2086   6.477   6.631   7.055 -0.1094 -0.3443  0.3843
   29CHL1    H8 2087   6.419   6.537   7.044  0.0862 -0.4036 -0.1413
   29CHL1   C14 2088   6.440   6.705   7.185 -0.3539 -0.5785  1.1467
   29CHL1   H14 2089   6.476   6.810   7.174 -0.4110 -0.6352  0.3913
   29CHL1   C15 2090   6.494   6.643   7.318  0.6908 -0.0823 -0.6437
   29CHL1  H15A 2091   6.485   6.532   7.328  0.2625  0.0532  0.6383
   29CHL1  H15B 2092   6.602   6.669   7.326  0.6221 -0.3503  1.5927
   29CHL1   C16 2093   6.409   6.717   7.422  0.5676 -0.4614 -0.3967
   29CHL1  H16A 2094   6.352   6.648   7.488 -0.2170 -1.3033 -1.9174
   29CHL1  H16B 2095   6.471   6.784   7.484  0.6218  0.4366 -1.4170
   29CHL1   C17 2096   6.298   6.799   7.349 -0.4962  0.7481  0.0032
   29CHL1   H17 2097   6.343   6.900   7.338 -2.1009  1.3737 -0.9937
   29CHL1   C13 2098   6.292   6.732   7.212  1.0715  0.0148 -0.0363
   29CHL1   C18 2099   6.199   6.602   7.221 -0.5381 -0.3290 -0.1462
   29CHL1  H18A 2100   6.196   6.557   7.323  3.4961 -1.4604 -0.4526
   29CHL1  H18B 2101   6.099   6.636   7.185  0.0230  0.5981 -0.8237
   29CHL1  H18C 2102   6.241   6.523   7.156 -0.4687  0.1535 -0.6840
   29CHL1   C12 2103   6.248   6.825   7.097 -0.4336 -0.8833 -0.4026
   29CHL1  H12A 2104   6.137   6.831   7.102 -0.2538  2.7746  0.2003
   29CHL1  H12B 2105   6.298   6.924   7.097  0.3697 -1.2871  0.1844
   29CHL1   C11 2106   6.269   6.753   6.961 -0.5804  0.7672  0.6791
   29CHL1  H11A 2107   6.196   6.669   6.961  0.0642  0.1556 -2.6568
   29CHL1  H11B 2108   6.231   6.820   6.882 -2.5725 -1.3952 -0.2465
   29CHL1    C9 2109   6.416   6.709   6.934 -0.6131  0.3293 -0.6498
   29CHL1    H9 2110   6.474   6.804   6.932  0.8106 -0.4392  1.7601
   29CHL1   C10 2111   6.442   6.645   6.796 -0.1970  0.4128  0.1679
   29CHL1   C19 2112   6.348   6.519   6.780 -0.7220 -0.4270  1.0464
   29CHL1  H19A 2113   6.242   6.541   6.806 -1.2262  0.4145 -1.6492
   29CHL1  H19B 2114   6.355   6.470   6.681  1.4096 -2.7008  2.2380
   29CHL1  H19C 2115   6.377   6.439   6.852  1.9039 -0.8389 -0.3989
   29CHL1    C1 2116   6.404   6.745   6.686 -0.1184 -0.4208 -0.1889
   29CHL1   H1A 2117   6.295   6.768   6.689 -0.2518 -1.1110  0.2616
   29CHL1   H1B 2118   6.454   6.843   6.705 -0.7300 -0.4023  1.4352
   29CHL1    C2 2119   6.446   6.704   6.544 -0.2369 -0.1007 -0.3596
   29CHL1   H2A 2120   6.410   6.794   6.489  1.0639 -1.2911 -3.2923
   29CHL1   H2B 2121   6.384   6.620   6.507  2.2062 -1.4690 -1.4544
   29CHL1   C20 2122   6.165   6.818   7.436 -0.1907 -0.4739 -0.4289
   29CHL1   H20 2123   6.121   6.716   7.438  0.8840 -1.0087 -2.4840
   29CHL1   C21 2124   6.057   6.909   7.371 -0.3390 -0.0882 -0.0827
   29CHL1  H21A 2125   5.966   6.921   7.434  0.3054 -0.5858  0.9408
   29CHL1  H21B 2126   6.013   6.863   7.280 -1.6867  0.3703  0.3216
   29CHL1  H21C 2127   6.094   7.011   7.350 -1.1945  0.0681 -0.8980
   29CHL1   C22 2128   6.191   6.856   7.588 -0.0368  0.1439 -0.0469
   29CHL1  H22A 2129   6.094   6.839   7.640 -0.4225  1.1110 -0.4356
   29CHL1  H22B 2130   6.264   6.787   7.635 -0.5517 -0.9659 -0.8517
   29CHL1   C23 2131   6.240   6.998   7.598 -0.1038  0.0765 -0.1032
   29CHL1  H23A 2132   6.326   7.002   7.529  0.1540  0.5309  0.2395
   29CHL1  H23B 2133   6.179   7.086   7.569  0.3626  1.2509  2.3189
   29CHL1   C24 2134   6.282   7.036   7.739  0.3609 -0.0712 -0.3640
   29CHL1  H24A 2135   6.198   7.033   7.811  2.4747 -0.6513  2.1861
   29CHL1  H24B 2136   6.352   6.957   7.775  1.0156  1.2232  1.2343
   29CHL1   C25 2137   6.353   7.165   7.755  0.0598  0.9217  0.0269
   29CHL1   H25 2138   6.281   7.239   7.714 -0.6148  0.6637  0.7264
   29CHL1   C26 2139   6.377   7.197   7.909 -0.1052 -0.2086 -0.0945
   29CHL1  H26A 2140   6.432   7.112   7.954 -0.6176 -0.2905  0.3695
   29CHL1  H26B 2141   6.425   7.297   7.908 -0.6865  0.0998  2.0539
   29CHL1  H26C 2142   6.282   7.208   7.966 -1.1960  1.2243 -2.0935
   29CHL1   C27 2143   6.486   7.180   7.691  0.4701 -0.1613 -0.0752
   29CHL1  H27A 2144   6.527   7.283   7.690  1.0935 -0.4117 -0.6864
   29CHL1  H27B 2145   6.558   7.111   7.739  0.8248  0.9021  0.9445
   29CHL1  H27C 2146   6.471   7.154   7.584 -0.3066 -0.2822  0.0548
   30CHL1    C3 2147   4.371   5.887   7.305 -0.4328  0.2788  0.3941
   30CHL1    H3 2148   4.312   5.978   7.328 -2.5905 -0.9645 -0.0900
   30CHL1    O3 2149   4.348   5.847   7.173  0.7539 -0.4042 -0.4390
   30CHL1   H3' 2150   4.390   5.910   7.114  1.6133 -1.2456 -0.7361
   30CHL1    C4 2151   4.523   5.915   7.316 -0.0992 -0.3564  0.2774
   30CHL1   H4A 2152   4.563   5.816   7.284 -1.0093 -0.3189 -1.0111
   30CHL1   H4B 2153   4.550   5.991   7.240  1.7119 -0.9481  0.2951
   30CHL1    C5 2154   4.558   5.957   7.456 -0.8358  0.7497  0.8413
   30CHL1    C6 2155   4.602   6.084   7.481  0.0200 -0.5134  0.6888
   30CHL1    H6 2156   4.619   6.155   7.399  1.5075 -1.9553 -0.2766
   30CHL1    C7 2157   4.636   6.123   7.621  0.6048 -0.1050 -0.3813
   30CHL1   H7A 2158   4.738   6.167   7.621  0.1313  1.0455 -1.6297
   30CHL1   H7B 2159   4.570   6.208   7.652  2.7097  1.0597  1.0320
   30CHL1    C8 2160   4.627   6.016   7.740  0.7927  0.2120 -0.5191
   30CHL1    H8 2161   4.715   5.951   7.723 -0.4153 -1.3244 -0.9916
   30CHL1   C14 2162   4.623   6.077   7.879 -1.1549 -0.3719  0.7025
   30CHL1   H14 2163   4.524   6.127   7.866 -1.3439 -0.4203  1.9745
   30CHL1   C15 2164   4.734   6.171   7.921 -0.3928 -0.4069  0.2364
   30CHL1  H15A 2165   4.832   6.136   7.881  0.2756  0.9099  0.6615
   30CHL1  H15B 2166   4.717   6.274   7.883 -0.2099 -0.9190 -1.2598
   30CHL1   C16 2167   4.726   6.165   8.072 -0.1109  0.4756 -0.3921
   30CHL1  H16A 2168   4.825   6.117   8.093  0.7098  1.2238 -2.3728
   30CHL1  H16B 2169   4.704   6.264   8.116 -0.8271  0.7901 -1.4420
   30CHL1   C17 2170   4.611   6.069   8.108 -0.0425 -0.2507 -0.6465
   30CHL1   H17 2171   4.520   6.133   8.113  0.1683  0.0647 -0.8342
   30CHL1   C13 2172   4.601   5.973   7.989  0.2116 -0.9589  0.4603
   30CHL1   C18 2173   4.720   5.864   7.988  0.8959 -0.0685 -0.2077
   30CHL1  H18A 2174   4.816   5.906   8.024  0.9782  0.9733 -1.5976
   30CHL1  H18B 2175   4.693   5.782   8.057  1.0815  1.2690  1.4678
   30CHL1  H18C 2176   4.733   5.824   7.885  1.5655 -0.5435  0.0598
   30CHL1   C12 2177   4.462   5.903   7.961  0.2124  0.4892 -0.2039
   30CHL1  H12A 2178   4.441   5.822   8.034  0.5311  2.2797  1.9563
   30CHL1  H12B 2179   4.384   5.982   7.964  0.4081  0.7283 -1.1209
   30CHL1   C11 2180   4.470   5.840   7.824  0.6507  0.3058  0.5711
   30CHL1  H11A 2181   4.554   5.767   7.833  2.4896  2.3540  0.5677
   30CHL1  H11B 2182   4.380   5.777   7.810  1.8265 -1.5412  1.1318
   30CHL1    C9 2183   4.504   5.934   7.703  0.4794 -0.0749 -0.0274
   30CHL1    H9 2184   4.419   6.006   7.703  1.7426  1.4511  0.8163
   30CHL1   C10 2185   4.516   5.862   7.568 -0.5115  0.0083 -0.1729
   30CHL1   C19 2186   4.616   5.751   7.564  0.1033  0.2731  0.1651
   30CHL1  H19A 2187   4.609   5.677   7.647 -3.3283 -0.1733 -0.4630
   30CHL1  H19B 2188   4.619   5.705   7.463  0.1370  1.6733 -0.4816
   30CHL1  H19C 2189   4.722   5.784   7.576 -0.6635  2.2395  1.9034
   30CHL1    C1 2190   4.373   5.809   7.540  0.6589 -0.8253  0.6431
   30CHL1   H1A 2191   4.345   5.729   7.612  1.0763 -1.6292 -0.0788
   30CHL1   H1B 2192   4.306   5.894   7.566  3.1444  1.9223 -1.4298
   30CHL1    C2 2193   4.344   5.771   7.398  0.2355  0.2223 -0.7798
   30CHL1   H2A 2194   4.238   5.746   7.379  0.1923 -1.3471  1.3698
   30CHL1   H2B 2195   4.403   5.680   7.370  0.8278 -0.0302  1.2440
   30CHL1   C20 2196   4.617   6.011   8.252  0.5395  0.3265  0.6986
   30CHL1   H20 2197   4.693   5.930   8.251 -0.1686 -0.3422 -0.4425
   30CHL1   C21 2198   4.480   5.963   8.290  0.0108 -0.4995  0.6372
   30CHL1  H21A 2199   4.467   5.941   8.398  0.5995  2.5437  1.3748
   30CHL1  H21B 2200   4.447   5.873   8.235 -2.3869 -0.5518  2.1177
   30CHL1  H21C 2201   4.411   6.048   8.273  0.5504 -0.3527 -0.9377
   30CHL1   C22 2202   4.659   6.122   8.357 -0.1898 -0.2195 -0.4972
   30CHL1  H22A 2203   4.758   6.169   8.338 -0.1534 -0.4384 -0.8448
   30CHL1  H22B 2204   4.590   6.210   8.351 -1.0765 -0.9578 -1.2620
   30CHL1   C23 2205   4.662   6.076   8.504 -0.6264  0.2345 -0.3017
   30CHL1  H23A 2206   4.559   6.059   8.543  0.3938 -1.5456  1.7830
   30CHL1  H23B 2207   4.711   5.976   8.505  0.7223  0.8550  2.3935
   30CHL1   C24 2208   4.734   6.165   8.603  0.3805 -0.0158  0.1130
   30CHL1  H24A 2209   4.836   6.189   8.566 -0.1783 -0.3998 -1.7492
   30CHL1  H24B 2210   4.694   6.269   8.600  2.1075  0.6381 -1.2070
   30CHL1   C25 2211   4.742   6.100   8.744  0.0745 -0.8845 -0.0282
   30CHL1   H25 2212   4.640   6.066   8.772  0.8255 -3.0188  0.1957
   30CHL1   C26 2213   4.824   5.972   8.759  0.8108  0.2802  0.3343
   30CHL1  H26A 2214   4.776   5.897   8.692  1.8894  1.1568 -1.4546
   30CHL1  H26B 2215   4.930   5.991   8.733  1.0571 -1.1139  0.3030
   30CHL1  H26C 2216   4.821   5.926   8.861  1.3119 -3.0786 -1.0960
   30CHL1   C27 2217   4.784   6.203   8.846 -0.2824 -0.0210  0.4187
   30CHL1  H27A 2218   4.714   6.287   8.864 -0.7350 -0.6151  1.4859
   30CHL1  H27B 2219   4.795   6.157   8.947  1.8378 -2.4242 -0.8411
   30CHL1  H27C 2220   4.884   6.245   8.820  0.2569 -0.2661  2.0270
   31CHL1    C3 2221   4.397   0.855   6.791  0.3899  0.4327 -0.2948
   31CHL1    H3 2222   4.495   0.803   6.783 -0.4582 -1.0966 -0.9194
   31CHL1    O3 2223   4.359   0.892   6.664  0.2959  0.6942 -0.2592
   31CHL1   H3' 2224   4.281   0.946   6.683  0.0649 -0.4421  2.3465
   31CHL1    C4 2225   4.298   0.755   6.849  0.1845 -0.3604  0.0015
   31CHL1   H4A 2226   4.195   0.796   6.839  0.0578 -0.9562 -1.2379
   31CHL1   H4B 2227   4.305   0.662   6.788 -1.4553  0.6757 -1.8328
   31CHL1    C5 2228   4.331   0.723   6.995  0.4782 -0.0942  0.0934
   31CHL1    C6 2229   4.375   0.609   7.045 -0.1880 -0.3947 -0.4756
   31CHL1    H6 2230   4.392   0.528   6.973  0.6447  0.2579 -1.0102
   31CHL1    C7 2231   4.419   0.594   7.190  0.7787  0.4345  0.1740
   31CHL1   H7A 2232   4.378   0.495   7.219 -2.7624  1.6216 -0.5905
   31CHL1   H7B 2233   4.530   0.583   7.193  0.5960 -1.0077  2.3507
   31CHL1    C8 2234   4.379   0.707   7.284 -0.6204 -0.1430 -0.0828
   31CHL1    H8 2235   4.268   0.705   7.293 -0.6544  3.1600  0.8997
   31CHL1   C14 2236   4.450   0.691   7.423 -0.6080 -0.0787 -0.6730
   31CHL1   H14 2237   4.558   0.713   7.404 -0.6955 -0.5975 -1.8414
   31CHL1   C15 2238   4.437   0.563   7.495 -0.2795  0.3473 -0.3856
   31CHL1  H15A 2239   4.337   0.515   7.489 -0.1048  0.0676 -1.0076
   31CHL1  H15B 2240   4.513   0.498   7.448 -0.2889  0.9537 -1.2420
   31CHL1   C16 2241   4.484   0.589   7.636  0.0864  0.1096  0.3047
   31CHL1  H16A 2242   4.408   0.557   7.711  0.1509 -0.0665  0.2929
   31CHL1  H16B 2243   4.580   0.538   7.657  0.1638  0.8715  1.9008
   31CHL1   C17 2244   4.504   0.746   7.648 -0.1092 -0.4662 -0.9601
   31CHL1   H17 2245   4.610   0.766   7.621 -0.3105  2.0636  0.0193
   31CHL1   C13 2246   4.416   0.806   7.526 -0.3897  0.1588 -0.1196
   31CHL1   C18 2247   4.275   0.795   7.583  0.3689  0.3543  0.5190
   31CHL1  H18A 2248   4.265   0.875   7.660  0.9202 -0.9340  1.9637
   31CHL1  H18B 2249   4.197   0.815   7.507  1.6661 -0.1989 -0.9875
   31CHL1  H18C 2250   4.259   0.691   7.618  1.9327  0.2157  0.8843
   31CHL1   C12 2251   4.459   0.935   7.460  0.0839 -0.4135  0.3121
   31CHL1  H12A 2252   4.436   1.022   7.526  0.3845  0.4342 -0.6756
   31CHL1  H12B 2253   4.569   0.925   7.451  0.2425  0.9620  0.5765
   31CHL1   C11 2254   4.391   0.958   7.323 -0.2186  0.7559 -0.8847
   31CHL1  H11A 2255   4.284   0.973   7.351 -0.1791  0.0966 -0.3551
   31CHL1  H11B 2256   4.423   1.050   7.270  0.6622  0.2836 -1.1832
   31CHL1    C9 2257   4.416   0.837   7.227 -0.8000 -1.0389  0.6933
   31CHL1    H9 2258   4.526   0.845   7.216 -0.9136 -1.4453 -0.8114
   31CHL1   C10 2259   4.350   0.852   7.088  0.2595  0.0529  0.3253
   31CHL1   C19 2260   4.205   0.903   7.104 -0.8920  0.5722  0.0017
   31CHL1  H19A 2261   4.159   0.906   7.003  3.3483  1.7632 -2.0242
   31CHL1  H19B 2262   4.155   0.828   7.169  0.5596 -2.4268 -2.2201
   31CHL1  H19C 2263   4.190   1.007   7.139 -1.0564  0.2232  0.9743
   31CHL1    C1 2264   4.442   0.953   7.011  0.2900  0.0699 -0.7289
   31CHL1   H1A 2265   4.435   1.047   7.070  0.4825 -0.3615 -0.0055
   31CHL1   H1B 2266   4.550   0.925   7.008  0.4099  0.3970  0.2717
   31CHL1    C2 2267   4.420   0.987   6.869 -0.0087  0.2116  0.2059
   31CHL1   H2A 2268   4.507   1.038   6.824  0.3848 -1.3148 -0.8006
   31CHL1   H2B 2269   4.328   1.049   6.856 -0.0223  0.3279  0.8645
   31CHL1   C20 2270   4.491   0.807   7.789  0.0514 -0.0654 -0.0913
   31CHL1   H20 2271   4.385   0.820   7.818 -1.1629 -1.3403 -3.7499
   31CHL1   C21 2272   4.550   0.951   7.787  0.1573  1.0680  0.3458
   31CHL1  H21A 2273   4.473   1.014   7.738 -0.7191 -0.6661 -0.5844
   31CHL1  H21B 2274   4.644   0.946   7.727 -0.1396 -2.6557  0.0385
   31CHL1  H21C 2275   4.556   0.991   7.890  2.4212 -0.8265  1.0116
   31CHL1   C22 2276   4.549   0.716   7.901 -0.2432  0.2652 -0.0234
   31CHL1  H22A 2277   4.521   0.611   7.881  0.9134 -0.0779  0.1326
   31CHL1  H22B 2278   4.660   0.716   7.910  0.0176  0.0814 -2.8428
   31CHL1   C23 2279   4.472   0.763   8.025  0.0349  0.4502 -0.4156
   31CHL1  H23A 2280   4.494   0.872   8.032 -1.4179  0.7140  0.1514
   31CHL1  H23B 2281   4.364   0.739   8.024  0.4094 -1.2941  0.0107
   31CHL1   C24 2282   4.530   0.695   8.153 -0.4395  0.0310 -0.3112
   31CHL1  H24A 2283   4.505   0.587   8.149 -2.3129  0.5101 -1.9176
   31CHL1  H24B 2284   4.641   0.705   8.156 -0.1956 -2.0011 -1.5367
   31CHL1   C25 2285   4.454   0.752   8.278  0.6173  0.2216 -0.5495
   31CHL1   H25 2286   4.488   0.698   8.368  1.0255  0.2932 -0.6611
   31CHL1   C26 2287   4.493   0.899   8.299  0.0090  0.0324 -0.4501
   31CHL1  H26A 2288   4.445   0.949   8.387 -1.1670  0.0914 -1.1076
   31CHL1  H26B 2289   4.601   0.920   8.288  0.3458 -1.1008  0.6969
   31CHL1  H26C 2290   4.445   0.964   8.223  0.5561  0.8029 -0.1464
   31CHL1   C27 2291   4.302   0.732   8.278 -0.3263 -0.0160  0.0163
   31CHL1  H27A 2292   4.281   0.628   8.246  0.2696 -0.0305 -0.3300
   31CHL1  H27B 2293   4.241   0.793   8.208 -1.8358  1.0945  2.2362
   31CHL1  H27C 2294   4.274   0.748   8.385  0.2695  0.7704  0.0648
   32CHL1    C3 2295   5.004   6.020   7.025 -0.2550  0.0708 -1.0697
   32CHL1    H3 2296   5.085   6.096   7.035 -1.1622  0.8765  0.2620
   32CHL1    O3 2297   4.944   6.011   6.900 -0.7651 -0.6480 -0.1757
   32CHL1   H3' 2298   5.004   5.960   6.845 -0.2558  0.1768 -0.3923
   32CHL1    C4 2299   5.066   5.889   7.056 -0.5679  1.6434  0.8663
   32CHL1   H4A 2300   5.004   5.799   7.035 -0.7329  1.6823  1.1846
   32CHL1   H4B 2301   5.145   5.868   6.981 -1.5952  0.5236  0.0804
   32CHL1    C5 2302   5.124   5.890   7.191 -0.1689 -0.2060 -0.5341
   32CHL1    C6 2303   5.255   5.881   7.223  0.9052  0.4429  0.3410
   32CHL1    H6 2304   5.333   5.878   7.145 -0.8876 -0.0745 -1.4713
   32CHL1    C7 2305   5.303   5.874   7.364 -0.7941 -0.4833  0.1913
   32CHL1   H7A 2306   5.386   5.801   7.367 -0.9262 -0.5592  2.3996
   32CHL1   H7B 2307   5.356   5.970   7.380 -0.9152 -0.5584  1.0502
   32CHL1    C8 2308   5.208   5.850   7.477 -0.7633 -0.6437 -0.2220
   32CHL1    H8 2309   5.164   5.748   7.480 -0.6939 -0.6561  0.9059
   32CHL1   C14 2310   5.268   5.910   7.611  0.4049  0.1834  0.8567
   32CHL1   H14 2311   5.279   6.020   7.597  0.3593  0.2752  1.5721
   32CHL1   C15 2312   5.407   5.869   7.653  0.6750 -0.1450  0.1117
   32CHL1  H15A 2313   5.439   5.763   7.642  0.1275 -0.6940  3.2278
   32CHL1  H15B 2314   5.482   5.923   7.592 -1.4397  1.6359 -0.9399
   32CHL1   C16 2315   5.405   5.896   7.800  0.3054 -0.2278  0.5994
   32CHL1  H16A 2316   5.434   5.812   7.866  1.6056  0.0102  0.3419
   32CHL1  H16B 2317   5.480   5.975   7.823  0.4191  0.0548 -0.7530
   32CHL1   C17 2318   5.263   5.942   7.840 -0.2713  0.2633 -0.8851
   32CHL1   H17 2319   5.258   6.052   7.827 -1.2781  0.2157 -0.9743
   32CHL1   C13 2320   5.173   5.883   7.730  0.9228  0.4178  0.9932
   32CHL1   C18 2321   5.147   5.729   7.751 -0.4610  0.2896 -0.0114
   32CHL1  H18A 2322   5.088   5.676   7.673 -0.0944 -2.2117  1.3564
   32CHL1  H18B 2323   5.244   5.676   7.765  0.0195  1.3052  0.5925
   32CHL1  H18C 2324   5.090   5.714   7.845  0.0535  1.0269  0.4249
   32CHL1   C12 2325   5.049   5.964   7.706 -0.2167 -0.2446 -0.2514
   32CHL1  H12A 2326   4.972   5.943   7.784 -0.4039 -1.6817 -0.8135
   32CHL1  H12B 2327   5.062   6.074   7.699 -2.8974  0.0047 -2.5232
   32CHL1   C11 2328   4.980   5.929   7.572 -0.1942  0.3338 -0.6600
   32CHL1  H11A 2329   4.928   5.833   7.585 -2.7834  1.6957 -0.6550
   32CHL1  H11B 2330   4.902   6.008   7.563  0.5979  1.4644  1.9130
   32CHL1    C9 2331   5.076   5.927   7.447 -0.0689 -0.4438  0.6284
   32CHL1    H9 2332   5.112   6.032   7.444  3.5782 -1.6533 -0.7576
   32CHL1   C10 2333   5.018   5.907   7.305  0.5263  0.0920 -0.1197
   32CHL1   C19 2334   4.918   5.789   7.312  0.4453  0.2885  0.3937
   32CHL1  H19A 2335   4.847   5.797   7.397  0.3643  0.8367  0.2761
   32CHL1  H19B 2336   4.858   5.778   7.219  0.6963  0.6730  0.1859
   32CHL1  H19C 2337   4.974   5.694   7.322 -0.9719 -0.5382  0.6147
   32CHL1    C1 2338   4.941   6.041   7.265  0.4149 -0.3877  0.0378
   32CHL1   H1A 2339   4.858   6.062   7.335 -1.9304 -0.1301 -2.7435
   32CHL1   H1B 2340   5.009   6.128   7.281  1.7279 -0.4919 -4.3958
   32CHL1    C2 2341   4.887   6.038   7.127  0.6132 -0.6427  0.1981
   32CHL1   H2A 2342   4.839   6.136   7.110  0.6872 -0.8557 -1.2628
   32CHL1   H2B 2343   4.804   5.964   7.125 -2.2861  2.5120  0.2903
   32CHL1   C20 2344   5.210   5.917   7.978  0.2510  0.2101  0.0310
   32CHL1   H20 2345   5.100   5.924   7.963  0.5060 -0.8631 -2.6868
   32CHL1   C21 2346   5.239   6.050   8.054  0.5335  0.4383 -0.6686
   32CHL1  H21A 2347   5.208   6.139   7.996 -1.5962 -0.7852 -1.4633
   32CHL1  H21B 2348   5.348   6.054   8.076  0.3739 -0.0629  0.2175
   32CHL1  H21C 2349   5.188   6.050   8.152 -1.3016  3.8043 -1.5678
   32CHL1   C22 2350   5.261   5.794   8.053 -0.3984 -0.1154  0.4948
   32CHL1  H22A 2351   5.271   5.706   7.987  0.4731 -0.6947  1.3811
   32CHL1  H22B 2352   5.364   5.815   8.090 -1.1220 -0.0456  2.5229
   32CHL1   C23 2353   5.167   5.761   8.176  0.5351 -0.4837  0.0009
   32CHL1  H23A 2354   5.215   5.675   8.228  1.3520  0.0360  0.1170
   32CHL1  H23B 2355   5.152   5.846   8.245 -1.9772 -0.5457 -0.4095
   32CHL1   C24 2356   5.030   5.699   8.136 -0.1132 -0.2972  0.4117
   32CHL1  H24A 2357   4.989   5.781   8.073  0.5953 -0.6212 -0.4894
   32CHL1  H24B 2358   5.046   5.615   8.064  0.0664  1.4894 -1.6841
   32CHL1   C25 2359   4.929   5.658   8.244  0.1957  0.0842  0.2460
   32CHL1   H25 2360   4.827   5.649   8.203  0.0310 -1.0915  0.8882
   32CHL1   C26 2361   4.958   5.515   8.291  0.2321  0.2300 -0.4481
   32CHL1  H26A 2362   4.944   5.446   8.204  0.1039 -2.1909  1.4526
   32CHL1  H26B 2363   5.056   5.506   8.342 -0.3526  0.5395  0.7391
   32CHL1  H26C 2364   4.882   5.474   8.360  0.1089  0.3238 -0.5267
   32CHL1   C27 2365   4.932   5.763   8.353  0.2834  0.3331 -0.4461
   32CHL1  H27A 2366   5.028   5.770   8.408  1.0786  2.4967 -2.0632
   32CHL1  H27B 2367   4.905   5.864   8.316 -1.3273  0.1028  0.0589
   32CHL1  H27C 2368   4.858   5.732   8.430  0.3371  1.1457 -0.0630
   33CHL1    C3 2369   6.130   6.000   6.752  0.6691 -0.3955  0.1345
   33CHL1    H3 2370   6.090   5.903   6.789 -0.6031 -0.5229 -1.5154
   33CHL1    O3 2371   6.173   5.995   6.620 -0.2537  0.0845 -0.6812
   33CHL1   H3' 2372   6.232   6.071   6.616  0.8371 -0.7873 -1.6643
   33CHL1    C4 2373   6.016   6.106   6.773 -0.4238  0.7647  0.8095
   33CHL1   H4A 2374   6.064   6.201   6.742 -1.1032  0.3883 -1.4867
   33CHL1   H4B 2375   5.936   6.093   6.697 -0.1969  0.2389  0.6562
   33CHL1    C5 2376   5.967   6.115   6.914 -0.4627  0.0332  0.2383
   33CHL1    C6 2377   5.838   6.098   6.949 -0.2697 -1.0397 -0.3981
   33CHL1    H6 2378   5.759   6.078   6.876 -3.5368  1.6961  2.1920
   33CHL1    C7 2379   5.781   6.111   7.085  0.3738 -0.2283 -0.2620
   33CHL1   H7A 2380   5.684   6.164   7.086 -0.7835 -2.2715  1.9695
   33CHL1   H7B 2381   5.754   6.011   7.125 -1.0193  0.2707  0.0648
   33CHL1    C8 2382   5.884   6.163   7.191 -0.4030  0.0255 -0.8118
   33CHL1    H8 2383   5.887   6.274   7.187 -0.0886 -0.0304 -2.2799
   33CHL1   C14 2384   5.846   6.121   7.333  0.3845 -0.2885  0.4268
   33CHL1   H14 2385   5.859   6.011   7.341 -2.2770 -0.6771 -0.0080
   33CHL1   C15 2386   5.698   6.139   7.373  0.7361 -0.5054 -0.1309
   33CHL1  H15A 2387   5.644   6.232   7.343 -1.0228 -0.8573  1.7478
   33CHL1  H15B 2388   5.643   6.049   7.339  0.7992 -0.5581 -0.0896
   33CHL1   C16 2389   5.711   6.118   7.524 -0.6051  0.5649  0.3052
   33CHL1  H16A 2390   5.671   6.201   7.586 -0.5236  0.7486  0.1132
   33CHL1  H16B 2391   5.661   6.024   7.557  1.1430  1.0001  4.4514
   33CHL1   C17 2392   5.868   6.111   7.556  0.3213 -0.5594 -0.5789
   33CHL1   H17 2393   5.897   6.003   7.557 -3.5367 -1.6684  0.7281
   33CHL1   C13 2394   5.939   6.174   7.441  1.3181  0.0106 -0.2651
   33CHL1   C18 2395   5.927   6.330   7.449  0.3321  0.0446  0.1406
   33CHL1  H18A 2396   5.978   6.373   7.360 -2.2469 -0.1261 -1.4538
   33CHL1  H18B 2397   5.824   6.371   7.451  0.3051 -0.0471  2.3435
   33CHL1  H18C 2398   5.982   6.377   7.534  1.5067 -0.4156 -0.3471
   33CHL1   C12 2399   6.081   6.128   7.415 -0.0812  0.9756  0.4460
   33CHL1  H12A 2400   6.152   6.178   7.484  0.1470 -0.2439  1.1149
   33CHL1  H12B 2401   6.098   6.018   7.415  1.2059  1.0573 -4.2896
   33CHL1   C11 2402   6.131   6.160   7.270 -0.1042  0.1618 -0.1952
   33CHL1  H11A 2403   6.129   6.271   7.262  0.1634  0.1884  0.0978
   33CHL1  H11B 2404   6.235   6.126   7.253  0.0691 -0.7502  2.3659
   33CHL1    C9 2405   6.030   6.115   7.162  0.2891 -0.0061  0.1688
   33CHL1    H9 2406   6.022   6.006   7.178  1.6084  0.1945  2.4222
   33CHL1   C10 2407   6.081   6.140   7.014 -0.5467  0.3020  0.3746
   33CHL1   C19 2408   6.132   6.288   7.007 -0.4754 -0.4130 -0.2390
   33CHL1  H19A 2409   6.222   6.303   7.071 -1.3034  3.5526  0.0694
   33CHL1  H19B 2410   6.163   6.323   6.906  0.1484  1.0315  0.4428
   33CHL1  H19C 2411   6.049   6.350   7.045 -1.6854 -1.7103 -0.7230
   33CHL1    C1 2412   6.190   6.033   6.983  0.1389  0.3024  0.1114
   33CHL1   H1A 2413   6.269   6.047   7.061 -2.3400 -1.3529  3.0598
   33CHL1   H1B 2414   6.151   5.931   7.004 -0.4457  0.2868 -1.0245
   33CHL1    C2 2415   6.240   6.042   6.840  0.1464 -0.1841 -0.2254
   33CHL1   H2A 2416   6.322   5.969   6.820 -1.3148 -1.7149 -0.7269
   33CHL1   H2B 2417   6.273   6.147   6.821 -2.7916  0.7968 -0.0914
   33CHL1   C20 2418   5.901   6.149   7.696 -0.1921 -0.5715 -0.7604
   33CHL1   H20 2419   5.881   6.259   7.702  3.7015  0.0811  3.6243
   33CHL1   C21 2420   6.049   6.128   7.747 -0.0082  0.7993 -0.1459
   33CHL1  H21A 2421   6.059   6.169   7.850  1.4950 -0.0427  0.0645
   33CHL1  H21B 2422   6.122   6.186   7.686  2.0646 -2.7335 -1.1242
   33CHL1  H21C 2423   6.078   6.021   7.750  2.4796  1.3755 -2.0395
   33CHL1   C22 2424   5.814   6.070   7.798 -0.3352  0.8851  0.1532
   33CHL1  H22A 2425   5.712   6.088   7.759 -0.3930  0.6093  0.1783
   33CHL1  H22B 2426   5.845   5.963   7.791 -0.8263  0.7099  0.6776
   33CHL1   C23 2427   5.820   6.101   7.947 -0.1023  0.3330  0.5379
   33CHL1  H23A 2428   5.925   6.109   7.983  0.5698 -0.6613 -1.1384
   33CHL1  H23B 2429   5.767   6.198   7.959 -1.8239 -0.6871  1.4180
   33CHL1   C24 2430   5.742   6.001   8.033  0.3320 -0.6320  0.6719
   33CHL1  H24A 2431   5.645   5.984   7.980  1.3372  1.1373 -1.8546
   33CHL1  H24B 2432   5.803   5.908   8.033  1.0772 -0.1454  0.3845
   33CHL1   C25 2433   5.720   6.040   8.182 -0.1804  0.9363 -0.2520
   33CHL1   H25 2434   5.664   6.136   8.186  0.5768  1.5211 -2.6797
   33CHL1   C26 2435   5.634   5.935   8.259 -0.0208 -0.6938  0.5656
   33CHL1  H26A 2436   5.699   5.850   8.290 -1.0458 -1.4805  0.5834
   33CHL1  H26B 2437   5.597   5.981   8.353  0.2571  1.0967 -0.1879
   33CHL1  H26C 2438   5.538   5.899   8.215 -0.2807 -0.8899  1.2798
   33CHL1   C27 2439   5.844   6.069   8.257 -0.0205  0.4284  0.5466
   33CHL1  H27A 2440   5.945   6.035   8.224 -0.3070 -1.0202  1.1392
   33CHL1  H27B 2441   5.858   6.177   8.239  0.5591  0.4233  0.9477
   33CHL1  H27C 2442   5.830   6.054   8.366 -0.4473  1.5200  0.6395
   34CHL1    C3 2443   0.669   4.823   7.173 -0.7621  1.1331 -0.3394
   34CHL1    H3 2444   0.770   4.869   7.170 -1.5854  3.1434  1.9009
   34CHL1    O3 2445   0.631   4.776   7.050  0.8492  0.5259  0.1714
   34CHL1   H3' 2446   0.558   4.718   7.073 -0.0580  1.2585 -0.8114
   34CHL1    C4 2447   0.676   4.699   7.276 -0.1580 -1.4306  0.6519
   34CHL1   H4A 2448   0.586   4.635   7.266 -3.4049  2.7846  1.3771
   34CHL1   H4B 2449   0.762   4.630   7.265 -0.4237 -1.5853 -0.4513
   34CHL1    C5 2450   0.679   4.746   7.421 -0.1799  0.2380 -0.2187
   34CHL1    C6 2451   0.770   4.701   7.513  0.2918 -0.6322  0.2449
   34CHL1    H6 2452   0.844   4.626   7.482  2.4950  1.0440  1.2461
   34CHL1    C7 2453   0.765   4.732   7.662 -0.0873 -0.0372  0.4028
   34CHL1   H7A 2454   0.770   4.634   7.714  0.0820 -0.7827 -1.0091
   34CHL1   H7B 2455   0.853   4.797   7.682 -0.1389  0.7528 -1.8194
   34CHL1    C8 2456   0.639   4.806   7.707  0.1257  0.2597 -0.0632
   34CHL1    H8 2457   0.552   4.738   7.705  0.0932  0.2267  1.7814
   34CHL1   C14 2458   0.649   4.866   7.848  0.2408 -0.0329  0.2468
   34CHL1   H14 2459   0.730   4.939   7.827  0.3158 -0.7928 -2.2009
   34CHL1   C15 2460   0.688   4.770   7.971  0.6997 -0.1835 -0.1312
   34CHL1  H15A 2461   0.635   4.673   7.977 -2.1206  1.5045  4.7952
   34CHL1  H15B 2462   0.794   4.742   7.954  0.9263  0.1769  0.6961
   34CHL1   C16 2463   0.658   4.863   8.088  0.3091  0.0044  0.2247
   34CHL1  H16A 2464   0.582   4.810   8.149 -1.9899  0.6920 -1.9418
   34CHL1  H16B 2465   0.750   4.888   8.146 -0.2671 -0.4075  1.3366
   34CHL1   C17 2466   0.583   4.991   8.029 -0.7368  0.0202  0.6311
   34CHL1   H17 2467   0.661   5.068   8.012 -0.5330 -0.0605  1.1896
   34CHL1   C13 2468   0.524   4.953   7.889  0.4175 -0.4584  1.0804
   34CHL1   C18 2469   0.399   4.870   7.899 -0.6030  0.2439  0.1528
   34CHL1  H18A 2470   0.369   4.820   7.804  1.4069 -1.3311  0.3130
   34CHL1  H18B 2471   0.423   4.785   7.966 -1.4665  1.2006  1.7268
   34CHL1  H18C 2472   0.317   4.930   7.944  1.6352  3.4612  0.0730
   34CHL1   C12 2473   0.513   5.073   7.790  0.0327 -0.2446 -0.2587
   34CHL1  H12A 2474   0.425   5.138   7.808  0.6487  0.3720  0.5736
   34CHL1  H12B 2475   0.602   5.138   7.796 -0.5209  0.5302 -0.4001
   34CHL1   C11 2476   0.494   5.018   7.649  0.2448 -0.8797 -0.4134
   34CHL1  H11A 2477   0.392   4.974   7.640 -1.0056  1.6891  0.8275
   34CHL1  H11B 2478   0.496   5.111   7.589 -0.5169 -1.2576 -1.0360
   34CHL1    C9 2479   0.600   4.908   7.600 -0.4032 -0.4494  0.2263
   34CHL1    H9 2480   0.692   4.967   7.582 -1.8882  1.7328 -0.3317
   34CHL1   C10 2481   0.574   4.848   7.456  0.0920 -0.3884 -0.1579
   34CHL1   C19 2482   0.432   4.784   7.450 -0.3589 -0.4703 -0.0510
   34CHL1  H19A 2483   0.365   4.872   7.441  2.8820  1.9268 -1.9002
   34CHL1  H19B 2484   0.413   4.723   7.359  0.5130  0.7355 -1.0576
   34CHL1  H19C 2485   0.401   4.731   7.542 -0.8350 -2.3557 -1.2783
   34CHL1    C1 2486   0.594   4.971   7.358  0.8609  0.1029 -0.3583
   34CHL1   H1A 2487   0.520   5.050   7.382  0.1044 -0.4802 -0.7614
   34CHL1   H1B 2488   0.698   5.007   7.376  0.3775  2.2263 -1.5884
   34CHL1    C2 2489   0.577   4.937   7.217 -0.3226  0.7401  0.2135
   34CHL1   H2A 2490   0.585   5.022   7.146 -0.9085  0.5418 -0.0955
   34CHL1   H2B 2491   0.473   4.904   7.195  0.0203 -0.2069 -0.0370
   34CHL1   C20 2492   0.484   5.047   8.142  0.0552  0.4329  0.3791
   34CHL1   H20 2493   0.403   4.971   8.152  0.2692 -0.3456 -2.9645
   34CHL1   C21 2494   0.416   5.175   8.089 -0.2580  0.7407  0.3067
   34CHL1  H21A 2495   0.348   5.144   8.007 -0.1899 -1.0555  0.9054
   34CHL1  H21B 2496   0.482   5.257   8.054  1.1870 -1.1427 -1.4620
   34CHL1  H21C 2497   0.361   5.221   8.174 -0.5974 -0.4533  0.7395
   34CHL1   C22 2498   0.553   5.068   8.281  0.5229 -0.1023  0.8240
   34CHL1  H22A 2499   0.466   5.103   8.340  0.7076  1.2922  0.2910
   34CHL1  H22B 2500   0.586   4.970   8.322  1.2209  0.4751  1.6554
   34CHL1   C23 2501   0.660   5.176   8.296 -0.0057  0.0856  0.3352
   34CHL1  H23A 2502   0.737   5.143   8.223 -1.6225 -0.8869 -0.9746
   34CHL1  H23B 2503   0.613   5.266   8.249  0.4431 -1.3969 -3.1324
   34CHL1   C24 2504   0.699   5.197   8.444  0.1678 -0.4864  0.2461
   34CHL1  H24A 2505   0.613   5.227   8.507 -1.0397  2.0994 -2.5166
   34CHL1  H24B 2506   0.735   5.098   8.481 -0.1170 -0.3246  0.9765
   34CHL1   C25 2507   0.811   5.291   8.470 -0.4254 -0.9119  0.4908
   34CHL1   H25 2508   0.766   5.391   8.455  0.8791 -0.2930  0.6438
   34CHL1   C26 2509   0.867   5.300   8.614  0.3691  0.7170 -0.7465
   34CHL1  H26A 2510   0.924   5.393   8.636  0.0463  0.7099  0.1483
   34CHL1  H26B 2511   0.774   5.294   8.674 -0.9735 -3.7925 -3.0267
   34CHL1  H26C 2512   0.930   5.219   8.658 -0.9957  1.0315  1.8967
   34CHL1   C27 2513   0.934   5.280   8.377  0.3322  0.1095  0.3375
   34CHL1  H27A 2514   0.988   5.378   8.380  1.4908 -0.4906 -0.3578
   34CHL1  H27B 2515   1.009   5.198   8.385 -0.7479 -0.6359  2.9795
   34CHL1  H27C 2516   0.902   5.287   8.271 -2.5955  1.9961  1.2911
   35CHL1    C3 2517   3.536   5.683   7.446 -0.0438  0.7769  0.3531
   35CHL1    H3 2518   3.428   5.661   7.455  0.4221 -1.3037  1.1800
   35CHL1    O3 2519   3.574   5.691   7.313 -0.7593 -0.2496  0.4369
   35CHL1   H3' 2520   3.587   5.603   7.275 -0.6692  0.5341 -1.4076
   35CHL1    C4 2521   3.576   5.814   7.514  0.1789 -0.3435  0.0337
   35CHL1   H4A 2522   3.687   5.816   7.509  0.2433 -0.1072  1.3359
   35CHL1   H4B 2523   3.546   5.914   7.474 -1.3728 -2.2640 -3.8445
   35CHL1    C5 2524   3.541   5.818   7.661 -0.2473 -0.2374 -0.6956
   35CHL1    C6 2525   3.468   5.913   7.719  0.6086 -0.2434  0.4907
   35CHL1    H6 2526   3.422   5.995   7.663  1.7738  0.6103  0.7751
   35CHL1    C7 2527   3.413   5.919   7.857 -0.2525  0.0452 -0.4857
   35CHL1   H7A 2528   3.444   6.010   7.913  1.4798 -1.3135  0.8308
   35CHL1   H7B 2529   3.305   5.898   7.846 -0.2958  0.3401 -0.6458
   35CHL1    C8 2530   3.481   5.813   7.947  0.0178  0.2435 -0.0870
   35CHL1    H8 2531   3.580   5.856   7.973  0.8228 -0.7880 -1.4301
   35CHL1   C14 2532   3.395   5.786   8.075 -0.1962 -0.8281 -0.2397
   35CHL1   H14 2533   3.299   5.733   8.057 -0.6691  0.1988 -0.8136
   35CHL1   C15 2534   3.343   5.911   8.156 -0.0635 -0.1544 -0.0419
   35CHL1  H15A 2535   3.423   5.989   8.159  0.6060 -0.7805 -1.0556
   35CHL1  H15B 2536   3.256   5.954   8.103 -0.9430 -0.9165  0.7721
   35CHL1   C16 2537   3.310   5.851   8.291  0.6478 -0.0128 -0.4998
   35CHL1  H16A 2538   3.366   5.910   8.367  2.7195 -1.4385 -0.8838
   35CHL1  H16B 2539   3.201   5.858   8.311  0.7859  1.2788 -0.1709
   35CHL1   C17 2540   3.375   5.705   8.291 -0.5306 -0.5811 -0.2037
   35CHL1   H17 2541   3.293   5.637   8.259 -0.1299 -1.2892  0.2496
   35CHL1   C13 2542   3.482   5.704   8.183  0.3260 -0.6226  0.0255
   35CHL1   C18 2543   3.607   5.787   8.221 -0.4621 -0.4024 -0.3111
   35CHL1  H18A 2544   3.594   5.893   8.250  2.0462 -0.4423  1.1252
   35CHL1  H18B 2545   3.666   5.735   8.300  0.5337  0.8238 -0.2403
   35CHL1  H18C 2546   3.679   5.778   8.137 -0.2944 -1.3741 -0.0779
   35CHL1   C12 2547   3.515   5.568   8.115 -0.0598 -0.8783 -0.0639
   35CHL1  H12A 2548   3.575   5.507   8.185 -0.9421 -0.1003  1.4043
   35CHL1  H12B 2549   3.419   5.513   8.102 -1.1325  0.8801  0.2630
   35CHL1   C11 2550   3.583   5.588   7.972 -0.8299 -0.6507  0.2916
   35CHL1  H11A 2551   3.681   5.632   8.002 -0.6598 -0.9591  0.1904
   35CHL1  H11B 2552   3.605   5.493   7.918 -1.3032  0.1256 -1.2927
   35CHL1    C9 2553   3.512   5.682   7.877 -0.0284 -0.6601  0.3379
   35CHL1    H9 2554   3.412   5.641   7.851 -0.1153 -0.3264  0.1437
   35CHL1   C10 2555   3.590   5.694   7.742 -0.0576 -0.6203 -0.5799
   35CHL1   C19 2556   3.745   5.725   7.762  0.4068 -0.5114  0.7174
   35CHL1  H19A 2557   3.787   5.722   7.660 -3.5235 -1.4662 -0.9886
   35CHL1  H19B 2558   3.764   5.827   7.802 -0.5372  0.1998 -0.6404
   35CHL1  H19C 2559   3.801   5.652   7.825 -0.0127  0.4789  2.2900
   35CHL1    C1 2560   3.569   5.566   7.666 -0.1599  0.2253  0.3576
   35CHL1   H1A 2561   3.643   5.494   7.707  1.2313  0.9376 -0.8784
   35CHL1   H1B 2562   3.464   5.530   7.671 -0.0306 -0.1876  0.0743
   35CHL1    C2 2563   3.618   5.576   7.515  0.0387  0.6203 -0.3382
   35CHL1   H2A 2564   3.601   5.481   7.459 -2.4961 -0.2300  1.8012
   35CHL1   H2B 2565   3.723   5.611   7.511 -0.0739  0.9072 -0.8220
   35CHL1   C20 2566   3.428   5.666   8.431 -0.2019  0.3861 -0.5689
   35CHL1   H20 2567   3.504   5.741   8.464  1.0138 -0.6916 -0.8688
   35CHL1   C21 2568   3.498   5.531   8.433 -0.2546  0.4282  0.7476
   35CHL1  H21A 2569   3.594   5.524   8.377 -1.2937 -2.3103 -0.7753
   35CHL1  H21B 2570   3.412   5.472   8.393  0.5716 -1.3782  1.6464
   35CHL1  H21C 2571   3.521   5.495   8.535 -0.1795  1.6104  1.1623
   35CHL1   C22 2572   3.302   5.667   8.524  0.1013  0.1582 -0.4666
   35CHL1  H22A 2573   3.256   5.768   8.530  1.5802  0.7539  1.1706
   35CHL1  H22B 2574   3.230   5.605   8.467 -0.5219 -0.0542  0.5420
   35CHL1   C23 2575   3.313   5.601   8.660  0.9075  0.1237 -0.0796
   35CHL1  H23A 2576   3.318   5.492   8.641 -0.8287 -0.3238  1.9362
   35CHL1  H23B 2577   3.397   5.643   8.719  2.1926 -0.0154 -1.7571
   35CHL1   C24 2578   3.190   5.630   8.752  0.4868  0.3957  0.9241
   35CHL1  H24A 2579   3.191   5.731   8.798  0.9072  0.1605  1.4399
   35CHL1  H24B 2580   3.099   5.636   8.690  0.1539  2.0847  1.5582
   35CHL1   C25 2581   3.162   5.542   8.872  0.2338 -0.6945 -0.0292
   35CHL1   H25 2582   3.067   5.580   8.915  0.5683 -1.4369  1.4117
   35CHL1   C26 2583   3.137   5.402   8.833 -0.1025  0.0011 -0.1086
   35CHL1  H26A 2584   3.114   5.336   8.920 -3.9463  2.6321  1.0060
   35CHL1  H26B 2585   3.041   5.402   8.778  0.9530 -1.4701 -2.0072
   35CHL1  H26C 2586   3.212   5.351   8.769  0.7965  2.1350 -0.7761
   35CHL1   C27 2587   3.274   5.546   8.972  0.2269 -0.5021 -0.2115
   35CHL1  H27A 2588   3.316   5.647   8.989 -0.3670 -0.5822  1.8511
   35CHL1  H27B 2589   3.364   5.489   8.939  1.6331  1.4126  0.2370
   35CHL1  H27C 2590   3.236   5.508   9.070 -1.1948  1.2070 -0.0865
   36CHL1    C3 2591   4.009   4.898   6.973 -0.4918  0.5121  0.2567
   36CHL1    H3 2592   4.055   4.801   6.943 -2.4748 -0.7776  1.2693
   36CHL1    O3 2593   3.926   4.940   6.863 -0.8077  0.0626  0.3113
   36CHL1   H3' 2594   3.912   5.035   6.862  0.5728  0.2691 -1.5828
   36CHL1    C4 2595   3.917   4.875   7.097 -0.3515  0.2844 -1.3677
   36CHL1   H4A 2596   3.873   4.972   7.127 -1.7485 -0.3882 -1.2227
   36CHL1   H4B 2597   3.837   4.802   7.073 -0.5115 -0.4676  1.2875
   36CHL1    C5 2598   4.009   4.823   7.206  0.3201  0.5005 -0.2840
   36CHL1    C6 2599   3.991   4.698   7.260 -0.4999 -0.6976  0.5112
   36CHL1    H6 2600   3.903   4.637   7.234 -0.7406 -0.3141  0.4210
   36CHL1    C7 2601   4.084   4.653   7.367  0.3057  0.1198  0.0038
   36CHL1   H7A 2602   4.028   4.596   7.445 -0.9520  3.5701  1.7152
   36CHL1   H7B 2603   4.155   4.578   7.325 -1.3516 -1.2615 -0.3994
   36CHL1    C8 2604   4.150   4.769   7.449 -0.3403 -0.7243  0.0612
   36CHL1    H8 2605   4.063   4.804   7.508 -1.0501 -4.5521  1.4224
   36CHL1   C14 2606   4.251   4.715   7.556 -0.5840  0.4818  0.5007
   36CHL1   H14 2607   4.326   4.662   7.494 -2.4966 -1.6217 -0.0721
   36CHL1   C15 2608   4.204   4.606   7.663  0.3224  0.1325  0.5057
   36CHL1  H15A 2609   4.096   4.604   7.690  0.6509 -1.2294  1.7997
   36CHL1  H15B 2610   4.234   4.505   7.628 -0.3269  0.2221 -0.3274
   36CHL1   C16 2611   4.307   4.623   7.780  0.3087 -0.6670  0.1658
   36CHL1  H16A 2612   4.258   4.650   7.876 -0.1172 -0.6530 -0.0502
   36CHL1  H16B 2613   4.359   4.525   7.789 -2.6133 -2.2825  0.3663
   36CHL1   C17 2614   4.405   4.726   7.729  0.4338  0.0051  0.3587
   36CHL1   H17 2615   4.472   4.666   7.663 -3.2410 -1.9746 -1.7594
   36CHL1   C13 2616   4.330   4.822   7.625  1.5361  0.2936 -0.1336
   36CHL1   C18 2617   4.230   4.914   7.708  0.6124 -0.1763  0.0248
   36CHL1  H18A 2618   4.287   4.997   7.754 -0.4700  0.1986  0.7245
   36CHL1  H18B 2619   4.155   4.957   7.638 -1.4210 -0.5576  1.9292
   36CHL1  H18C 2620   4.181   4.877   7.801 -0.5619  2.4091  0.4708
   36CHL1   C12 2621   4.411   4.897   7.515  0.1807 -0.3824 -0.1834
   36CHL1  H12A 2622   4.462   4.979   7.570 -1.4085 -0.1927  1.0708
   36CHL1  H12B 2623   4.493   4.846   7.461 -0.9615 -1.5134 -0.8935
   36CHL1   C11 2624   4.314   4.967   7.424  0.2295 -0.3140  0.7978
   36CHL1  H11A 2625   4.255   5.045   7.478  0.6061  0.1650  0.5253
   36CHL1  H11B 2626   4.369   5.027   7.348 -0.2172 -0.6202  0.2292
   36CHL1    C9 2627   4.220   4.864   7.353  1.3073 -0.1306 -0.4128
   36CHL1    H9 2628   4.290   4.798   7.298  1.1761 -0.5171 -0.1180
   36CHL1   C10 2629   4.119   4.924   7.248  0.9109  0.0815  0.2843
   36CHL1   C19 2630   4.044   5.048   7.305  0.4168 -0.4452  0.5308
   36CHL1  H19A 2631   3.968   5.024   7.382 -4.0167  4.3829 -2.0964
   36CHL1  H19B 2632   4.113   5.120   7.354  0.5536 -0.4299  0.3159
   36CHL1  H19C 2633   4.002   5.101   7.217 -0.1144 -1.4807  0.1448
   36CHL1    C1 2634   4.201   4.954   7.121 -0.0866  0.0339 -0.9092
   36CHL1   H1A 2635   4.271   5.039   7.138  0.2030  0.4777 -3.9051
   36CHL1   H1B 2636   4.264   4.870   7.083 -0.7761  0.0306 -2.0733
   36CHL1    C2 2637   4.117   5.006   6.999  0.8114 -0.0636 -0.0142
   36CHL1   H2A 2638   4.189   5.017   6.915  0.4118  0.6695 -0.2588
   36CHL1   H2B 2639   4.066   5.103   7.017  1.2283 -0.3144  2.7780
   36CHL1   C20 2640   4.479   4.796   7.848 -0.1269 -0.3452 -0.3699
   36CHL1   H20 2641   4.405   4.860   7.900  0.7439 -0.8282  1.5176
   36CHL1   C21 2642   4.585   4.896   7.794 -0.0502  0.1161 -0.3321
   36CHL1  H21A 2643   4.632   4.956   7.875 -1.4906  0.3720  0.3357
   36CHL1  H21B 2644   4.545   4.978   7.730  0.8604  1.5694  0.9310
   36CHL1  H21C 2645   4.661   4.841   7.735  0.7709  0.0590  0.7578
   36CHL1   C22 2646   4.547   4.694   7.949  0.5616  0.3863 -0.4083
   36CHL1  H22A 2647   4.462   4.646   8.002 -0.5960  2.7897 -0.0236
   36CHL1  H22B 2648   4.603   4.617   7.893 -0.6354 -0.9232  0.1768
   36CHL1   C23 2649   4.642   4.758   8.050 -0.3610  0.1270  0.5903
   36CHL1  H23A 2650   4.730   4.814   8.012  1.1847 -1.9395  1.0087
   36CHL1  H23B 2651   4.588   4.839   8.104 -2.8630 -1.7040  0.9237
   36CHL1   C24 2652   4.699   4.660   8.152  0.7387 -0.1577 -1.0454
   36CHL1  H24A 2653   4.612   4.604   8.193 -0.7530  2.7586 -0.0220
   36CHL1  H24B 2654   4.775   4.589   8.114  1.8426  0.2814  0.2833
   36CHL1   C25 2655   4.757   4.746   8.272  0.4593  0.7638  0.4653
   36CHL1   H25 2656   4.674   4.800   8.323  1.3738 -1.2713  4.2766
   36CHL1   C26 2657   4.800   4.643   8.379  0.2261  0.2932  0.2980
   36CHL1  H26A 2658   4.887   4.584   8.343 -0.5896 -2.3517  2.4543
   36CHL1  H26B 2659   4.826   4.688   8.477  1.2806  0.6704 -0.1562
   36CHL1  H26C 2660   4.724   4.561   8.377  1.2301 -0.6163 -1.9142
   36CHL1   C27 2661   4.871   4.840   8.235 -0.2325 -0.9655 -0.3727
   36CHL1  H27A 2662   4.933   4.794   8.155 -0.3773  0.9524 -1.6129
   36CHL1  H27B 2663   4.836   4.937   8.194  1.3171 -0.0136  0.5363
   36CHL1  H27C 2664   4.938   4.861   8.321  1.1966  1.1894 -1.9552
   37CHL1    C3 2665   0.771   0.808   6.911  0.6972  0.4363 -0.0288
   37CHL1    H3 2666   0.751   0.916   6.900 -0.6991  0.3031  1.1617
   37CHL1    O3 2667   0.792   0.754   6.777 -0.0683 -0.0586 -0.2189
   37CHL1   H3' 2668   0.715   0.780   6.725 -1.6481 -1.0119  1.5392
   37CHL1    C4 2669   0.884   0.792   7.005  0.4164 -0.4127  0.1834
   37CHL1   H4A 2670   0.916   0.686   7.016  1.5965  0.0231  1.1405
   37CHL1   H4B 2671   0.983   0.838   6.981  0.4618  1.0789  2.9292
   37CHL1    C5 2672   0.840   0.838   7.147 -0.5787 -1.0394  0.4185
   37CHL1    C6 2673   0.911   0.933   7.210  0.7025 -0.3345  0.3288
   37CHL1    H6 2674   1.007   0.962   7.166  1.3804 -0.4639  1.6910
   37CHL1    C7 2675   0.876   0.985   7.346  0.5874  0.3693 -0.0310
   37CHL1   H7A 2676   0.961   0.998   7.417 -1.2102  0.6921  2.0869
   37CHL1   H7B 2677   0.825   1.082   7.329  0.9641  0.4509 -0.7095
   37CHL1    C8 2678   0.786   0.890   7.423  0.3117  0.4533 -0.3771
   37CHL1    H8 2679   0.852   0.804   7.445  0.2212  0.0367 -1.7249
   37CHL1   C14 2680   0.742   0.954   7.562  0.3907  0.0040 -0.8262
   37CHL1   H14 2681   0.690   1.049   7.538 -1.5106 -0.7956 -0.0159
   37CHL1   C15 2682   0.850   0.982   7.665  0.8402 -0.3964  0.6969
   37CHL1  H15A 2683   0.911   0.891   7.682  1.1462  0.2232  3.0010
   37CHL1  H15B 2684   0.913   1.064   7.624 -0.7716 -0.0000 -1.0555
   37CHL1   C16 2685   0.773   1.023   7.789 -0.4796 -0.2767  0.3529
   37CHL1  H16A 2686   0.837   1.003   7.877 -0.5774 -1.4733  0.1576
   37CHL1  H16B 2687   0.759   1.132   7.771 -2.8782 -0.6356 -0.1858
   37CHL1   C17 2688   0.625   0.951   7.773  0.2608  0.8146  0.4758
   37CHL1   H17 2689   0.547   1.028   7.759 -0.4757  0.0813  0.5103
   37CHL1   C13 2690   0.641   0.869   7.645 -0.1330 -0.1378  0.3122
   37CHL1   C18 2691   0.698   0.728   7.675  0.8614 -0.5662  0.1789
   37CHL1  H18A 2692   0.620   0.662   7.720  0.4752  0.1203  0.5158
   37CHL1  H18B 2693   0.727   0.681   7.579  1.0413 -1.5128  0.6827
   37CHL1  H18C 2694   0.782   0.714   7.746  0.4666  0.5063  0.8780
   37CHL1   C12 2695   0.510   0.851   7.560  0.1042  0.7872  0.3953
   37CHL1  H12A 2696   0.434   0.791   7.616  2.4172 -0.4707  2.3158
   37CHL1  H12B 2697   0.470   0.954   7.550  0.4618  1.0546  1.5845
   37CHL1   C11 2698   0.545   0.787   7.421  1.1902 -0.6171  0.1332
   37CHL1  H11A 2699   0.577   0.683   7.444  0.2223 -1.0273 -0.3504
   37CHL1  H11B 2700   0.444   0.783   7.375 -0.0364  0.4599  2.6469
   37CHL1    C9 2701   0.661   0.854   7.344  0.4387 -0.3263 -0.7543
   37CHL1    H9 2702   0.619   0.952   7.313  0.0325  0.7386  3.0064
   37CHL1   C10 2703   0.709   0.789   7.211 -0.1066 -0.1695 -0.1935
   37CHL1   C19 2704   0.716   0.637   7.238 -0.3259 -0.1251 -0.0273
   37CHL1  H19A 2705   0.620   0.587   7.261 -0.0631 -0.9126 -0.6487
   37CHL1  H19B 2706   0.762   0.589   7.149  2.0092  1.1339  0.4531
   37CHL1  H19C 2707   0.777   0.609   7.327 -1.0444 -1.6866 -0.0188
   37CHL1    C1 2708   0.602   0.805   7.100 -0.0558 -0.4230 -0.1798
   37CHL1   H1A 2709   0.505   0.756   7.124 -0.5589  0.7444  0.1958
   37CHL1   H1B 2710   0.588   0.914   7.084  3.9630  0.1078 -0.4004
   37CHL1    C2 2711   0.639   0.745   6.956  0.1747 -0.1760  0.3930
   37CHL1   H2A 2712   0.569   0.778   6.876  0.7856 -1.6618 -0.7832
   37CHL1   H2B 2713   0.657   0.635   6.962  1.5652  0.0474  0.5635
   37CHL1   C20 2714   0.580   0.872   7.896  0.6158  0.4493  0.3151
   37CHL1   H20 2715   0.649   0.789   7.921 -0.7671 -0.7972  0.0863
   37CHL1   C21 2716   0.433   0.811   7.885  0.2572 -0.6738 -0.6450
   37CHL1  H21A 2717   0.426   0.719   7.824  1.2570 -1.6632  0.7080
   37CHL1  H21B 2718   0.370   0.895   7.847 -0.1479 -0.9727 -0.6325
   37CHL1  H21C 2719   0.401   0.787   7.989 -0.5072 -0.9824 -0.9504
   37CHL1   C22 2720   0.588   0.957   8.026 -0.1984  0.7784 -0.7678
   37CHL1  H22A 2721   0.677   1.023   8.026  0.0603  0.4686 -3.0461
   37CHL1  H22B 2722   0.491   1.012   8.027 -0.2413  0.7222  1.7826
   37CHL1   C23 2723   0.588   0.876   8.159  0.0020  0.6158 -0.3053
   37CHL1  H23A 2724   0.501   0.807   8.168 -0.1596  0.9078  0.4366
   37CHL1  H23B 2725   0.679   0.812   8.164  0.2289  0.9142 -0.6276
   37CHL1   C24 2726   0.585   0.971   8.287 -0.0866  0.0865 -0.0830
   37CHL1  H24A 2727   0.625   1.068   8.253  1.8779 -1.2883 -1.8260
   37CHL1  H24B 2728   0.480   0.976   8.323 -0.6792  0.3552 -1.7672
   37CHL1   C25 2729   0.685   0.928   8.399 -0.1206 -0.6380  0.0144
   37CHL1   H25 2730   0.686   0.819   8.383  0.8810 -0.4928 -0.9928
   37CHL1   C26 2731   0.823   0.972   8.368 -0.3779 -0.2145 -0.7801
   37CHL1  H26A 2732   0.828   1.083   8.361 -0.2107  0.0545  2.7823
   37CHL1  H26B 2733   0.885   0.933   8.451 -1.0344  0.6816  0.1362
   37CHL1  H26C 2734   0.858   0.929   8.271  0.0121 -1.6691 -0.0086
   37CHL1   C27 2735   0.636   0.968   8.546  0.0833 -1.0733  0.4520
   37CHL1  H27A 2736   0.527   0.954   8.561 -0.0022 -2.5389 -1.2318
   37CHL1  H27B 2737   0.695   0.908   8.619  0.6244 -0.4485  0.5337
   37CHL1  H27C 2738   0.653   1.076   8.561 -0.5645 -0.7129 -1.2548
   38CHL1    C3 2739   4.159   1.541   6.823  0.1794 -0.3004  0.4509
   38CHL1    H3 2740   4.248   1.595   6.785  1.1868 -2.3481 -0.1792
   38CHL1    O3 2741   4.071   1.533   6.714  0.4059  0.0191  0.0427
   38CHL1   H3' 2742   4.025   1.450   6.727 -1.6557  1.4413  2.1753
   38CHL1    C4 2743   4.205   1.396   6.862  0.5016 -0.4401 -0.0061
   38CHL1   H4A 2744   4.115   1.336   6.889 -1.0762  0.7615 -2.3835
   38CHL1   H4B 2745   4.266   1.352   6.781  0.8013  0.9820 -0.5509
   38CHL1    C5 2746   4.285   1.406   6.993 -1.0279 -0.2689 -0.0897
   38CHL1    C6 2747   4.410   1.352   6.992 -0.0068  0.4250 -0.2850
   38CHL1    H6 2748   4.446   1.312   6.896 -1.8531  1.8343 -1.6035
   38CHL1    C7 2749   4.491   1.345   7.118 -0.6869  0.2643  0.8279
   38CHL1   H7A 2750   4.532   1.243   7.132  0.5108  0.6764  0.3849
   38CHL1   H7B 2751   4.579   1.411   7.135 -0.8117  1.1968 -1.9767
   38CHL1    C8 2752   4.410   1.384   7.247 -0.7148  0.1799 -0.6817
   38CHL1    H8 2753   4.342   1.299   7.267 -1.9401  1.4674  0.6685
   38CHL1   C14 2754   4.517   1.404   7.356  0.2723 -0.1158  0.2691
   38CHL1   H14 2755   4.574   1.495   7.328  1.2712 -0.4761  1.0885
   38CHL1   C15 2756   4.624   1.296   7.383  0.3499  0.3988  0.0033
   38CHL1  H15A 2757   4.570   1.200   7.391  0.1041  0.4866 -0.5693
   38CHL1  H15B 2758   4.698   1.285   7.301  0.1219 -0.1507 -0.1310
   38CHL1   C16 2759   4.676   1.327   7.525 -0.2416  0.5186 -0.4106
   38CHL1  H16A 2760   4.680   1.234   7.586  1.5489 -0.4891 -2.0038
   38CHL1  H16B 2761   4.784   1.356   7.518  0.4274 -1.7721  0.0906
   38CHL1   C17 2762   4.582   1.434   7.586  0.4089  0.0809  0.2569
   38CHL1   H17 2763   4.638   1.529   7.574  0.3980  0.1443  0.7236
   38CHL1   C13 2764   4.457   1.434   7.493 -0.3041  0.2791 -0.2176
   38CHL1   C18 2765   4.370   1.315   7.545 -0.4267  0.7866 -0.3653
   38CHL1  H18A 2766   4.438   1.228   7.559 -0.7574  0.5215 -0.4197
   38CHL1  H18B 2767   4.325   1.341   7.643  1.9105  0.4282  0.8414
   38CHL1  H18C 2768   4.288   1.287   7.475  1.0292 -0.6012 -1.5555
   38CHL1   C12 2769   4.368   1.555   7.476 -0.7052  0.4057  0.4340
   38CHL1  H12A 2770   4.317   1.586   7.570 -1.8915 -0.6501  0.1578
   38CHL1  H12B 2771   4.434   1.639   7.447  0.3941 -1.0429 -1.3130
   38CHL1   C11 2772   4.265   1.544   7.363  0.1778  0.0867  0.0567
   38CHL1  H11A 2773   4.189   1.470   7.398 -0.4030  0.8226  0.3711
   38CHL1  H11B 2774   4.202   1.635   7.370 -0.3626 -0.3689  1.3123
   38CHL1    C9 2775   4.328   1.505   7.231 -0.2961 -0.0869 -0.6389
   38CHL1    H9 2776   4.398   1.584   7.196 -0.5269  0.8808  1.0107
   38CHL1   C10 2777   4.225   1.481   7.117 -0.0429 -0.4424  0.0583
   38CHL1   C19 2778   4.099   1.403   7.169  0.8508 -0.0541  0.3043
   38CHL1  H19A 2779   4.038   1.469   7.235 -1.8740  1.6264 -3.7267
   38CHL1  H19B 2780   4.039   1.367   7.083 -0.9785 -2.4339  2.4775
   38CHL1  H19C 2781   4.126   1.312   7.226 -0.3180  1.0672  2.7153
   38CHL1    C1 2782   4.190   1.626   7.063  0.8400  0.1191 -0.4851
   38CHL1   H1A 2783   4.147   1.673   7.154 -3.0851 -2.2392 -0.9814
   38CHL1   H1B 2784   4.278   1.683   7.028 -0.5434  1.4798 -1.8414
   38CHL1    C2 2785   4.091   1.618   6.946 -0.5366 -0.1304 -0.5661
   38CHL1   H2A 2786   4.068   1.719   6.905  1.4223  0.4365 -0.3431
   38CHL1   H2B 2787   4.013   1.546   6.975  0.8118 -1.5892 -0.5008
   38CHL1   C20 2788   4.558   1.424   7.738  0.0972  0.5963 -0.4783
   38CHL1   H20 2789   4.523   1.322   7.763 -0.4894  0.8936 -0.0782
   38CHL1   C21 2790   4.456   1.529   7.785  0.2124  0.1541 -0.4403
   38CHL1  H21A 2791   4.351   1.510   7.752 -1.3005  2.9003  2.4764
   38CHL1  H21B 2792   4.474   1.634   7.752 -1.2563  0.6198  0.1785
   38CHL1  H21C 2793   4.443   1.530   7.895  0.1879 -1.8159 -0.4120
   38CHL1   C22 2794   4.687   1.426   7.820  0.1101 -0.1920  1.0296
   38CHL1  H22A 2795   4.772   1.374   7.771 -1.6838 -2.3485  0.1484
   38CHL1  H22B 2796   4.724   1.530   7.835  0.1398 -0.3034  1.7473
   38CHL1   C23 2797   4.665   1.366   7.964 -0.9524 -0.6213  1.2018
   38CHL1  H23A 2798   4.596   1.427   8.027 -1.5546  0.8761 -0.8451
   38CHL1  H23B 2799   4.609   1.272   7.946 -2.1054  0.2677 -0.0005
   38CHL1   C24 2800   4.805   1.342   8.025 -0.2760 -0.1527 -0.2718
   38CHL1  H24A 2801   4.869   1.293   7.950  1.5029  1.9443 -0.1809
   38CHL1  H24B 2802   4.859   1.439   8.038  1.7692 -1.3012 -0.1193
   38CHL1   C25 2803   4.807   1.282   8.165  0.0327  0.4209  0.3654
   38CHL1   H25 2804   4.775   1.366   8.231  0.3864  1.3712 -0.6437
   38CHL1   C26 2805   4.711   1.164   8.177  0.2128 -0.8769  0.2090
   38CHL1  H26A 2806   4.749   1.093   8.100  3.3425 -0.8013  1.6281
   38CHL1  H26B 2807   4.728   1.127   8.280  1.0341 -0.7125  0.1323
   38CHL1  H26C 2808   4.606   1.186   8.150  1.1436  1.4713 -1.6547
   38CHL1   C27 2809   4.948   1.238   8.197  0.2113  0.8561  0.0285
   38CHL1  H27A 2810   4.963   1.231   8.307 -0.7293 -0.9363  0.0423
   38CHL1  H27B 2811   4.967   1.136   8.158  0.9565  1.2216 -0.5746
   38CHL1  H27C 2812   5.025   1.308   8.157  1.4691 -1.2739 -1.3903
   39CHL1    C3 2813   3.893   0.409   6.924  0.3350 -0.9330 -0.0150
   39CHL1    H3 2814   3.954   0.317   6.943  2.1124  0.2149 -0.0277
   39CHL1    O3 2815   3.890   0.420   6.780 -0.6939 -0.6547 -0.1250
   39CHL1   H3' 2816   3.831   0.496   6.775 -1.9472 -1.7170 -2.7649
   39CHL1    C4 2817   3.751   0.410   6.994  0.3759  0.6076 -0.4856
   39CHL1   H4A 2818   3.698   0.501   6.960  1.8833  0.8984 -2.1322
   39CHL1   H4B 2819   3.701   0.318   6.956  0.8273 -0.2781  1.0352
   39CHL1    C5 2820   3.749   0.410   7.137 -0.5035  0.9822 -0.0559
   39CHL1    C6 2821   3.669   0.320   7.201  0.0017 -0.0165 -0.1316
   39CHL1    H6 2822   3.625   0.243   7.137 -0.4363 -0.6180  0.8838
   39CHL1    C7 2823   3.660   0.317   7.352  0.3119 -0.0945 -0.4026
   39CHL1   H7A 2824   3.554   0.309   7.385  0.4509 -2.1186 -0.4149
   39CHL1   H7B 2825   3.711   0.225   7.386 -0.4092 -0.5980 -0.6702
   39CHL1    C8 2826   3.717   0.444   7.420 -0.4999 -0.3319 -0.2612
   39CHL1    H8 2827   3.648   0.530   7.414 -0.3196  0.0257  2.2323
   39CHL1   C14 2828   3.728   0.423   7.568  0.0033  0.5018  0.2301
   39CHL1   H14 2829   3.772   0.321   7.576 -1.4911 -0.1356  0.4207
   39CHL1   C15 2830   3.597   0.394   7.637 -0.2968  0.0779 -0.2999
   39CHL1  H15A 2831   3.519   0.472   7.624  1.1013  1.4912 -0.3484
   39CHL1  H15B 2832   3.540   0.310   7.593 -0.2921 -0.7335  1.2167
   39CHL1   C16 2833   3.634   0.392   7.790  0.5394  1.1657 -0.2875
   39CHL1  H16A 2834   3.568   0.450   7.859  1.0356  0.9829  0.3469
   39CHL1  H16B 2835   3.629   0.285   7.816  0.1283  1.8258  2.5672
   39CHL1   C17 2836   3.784   0.438   7.800  0.1063  0.2945  0.5905
   39CHL1   H17 2837   3.856   0.353   7.791 -0.4342  0.0588 -1.7274
   39CHL1   C13 2838   3.808   0.512   7.660 -0.5157 -0.2843 -0.0916
   39CHL1   C18 2839   3.742   0.651   7.655  0.6735  0.0867  0.0562
   39CHL1  H18A 2840   3.733   0.681   7.548 -0.3137 -0.3167  0.0201
   39CHL1  H18B 2841   3.644   0.653   7.706  0.5664  1.5809 -0.1932
   39CHL1  H18C 2842   3.806   0.725   7.708  1.8188 -0.9945  0.2180
   39CHL1   C12 2843   3.949   0.513   7.598  0.2299 -0.0193  0.1673
   39CHL1  H12A 2844   4.009   0.590   7.651  0.3514  0.5917 -0.8491
   39CHL1  H12B 2845   4.000   0.415   7.604  0.2552 -0.0063  0.1654
   39CHL1   C11 2846   3.947   0.556   7.448  0.2139 -0.1964 -0.0823
   39CHL1  H11A 2847   3.906   0.659   7.446 -0.7806 -0.5812  0.0343
   39CHL1  H11B 2848   4.045   0.541   7.399  0.2219  0.9919 -0.4403
   39CHL1    C9 2849   3.852   0.477   7.358  0.4291 -0.5325 -0.1476
   39CHL1    H9 2850   3.898   0.375   7.358  2.5730  0.4126  0.8215
   39CHL1   C10 2851   3.835   0.524   7.206  0.0326 -0.0816 -0.5040
   39CHL1   C19 2852   3.773   0.666   7.201  0.3300  0.3015 -0.8088
   39CHL1  H19A 2853   3.815   0.734   7.278 -0.4918  0.5900 -0.6087
   39CHL1  H19B 2854   3.798   0.720   7.107  0.0346 -1.8976 -2.1997
   39CHL1  H19C 2855   3.662   0.666   7.199  0.3188 -0.9095 -0.9561
   39CHL1    C1 2856   3.978   0.520   7.141 -0.3665  0.4194 -1.0913
   39CHL1   H1A 2857   4.030   0.610   7.180  1.6013 -0.4881 -1.5191
   39CHL1   H1B 2858   4.053   0.441   7.165  0.6979  1.5799 -0.5742
   39CHL1    C2 2859   3.980   0.529   6.985  0.0617 -0.0835  0.0131
   39CHL1   H2A 2860   4.084   0.517   6.947 -0.0331  0.6530 -0.4904
   39CHL1   H2B 2861   3.941   0.626   6.950 -0.3842 -0.5194 -0.6965
   39CHL1   C20 2862   3.827   0.515   7.929  0.4902 -0.3185 -0.0841
   39CHL1   H20 2863   3.746   0.589   7.940  0.4037 -0.6201  1.4247
   39CHL1   C21 2864   3.963   0.581   7.919  0.2073 -0.5285  0.3054
   39CHL1  H21A 2865   3.985   0.631   8.015 -0.9990 -0.0573  0.3409
   39CHL1  H21B 2866   3.962   0.662   7.843  0.1848 -0.3947  0.4492
   39CHL1  H21C 2867   4.048   0.517   7.885 -0.1969 -1.3931  0.9015
   39CHL1   C22 2868   3.813   0.418   8.051  0.2317 -0.5974  0.4118
   39CHL1  H22A 2869   3.719   0.361   8.038 -0.6347  0.0538  3.4812
   39CHL1  H22B 2870   3.899   0.348   8.053 -0.0344 -1.0557 -2.3078
   39CHL1   C23 2871   3.799   0.500   8.181 -1.1579  0.2131 -0.0723
   39CHL1  H23A 2872   3.886   0.569   8.191 -0.6818 -0.7311  2.8266
   39CHL1  H23B 2873   3.715   0.571   8.168  0.3152  1.7974 -1.2074
   39CHL1   C24 2874   3.797   0.421   8.312 -0.0452  0.3392  0.5549
   39CHL1  H24A 2875   3.692   0.388   8.326  0.0480  0.7718  2.3216
   39CHL1  H24B 2876   3.854   0.325   8.312  2.1229  1.5933  0.3558
   39CHL1   C25 2877   3.837   0.502   8.435 -0.0352 -0.2426 -0.9188
   39CHL1   H25 2878   3.775   0.594   8.436  0.9068  0.4030 -0.7183
   39CHL1   C26 2879   3.787   0.414   8.555  0.1576  0.1771  0.1869
   39CHL1  H26A 2880   3.676   0.412   8.555  0.1074  1.9797 -0.5272
   39CHL1  H26B 2881   3.821   0.310   8.534 -1.2222 -0.8248  2.6855
   39CHL1  H26C 2882   3.818   0.454   8.654  0.9803 -0.8119  0.3466
   39CHL1   C27 2883   3.987   0.528   8.443 -0.0562  0.4502 -0.7031
   39CHL1  H27A 2884   4.051   0.438   8.458 -2.2229 -0.8240  1.1609
   39CHL1  H27B 2885   4.025   0.564   8.345 -0.8499 -0.4972 -1.3581
   39CHL1  H27C 2886   4.011   0.608   8.517 -2.8245  3.2126 -2.6775
   40CHL1    C3 2887   6.781   6.182   6.816  0.0326  0.1505  0.2039
   40CHL1    H3 2888   6.781   6.293   6.815 -0.0520  0.1456 -1.2071
   40CHL1    O3 2889   6.809   6.131   6.686  0.0995 -0.8051 -0.7117
   40CHL1   H3' 2890   6.892   6.173   6.664  1.7486 -2.9207  1.2127
   40CHL1    C4 2891   6.892   6.139   6.916  0.6715 -0.1713  0.3845
   40CHL1   H4A 2892   6.911   6.030   6.915 -0.9809 -0.4824  1.0633
   40CHL1   H4B 2893   6.978   6.193   6.872  0.0398  0.5421  0.0159
   40CHL1    C5 2894   6.853   6.195   7.054 -0.5705 -0.1237  0.1487
   40CHL1    C6 2895   6.938   6.289   7.115 -0.1432  0.3277  0.3308
   40CHL1    H6 2896   7.031   6.318   7.064  0.2990 -0.7381  0.5237
   40CHL1    C7 2897   6.899   6.344   7.250 -0.0814 -0.4394 -0.2076
   40CHL1   H7A 2898   6.993   6.346   7.309 -0.5114 -0.5183  0.4952
   40CHL1   H7B 2899   6.864   6.449   7.237  0.6949 -0.0540  0.7415
   40CHL1    C8 2900   6.786   6.274   7.320 -0.2855 -0.1078 -0.2661
   40CHL1    H8 2901   6.826   6.193   7.385  0.5929  0.4475 -0.0890
   40CHL1   C14 2902   6.729   6.365   7.429 -0.5499  0.0864 -0.4310
   40CHL1   H14 2903   6.666   6.441   7.380  0.2301  0.6550 -0.5604
   40CHL1   C15 2904   6.818   6.443   7.521  0.1366  0.7029  0.5200
   40CHL1  H15A 2905   6.904   6.379   7.553  0.5327  2.1952  2.4969
   40CHL1  H15B 2906   6.853   6.539   7.479 -2.0939  1.1434 -0.3687
   40CHL1   C16 2907   6.727   6.482   7.645 -0.2974  0.1950 -0.3089
   40CHL1  H16A 2908   6.783   6.447   7.734 -1.3035  0.0150  0.2543
   40CHL1  H16B 2909   6.708   6.591   7.642 -0.0775  0.2338 -0.3288
   40CHL1   C17 2910   6.588   6.409   7.618  0.2741 -0.1657  0.2937
   40CHL1   H17 2911   6.524   6.483   7.566  0.2437 -1.2104 -1.2033
   40CHL1   C13 2912   6.624   6.296   7.526  0.4844  0.0516 -1.0372
   40CHL1   C18 2913   6.680   6.177   7.610 -0.1807 -0.0845  0.1568
   40CHL1  H18A 2914   6.766   6.208   7.673 -1.0060 -1.8178  2.2036
   40CHL1  H18B 2915   6.596   6.128   7.664  0.9729 -0.7558  1.3851
   40CHL1  H18C 2916   6.723   6.101   7.540  0.1973  1.7521 -1.6463
   40CHL1   C12 2917   6.513   6.242   7.435 -0.0343  0.0533 -0.5914
   40CHL1  H12A 2918   6.447   6.184   7.503  1.1764  0.2709  0.7847
   40CHL1  H12B 2919   6.452   6.324   7.393  1.0182  0.9683 -0.3468
   40CHL1   C11 2920   6.561   6.155   7.322  0.2930  0.2497  0.0697
   40CHL1  H11A 2921   6.610   6.065   7.366  0.0132  0.0425 -0.0377
   40CHL1  H11B 2922   6.472   6.125   7.263  0.2996 -0.9352  0.6356
   40CHL1    C9 2923   6.667   6.225   7.236 -0.6452  0.0844  0.3360
   40CHL1    H9 2924   6.630   6.320   7.192  0.2013 -0.0867 -0.7651
   40CHL1   C10 2925   6.711   6.149   7.109 -0.0405 -0.0447 -0.8699
   40CHL1   C19 2926   6.708   5.990   7.141 -0.9100  0.4112  0.1165
   40CHL1  H19A 2927   6.760   5.940   7.056  0.9557  3.4474 -0.6058
   40CHL1  H19B 2928   6.761   5.961   7.235  0.1994 -1.8822 -1.1681
   40CHL1  H19C 2929   6.606   5.949   7.151  0.1486 -2.4694 -0.3632
   40CHL1    C1 2930   6.606   6.179   7.001 -0.5414 -0.2578 -0.7428
   40CHL1   H1A 2931   6.507   6.143   7.036  0.6458 -1.7067  1.1841
   40CHL1   H1B 2932   6.600   6.290   6.990  0.2766  0.0033  1.3079
   40CHL1    C2 2933   6.645   6.136   6.859  0.1087 -0.5598 -0.9642
   40CHL1   H2A 2934   6.567   6.158   6.783 -1.1254 -0.9543  0.1728
   40CHL1   H2B 2935   6.641   6.028   6.883 -1.4170 -0.1621  0.7347
   40CHL1   C20 2936   6.516   6.372   7.750  0.0119  0.4019  0.2652
   40CHL1   H20 2937   6.563   6.289   7.807  0.3503 -1.4087 -2.5281
   40CHL1   C21 2938   6.373   6.333   7.711 -0.3211 -0.7583 -0.0155
   40CHL1  H21A 2939   6.332   6.384   7.621  0.3489  1.2327  0.7813
   40CHL1  H21B 2940   6.305   6.353   7.796  1.7302  0.8643  1.2667
   40CHL1  H21C 2941   6.371   6.222   7.696  1.7571 -0.7318 -0.5968
   40CHL1   C22 2942   6.509   6.488   7.851 -0.0872 -0.5168 -0.3322
   40CHL1  H22A 2943   6.615   6.513   7.872 -0.9651  0.4774  3.1838
   40CHL1  H22B 2944   6.470   6.577   7.797  1.0327 -1.0520 -2.0622
   40CHL1   C23 2945   6.451   6.462   7.997  0.2318 -0.9549  0.0183
   40CHL1  H23A 2946   6.343   6.441   7.987 -0.2312  1.5974 -0.7709
   40CHL1  H23B 2947   6.504   6.368   8.024 -1.3152 -0.8128  3.7114
   40CHL1   C24 2948   6.467   6.578   8.090  0.9714  0.3164 -0.3021
   40CHL1  H24A 2949   6.572   6.614   8.080  0.6169  1.3495 -0.3269
   40CHL1  H24B 2950   6.386   6.650   8.066 -0.0077  0.1332  2.2903
   40CHL1   C25 2951   6.440   6.548   8.245 -0.6863 -0.4793 -0.8142
   40CHL1   H25 2952   6.463   6.440   8.260  0.0889 -0.3147 -0.8033
   40CHL1   C26 2953   6.539   6.623   8.330  0.8344 -0.4313  0.2918
   40CHL1  H26A 2954   6.538   6.733   8.310  3.1959 -0.0679  1.9932
   40CHL1  H26B 2955   6.528   6.605   8.439 -0.6737 -2.0964 -0.1120
   40CHL1  H26C 2956   6.641   6.588   8.306  1.7455  1.1108  1.7788
   40CHL1   C27 2957   6.302   6.567   8.281  0.6251 -0.2970  0.7104
   40CHL1  H27A 2958   6.228   6.574   8.198 -0.3576 -0.0301  1.5928
   40CHL1  H27B 2959   6.259   6.484   8.340 -1.0486  0.6983  0.9237
   40CHL1  H27C 2960   6.282   6.660   8.338  1.6797  0.7306 -0.5346
   41CHL1    C3 2961   0.922   6.432   6.953 -0.1891  0.2370  0.2734
   41CHL1    H3 2962   1.008   6.477   7.007 -0.0784 -2.9086  2.8731
   41CHL1    O3 2963   0.959   6.397   6.821  0.4029  0.2588 -0.9642
   41CHL1   H3' 2964   0.885   6.355   6.777 -1.1452  1.7691  0.1140
   41CHL1    C4 2965   0.873   6.303   7.023 -0.4322  0.1285  0.3132
   41CHL1   H4A 2966   0.788   6.264   6.964 -0.4102  0.9569 -0.2688
   41CHL1   H4B 2967   0.946   6.219   7.024  0.3391  0.7925  0.3682
   41CHL1    C5 2968   0.824   6.334   7.164  0.0658 -0.3927  0.2641
   41CHL1    C6 2969   0.867   6.267   7.272  0.3204  0.1662 -0.1885
   41CHL1    H6 2970   0.935   6.181   7.265 -1.5833 -1.2881 -1.5813
   41CHL1    C7 2971   0.813   6.296   7.405 -0.1627 -0.8247  0.3894
   41CHL1   H7A 2972   0.792   6.198   7.451 -1.6181 -0.5296  0.3745
   41CHL1   H7B 2973   0.884   6.350   7.471 -1.2826  2.0174 -0.6207
   41CHL1    C8 2974   0.669   6.365   7.415 -0.1350  0.1666 -0.1716
   41CHL1    H8 2975   0.587   6.293   7.391 -0.2092  0.5350 -1.0740
   41CHL1   C14 2976   0.663   6.425   7.553 -0.7278  0.5244  0.0154
   41CHL1   H14 2977   0.756   6.486   7.557 -0.6574  0.4158  0.0373
   41CHL1   C15 2978   0.662   6.335   7.677 -0.3721 -0.6108  0.3769
   41CHL1  H15A 2979   0.577   6.264   7.673 -1.9495  1.1765  1.3067
   41CHL1  H15B 2980   0.758   6.279   7.687  0.5421  0.9172  0.3549
   41CHL1   C16 2981   0.636   6.430   7.792  0.0193  0.4632  0.7740
   41CHL1  H16A 2982   0.556   6.385   7.855  0.0496  0.2864  0.6871
   41CHL1  H16B 2983   0.724   6.468   7.849  0.0950  2.0400 -0.3644
   41CHL1   C17 2984   0.570   6.558   7.728 -0.4000 -0.1740 -0.8404
   41CHL1   H17 2985   0.645   6.640   7.726  1.5810 -1.9222 -0.1251
   41CHL1   C13 2986   0.546   6.527   7.577 -0.0525  0.1692  0.3492
   41CHL1   C18 2987   0.403   6.459   7.555 -0.5103 -0.3149 -0.0383
   41CHL1  H18A 2988   0.414   6.381   7.477  1.2243 -0.8379  0.6943
   41CHL1  H18B 2989   0.374   6.400   7.645  0.1785  1.1607  1.1820
   41CHL1  H18C 2990   0.322   6.527   7.521 -1.1470 -1.5186 -0.9749
   41CHL1   C12 2991   0.566   6.643   7.475 -0.5315  0.9192  0.1307
   41CHL1  H12A 2992   0.480   6.710   7.495  1.0837  3.5227 -1.3572
   41CHL1  H12B 2993   0.667   6.689   7.486 -0.1839  0.3191 -0.4728
   41CHL1   C11 2994   0.556   6.586   7.330 -0.5390  0.2669  0.5124
   41CHL1  H11A 2995   0.455   6.548   7.307 -0.6632  1.0026 -0.1861
   41CHL1  H11B 2996   0.577   6.671   7.261 -0.8558  0.1819  0.3124
   41CHL1    C9 2997   0.669   6.480   7.305 -0.3191 -1.2411 -0.0194
   41CHL1    H9 2998   0.753   6.547   7.331 -1.6887  0.3885  0.2594
   41CHL1   C10 2999   0.705   6.438   7.158 -0.4094  0.3823  0.6682
   41CHL1   C19 3000   0.582   6.370   7.097 -0.1686  0.8306  0.1380
   41CHL1  H19A 3001   0.497   6.441   7.087 -1.1265 -0.1785  0.9615
   41CHL1  H19B 3002   0.605   6.340   6.992 -2.1572 -1.6698  0.3601
   41CHL1  H19C 3003   0.544   6.289   7.163 -1.4346 -0.2074 -1.8369
   41CHL1    C1 3004   0.741   6.563   7.076 -0.4018  0.0610  0.4108
   41CHL1   H1A 3005   0.642   6.613   7.075 -0.1587  0.5457  0.2272
   41CHL1   H1B 3006   0.807   6.623   7.142 -0.5141  0.0427  0.5403
   41CHL1    C2 3007   0.810   6.532   6.943 -0.6686 -0.4884 -0.4595
   41CHL1   H2A 3008   0.841   6.623   6.887 -1.2813  0.8453  1.3010
   41CHL1   H2B 3009   0.732   6.492   6.875 -1.7602 -0.9265  1.0285
   41CHL1   C20 3010   0.451   6.611   7.814 -0.0082  0.0799  0.0843
   41CHL1   H20 3011   0.379   6.532   7.843 -1.4626  1.0320 -0.8387
   41CHL1   C21 3012   0.380   6.737   7.754 -0.2277 -0.0300 -0.0462
   41CHL1  H21A 3013   0.303   6.785   7.818 -2.2173 -0.1406 -2.2915
   41CHL1  H21B 3014   0.347   6.719   7.649 -1.6779 -0.5323  0.4842
   41CHL1  H21C 3015   0.459   6.812   7.734 -0.6369  1.3549  3.1664
   41CHL1   C22 3016   0.511   6.664   7.948  0.2551 -0.3497  0.2601
   41CHL1  H22A 3017   0.585   6.586   7.976  2.1013  1.9671  2.0937
   41CHL1  H22B 3018   0.566   6.758   7.925 -1.1376  0.3132 -0.4315
   41CHL1   C23 3019   0.408   6.680   8.071  0.0698  0.1669 -0.0687
   41CHL1  H23A 3020   0.321   6.741   8.039  1.2329  0.7025 -2.3471
   41CHL1  H23B 3021   0.363   6.582   8.095  0.8616 -0.6836 -1.9614
   41CHL1   C24 3022   0.470   6.756   8.192  0.3971  0.3877  0.4010
   41CHL1  H24A 3023   0.553   6.689   8.224  0.3949 -0.0763 -0.5308
   41CHL1  H24B 3024   0.510   6.851   8.151  0.2782 -0.0076 -0.6352
   41CHL1   C25 3025   0.368   6.777   8.298  0.5357 -0.3545  0.0761
   41CHL1   H25 3026   0.271   6.786   8.246  0.5098 -2.8580 -0.3788
   41CHL1   C26 3027   0.352   6.650   8.385  1.0815 -0.7291 -0.1858
   41CHL1  H26A 3028   0.450   6.602   8.405  1.6218  0.3727 -0.2054
   41CHL1  H26B 3029   0.303   6.685   8.478 -1.6803  2.7800 -2.8060
   41CHL1  H26C 3030   0.292   6.576   8.327  1.0672 -1.7636  1.1136
   41CHL1   C27 3031   0.394   6.901   8.382 -0.5841 -0.3736 -0.8774
   41CHL1  H27A 3032   0.324   6.917   8.467  0.2020 -3.2077  0.3311
   41CHL1  H27B 3033   0.496   6.916   8.422 -1.5727  1.6763  1.0139
   41CHL1  H27C 3034   0.377   6.990   8.316  0.3171 -0.8284 -1.7384
   42CHL1    C3 3035   1.263   3.326   7.181  0.0555  0.1147 -0.1646
   42CHL1    H3 3036   1.154   3.303   7.185 -0.0795  0.4869 -1.3604
   42CHL1    O3 3037   1.288   3.342   7.042  0.1809  0.0390  0.3846
   42CHL1   H3' 3038   1.360   3.404   7.032 -0.0350  0.3947  1.0083
   42CHL1    C4 3039   1.322   3.445   7.252  0.0136 -0.2109 -0.7380
   42CHL1   H4A 3040   1.429   3.451   7.223  0.1888 -0.5727 -0.1712
   42CHL1   H4B 3041   1.273   3.538   7.216 -1.9123 -0.9085  0.0119
   42CHL1    C5 3042   1.318   3.441   7.402 -0.3739 -0.0913  0.4516
   42CHL1    C6 3043   1.252   3.536   7.473 -0.1501  0.3038 -0.1293
   42CHL1    H6 3044   1.202   3.616   7.419 -0.8863  0.2973  0.5371
   42CHL1    C7 3045   1.268   3.535   7.629 -0.4266 -0.5547 -0.2968
   42CHL1   H7A 3046   1.255   3.633   7.680 -0.4805 -1.5093  1.5749
   42CHL1   H7B 3047   1.171   3.498   7.667 -0.5407  1.7592  1.8458
   42CHL1    C8 3048   1.388   3.449   7.677  0.0102 -0.4442 -0.4824
   42CHL1    H8 3049   1.480   3.509   7.658  0.6066 -1.1444  0.1660
   42CHL1   C14 3050   1.370   3.433   7.827  0.1403  0.2037  0.0156
   42CHL1   H14 3051   1.272   3.383   7.838 -1.1061  2.1144 -1.9408
   42CHL1   C15 3052   1.355   3.560   7.917 -0.1293 -0.3289 -0.5981
   42CHL1  H15A 3053   1.426   3.641   7.890 -0.1272 -0.1836 -0.1663
   42CHL1  H15B 3054   1.252   3.594   7.895  0.5085  0.7930 -1.9223
   42CHL1   C16 3055   1.394   3.507   8.053 -1.0661 -0.5248  0.2880
   42CHL1  H16A 3056   1.481   3.563   8.094 -0.5489 -1.3584  0.3428
   42CHL1  H16B 3057   1.313   3.527   8.127 -1.2779 -0.6827  0.0998
   42CHL1   C17 3058   1.429   3.358   8.041  0.0978  0.9453 -0.0006
   42CHL1   H17 3059   1.334   3.302   8.054  1.1413 -1.1993 -1.3247
   42CHL1   C13 3060   1.473   3.346   7.899 -0.2753  0.7093  0.6324
   42CHL1   C18 3061   1.620   3.392   7.869 -0.4316 -0.5768  0.1342
   42CHL1  H18A 3062   1.637   3.498   7.897 -2.2526 -0.0931 -0.5386
   42CHL1  H18B 3063   1.699   3.321   7.902  1.3824  1.3735  0.1136
   42CHL1  H18C 3064   1.644   3.393   7.760  0.9428  0.3258  0.4275
   42CHL1   C12 3065   1.456   3.207   7.835  0.3947  0.2354  0.5427
   42CHL1  H12A 3066   1.534   3.138   7.873  0.1418 -0.6999 -0.6240
   42CHL1  H12B 3067   1.356   3.166   7.861  0.9040 -1.4813 -0.1869
   42CHL1   C11 3068   1.473   3.211   7.681  0.5021  0.4355 -0.2916
   42CHL1  H11A 3069   1.576   3.242   7.656 -0.3461  1.2459 -2.9235
   42CHL1  H11B 3070   1.452   3.108   7.644  0.3754  0.2690  0.2353
   42CHL1    C9 3071   1.387   3.316   7.604 -0.0179  0.6915 -0.2946
   42CHL1    H9 3072   1.283   3.278   7.611 -0.4046  1.9806  1.3326
   42CHL1   C10 3073   1.409   3.323   7.451 -0.0477  0.2687  0.3980
   42CHL1   C19 3074   1.559   3.357   7.414 -0.3875 -0.6480  0.8393
   42CHL1  H19A 3075   1.571   3.343   7.305  1.2907  0.1747  0.8994
   42CHL1  H19B 3076   1.588   3.457   7.454 -2.6714 -0.0966  1.1957
   42CHL1  H19C 3077   1.623   3.272   7.447  2.5755  0.9635 -0.5476
   42CHL1    C1 3078   1.359   3.191   7.377  0.1576  0.5126  0.0767
   42CHL1   H1A 3079   1.432   3.111   7.400 -1.0528 -0.6717 -0.1561
   42CHL1   H1B 3080   1.258   3.162   7.411 -0.3739  1.7640 -0.3902
   42CHL1    C2 3081   1.347   3.204   7.220 -0.6901  0.2398 -0.1107
   42CHL1   H2A 3082   1.291   3.115   7.186  0.4546 -0.8283  0.7359
   42CHL1   H2B 3083   1.447   3.205   7.171 -0.8426  1.1771 -0.4157
   42CHL1   C20 3084   1.532   3.307   8.157  0.6914  0.2609  0.4070
   42CHL1   H20 3085   1.636   3.342   8.139  0.7580  0.8903  1.9517
   42CHL1   C21 3086   1.518   3.145   8.164 -0.3534  0.7209  0.6549
   42CHL1  H21A 3087   1.558   3.107   8.261 -1.2037 -1.5343  0.1379
   42CHL1  H21B 3088   1.569   3.089   8.083  1.6093  2.7072  0.4634
   42CHL1  H21C 3089   1.413   3.112   8.150  0.0713  0.2229 -1.5556
   42CHL1   C22 3090   1.497   3.370   8.298  0.2320  0.0953 -0.4517
   42CHL1  H22A 3091   1.511   3.479   8.309  1.0584 -0.1457  0.9234
   42CHL1  H22B 3092   1.389   3.350   8.315  0.3821  0.1696  0.6319
   42CHL1   C23 3093   1.570   3.307   8.417 -0.2219  0.4357  0.1076
   42CHL1  H23A 3094   1.530   3.205   8.437  1.0963  0.1360  1.3083
   42CHL1  H23B 3095   1.678   3.303   8.391 -0.3937 -3.1361 -0.3068
   42CHL1   C24 3096   1.559   3.383   8.552  0.0670 -0.0717  0.6419
   42CHL1  H24A 3097   1.620   3.475   8.551 -1.0631  0.8091  4.6407
   42CHL1  H24B 3098   1.451   3.409   8.555  0.5449  2.2943 -1.4549
   42CHL1   C25 3099   1.603   3.294   8.666 -0.2500  0.0408 -0.8769
   42CHL1   H25 3100   1.546   3.199   8.661  0.3771 -0.3919 -0.0149
   42CHL1   C26 3101   1.749   3.241   8.649 -0.2937 -0.4956  0.2314
   42CHL1  H26A 3102   1.830   3.316   8.640  1.4123 -2.5469 -2.2196
   42CHL1  H26B 3103   1.771   3.169   8.731 -2.8659 -2.0470 -0.3882
   42CHL1  H26C 3104   1.755   3.186   8.553 -1.8987  0.5272 -0.4793
   42CHL1   C27 3105   1.589   3.363   8.803 -0.0814 -0.1366 -0.4836
   42CHL1  H27A 3106   1.484   3.392   8.828  0.4352  0.4139  1.1024
   42CHL1  H27B 3107   1.644   3.459   8.807  1.6825 -1.0906 -1.2771
   42CHL1  H27C 3108   1.636   3.301   8.882  2.8528 -1.1202 -2.9232
   43CHL1    C3 3109   1.405   0.602   6.936  0.0511 -1.0277  0.3852
   43CHL1    H3 3110   1.507   0.636   6.965 -0.3958 -0.0426  0.8367
   43CHL1    O3 3111   1.393   0.571   6.798  0.1821  0.1343 -0.2927
   43CHL1   H3' 3112   1.477   0.526   6.788  0.0627  0.0159 -0.7501
   43CHL1    C4 3113   1.378   0.471   7.018 -0.4068  0.0066 -0.7788
   43CHL1   H4A 3114   1.274   0.447   6.987 -0.9808  2.1461 -0.5959
   43CHL1   H4B 3115   1.451   0.397   6.979  0.7456  1.0103 -0.5585
   43CHL1    C5 3116   1.378   0.509   7.167  0.0933  0.3409  0.0799
   43CHL1    C6 3117   1.471   0.450   7.247 -0.3368 -0.2280 -0.0253
   43CHL1    H6 3118   1.545   0.380   7.208  1.7552  1.8713  0.0767
   43CHL1    C7 3119   1.474   0.470   7.394 -0.5282  0.4621  0.0042
   43CHL1   H7A 3120   1.488   0.377   7.454  1.4919  0.0449 -1.0867
   43CHL1   H7B 3121   1.562   0.534   7.412  1.0001 -1.8889  1.0659
   43CHL1    C8 3122   1.348   0.544   7.449 -0.6114 -0.6853  0.1450
   43CHL1    H8 3123   1.266   0.469   7.449 -1.5235  0.1905  4.4254
   43CHL1   C14 3124   1.381   0.599   7.585  0.2170 -0.2694  0.0688
   43CHL1   H14 3125   1.457   0.680   7.585 -0.9856  0.9376  2.4552
   43CHL1   C15 3126   1.436   0.498   7.691  0.1516 -0.8613 -0.0080
   43CHL1  H15A 3127   1.395   0.396   7.673  0.3925 -0.5419 -2.4921
   43CHL1  H15B 3128   1.547   0.487   7.692  0.2259 -0.2864 -1.0587
   43CHL1   C16 3129   1.403   0.563   7.828 -0.2952 -0.2614  0.5649
   43CHL1  H16A 3130   1.347   0.492   7.893  0.8723 -2.0859 -0.3863
   43CHL1  H16B 3131   1.494   0.600   7.879 -0.0397 -2.1177  1.4814
   43CHL1   C17 3132   1.314   0.691   7.797  0.0836  0.4845  0.3273
   43CHL1   H17 3133   1.386   0.776   7.797  0.0072  0.5508 -0.3599
   43CHL1   C13 3134   1.260   0.674   7.656  0.0913  0.0491 -0.4234
   43CHL1   C18 3135   1.140   0.579   7.646  0.2276  0.6612  0.5720
   43CHL1  H18A 3136   1.112   0.554   7.542  1.7464  2.6917 -0.3629
   43CHL1  H18B 3137   1.157   0.484   7.700 -0.9874  1.2399  2.0368
   43CHL1  H18C 3138   1.050   0.623   7.696 -1.1101 -0.9040 -0.4060
   43CHL1   C12 3139   1.229   0.804   7.575 -0.0009 -0.3285 -0.3896
   43CHL1  H12A 3140   1.137   0.856   7.608 -0.1730  0.3239 -1.8749
   43CHL1  H12B 3141   1.318   0.868   7.592 -0.0207 -0.6958  1.2282
   43CHL1   C11 3142   1.199   0.757   7.430 -1.1140  0.2031  0.2313
   43CHL1  H11A 3143   1.094   0.720   7.419 -1.2580  0.3478  1.0990
   43CHL1  H11B 3144   1.204   0.851   7.370  0.2821  0.8338  1.3073
   43CHL1    C9 3145   1.302   0.659   7.354  0.2900  0.1379  0.6481
   43CHL1    H9 3146   1.393   0.720   7.337 -0.3310  1.2225  1.1278
   43CHL1   C10 3147   1.268   0.619   7.210  0.3711  0.2969 -0.9628
   43CHL1   C19 3148   1.121   0.566   7.195  0.1410  0.0347  0.2804
   43CHL1  H19A 3149   1.046   0.648   7.193 -0.3366 -0.3880  0.7429
   43CHL1  H19B 3150   1.091   0.497   7.113 -0.1276  0.8051 -0.2862
   43CHL1  H19C 3151   1.096   0.520   7.292  0.8570 -1.3556 -0.1844
   43CHL1    C1 3152   1.273   0.741   7.113 -0.1647 -0.0680  0.1154
   43CHL1   H1A 3153   1.188   0.811   7.119 -0.4975 -0.3007 -1.7851
   43CHL1   H1B 3154   1.365   0.798   7.138 -0.9166  1.6100 -0.8557
   43CHL1    C2 3155   1.291   0.713   6.963  0.6859 -0.0077 -0.2384
   43CHL1   H2A 3156   1.312   0.813   6.919 -0.0017  0.8266  1.2831
   43CHL1   H2B 3157   1.188   0.682   6.936  0.6538  0.9743 -1.2683
   43CHL1   C20 3158   1.220   0.721   7.918  0.1900  0.1719 -0.2642
   43CHL1   H20 3159   1.157   0.630   7.931  1.1931 -0.7273 -1.5542
   43CHL1   C21 3160   1.128   0.838   7.895  0.0179 -0.0110  0.6299
   43CHL1  H21A 3161   1.057   0.845   7.980 -0.5115 -1.6169  0.3346
   43CHL1  H21B 3162   1.061   0.814   7.810  0.7032  3.1547 -0.9052
   43CHL1  H21C 3163   1.169   0.940   7.881  0.6502 -0.3934 -0.3579
   43CHL1   C22 3164   1.304   0.737   8.050  0.6083 -0.8462  0.0280
   43CHL1  H22A 3165   1.380   0.658   8.063 -0.9333 -2.4945 -0.8526
   43CHL1  H22B 3166   1.356   0.835   8.036  0.3519 -0.8737 -1.1321
   43CHL1   C23 3167   1.208   0.730   8.181 -0.5384 -0.2493  0.0610
   43CHL1  H23A 3168   1.133   0.811   8.186  0.4618  0.8633 -2.2408
   43CHL1  H23B 3169   1.159   0.631   8.184 -0.4439 -0.4249 -2.8271
   43CHL1   C24 3170   1.296   0.744   8.313 -0.1146 -0.8825 -0.8248
   43CHL1  H24A 3171   1.346   0.646   8.321 -0.4697 -0.9795  0.2254
   43CHL1  H24B 3172   1.370   0.827   8.314 -0.2612 -0.7459 -1.0603
   43CHL1   C25 3173   1.202   0.769   8.441  0.6384 -0.0641 -0.0299
   43CHL1   H25 3174   1.161   0.867   8.409 -0.3080 -0.6355 -0.5624
   43CHL1   C26 3175   1.105   0.654   8.469 -0.3425 -0.1746 -0.1906
   43CHL1  H26A 3176   1.016   0.666   8.405 -0.4313 -2.8355 -0.6271
   43CHL1  H26B 3177   1.156   0.559   8.445  2.3015  1.4531 -1.2113
   43CHL1  H26C 3178   1.077   0.662   8.577  1.2671  1.4434  0.1490
   43CHL1   C27 3179   1.286   0.797   8.569 -0.0380 -0.0264 -0.2669
   43CHL1  H27A 3180   1.217   0.820   8.653  0.7546 -0.6382  0.5629
   43CHL1  H27B 3181   1.361   0.722   8.602 -1.1101 -1.7531 -1.6381
   43CHL1  H27C 3182   1.348   0.888   8.551 -0.6704  0.3358 -0.6294
   44CHL1    C3 3183   1.654   6.130   6.801  0.6797  0.2429 -0.9239
   44CHL1    H3 3184   1.688   6.232   6.830  1.0269 -0.4745  1.3396
   44CHL1    O3 3185   1.691   6.110   6.670 -0.1580 -0.1456 -0.1207
   44CHL1   H3' 3186   1.611   6.129   6.620 -0.3546 -1.2658 -0.2491
   44CHL1    C4 3187   1.719   6.018   6.882  0.2030 -0.3567 -1.0271
   44CHL1   H4A 3188   1.690   5.926   6.828  1.7848 -1.7819  0.4476
   44CHL1   H4B 3189   1.830   6.019   6.883  0.2413 -1.3411 -2.6849
   44CHL1    C5 3190   1.664   6.011   7.029  0.2331 -0.5751  0.1431
   44CHL1    C6 3191   1.753   6.007   7.130  0.3891  0.0170 -0.3348
   44CHL1    H6 3192   1.862   6.010   7.119  0.5105 -1.5250  0.3141
   44CHL1    C7 3193   1.707   5.999   7.279  0.2782 -0.0086 -0.8771
   44CHL1   H7A 3194   1.761   5.924   7.341  0.6069  0.9784  0.0359
   44CHL1   H7B 3195   1.720   6.101   7.321  1.1408 -0.4281 -0.1212
   44CHL1    C8 3196   1.552   5.961   7.291  0.0894 -0.0590 -0.0001
   44CHL1    H8 3197   1.548   5.854   7.263  1.2493  0.0246 -0.5355
   44CHL1   C14 3198   1.500   5.974   7.430 -0.0817  0.2731 -0.2782
   44CHL1   H14 3199   1.500   6.083   7.449 -3.5120  0.3307 -0.1410
   44CHL1   C15 3200   1.572   5.897   7.529  0.3699 -0.6234  0.0168
   44CHL1  H15A 3201   1.610   5.799   7.495  1.1500  0.0764 -1.1581
   44CHL1  H15B 3202   1.668   5.949   7.552  0.2003  0.0469 -0.7609
   44CHL1   C16 3203   1.474   5.878   7.652  0.0233 -0.0270  0.2477
   44CHL1  H16A 3204   1.466   5.768   7.666 -2.5429  0.1689  0.4783
   44CHL1  H16B 3205   1.517   5.932   7.739 -0.2315  0.0087  0.3499
   44CHL1   C17 3206   1.343   5.938   7.611 -0.0070 -0.4593 -0.2625
   44CHL1   H17 3207   1.345   6.045   7.640  0.0866 -0.6786  0.5550
   44CHL1   C13 3208   1.353   5.937   7.450  0.1094 -0.1917 -0.3229
   44CHL1   C18 3209   1.333   5.791   7.403 -0.0832  0.5014 -0.4856
   44CHL1  H18A 3210   1.349   5.775   7.295  0.2453  1.2956 -0.5600
   44CHL1  H18B 3211   1.390   5.716   7.462 -1.1024  0.6764  0.7419
   44CHL1  H18C 3212   1.227   5.762   7.418 -0.0783  1.5112  1.7036
   44CHL1   C12 3213   1.269   6.036   7.373 -0.6404  0.4845  0.0260
   44CHL1  H12A 3214   1.160   6.016   7.365 -1.1159  3.3782 -1.1647
   44CHL1  H12B 3215   1.272   6.140   7.411 -0.0561  1.4651 -2.6532
   44CHL1   C11 3216   1.309   6.032   7.221 -0.0618  0.6387  0.2530
   44CHL1  H11A 3217   1.246   5.952   7.176  1.9218 -0.4437 -0.6535
   44CHL1  H11B 3218   1.258   6.126   7.193  0.7910  0.8772 -0.5128
   44CHL1    C9 3219   1.463   6.037   7.184 -0.1362 -0.3588 -0.9347
   44CHL1    H9 3220   1.485   6.145   7.198  0.1670 -0.2131 -2.3985
   44CHL1   C10 3221   1.508   6.010   7.045  0.0275  0.3423 -0.3782
   44CHL1   C19 3222   1.440   5.879   7.010 -0.3015  0.8788 -0.5129
   44CHL1  H19A 3223   1.460   5.802   7.088 -0.4245  0.9476 -0.4127
   44CHL1  H19B 3224   1.331   5.894   6.999 -0.3305  0.1827 -1.2589
   44CHL1  H19C 3225   1.483   5.836   6.918 -0.8044  1.4681 -1.0229
   44CHL1    C1 3226   1.459   6.134   6.959 -0.4711 -0.5733 -0.5961
   44CHL1   H1A 3227   1.351   6.151   6.978  0.1410  1.5653  1.2280
   44CHL1   H1B 3228   1.515   6.219   7.004 -0.3527 -0.7124 -0.4806
   44CHL1    C2 3229   1.500   6.134   6.813 -0.4614  0.1783  0.1221
   44CHL1   H2A 3230   1.460   6.216   6.749 -0.7895 -0.0624  0.0149
   44CHL1   H2B 3231   1.463   6.040   6.768  0.2201  0.7479 -1.7100
   44CHL1   C20 3232   1.227   5.873   7.683 -0.0261  0.1096 -0.6675
   44CHL1   H20 3233   1.209   5.770   7.646  1.0409  0.3505 -1.8899
   44CHL1   C21 3234   1.094   5.947   7.652  0.0674  0.1902 -0.9489
   44CHL1  H21A 3235   1.015   5.906   7.718  2.6266 -2.8163  0.4154
   44CHL1  H21B 3236   1.066   5.938   7.545 -1.9942  3.5161 -0.7291
   44CHL1  H21C 3237   1.108   6.052   7.684 -0.3965 -0.2271  0.6309
   44CHL1   C22 3238   1.236   5.865   7.837 -0.1224  0.4295 -0.4521
   44CHL1  H22A 3239   1.143   5.812   7.868  0.4332 -2.0153 -2.7359
   44CHL1  H22B 3240   1.316   5.791   7.861 -0.4927  0.5875  1.3059
   44CHL1   C23 3241   1.265   5.991   7.920  0.1586  0.2073 -0.1726
   44CHL1  H23A 3242   1.338   6.057   7.868 -0.8547  0.6124 -1.1091
   44CHL1  H23B 3243   1.172   6.051   7.913  0.3618  0.5674  0.2087
   44CHL1   C24 3244   1.281   5.969   8.071 -0.1727 -0.9979  0.0440
   44CHL1  H24A 3245   1.196   5.901   8.095 -0.2447 -0.6719  0.7434
   44CHL1  H24B 3246   1.381   5.921   8.085  0.1740 -0.6528 -1.2343
   44CHL1   C25 3247   1.274   6.096   8.158 -0.0017 -0.2714 -0.0778
   44CHL1   H25 3248   1.360   6.156   8.120  0.5300 -1.8701 -1.4606
   44CHL1   C26 3249   1.133   6.170   8.145 -0.0481  0.0573 -0.0849
   44CHL1  H26A 3250   1.111   6.215   8.046  0.1823 -0.4113 -0.3510
   44CHL1  H26B 3251   1.058   6.093   8.175 -0.8256  0.7543 -0.2456
   44CHL1  H26C 3252   1.141   6.253   8.218  0.4523  1.0489 -1.2475
   44CHL1   C27 3253   1.306   6.071   8.307  0.3517  0.3870 -0.0406
   44CHL1  H27A 3254   1.297   6.165   8.366  0.0563  0.3467 -0.0213
   44CHL1  H27B 3255   1.237   5.993   8.345  0.6779  0.6832  1.1967
   44CHL1  H27C 3256   1.411   6.037   8.301 -0.3967 -1.7186 -1.4810
   45CHL1    C3 3257   2.092   4.464   6.586 -0.2890 -0.0191  0.3384
   45CHL1    H3 3258   2.055   4.566   6.610  1.5820  0.7654 -0.0313
   45CHL1    O3 3259   2.114   4.458   6.441 -0.8149  0.2240 -0.6200
   45CHL1   H3' 3260   2.047   4.397   6.411 -0.6518 -0.0674 -0.3877
   45CHL1    C4 3261   2.217   4.447   6.672 -0.5888  0.9452 -0.1290
   45CHL1   H4A 3262   2.263   4.350   6.642 -1.9298  0.3010 -0.1535
   45CHL1   H4B 3263   2.284   4.531   6.646  0.8053 -0.0761  0.1226
   45CHL1    C5 3264   2.195   4.450   6.822  0.4144  0.4652 -0.6786
   45CHL1    C6 3265   2.264   4.528   6.909  0.1958 -0.2753 -0.1955
   45CHL1    H6 3266   2.343   4.594   6.872  0.7498 -0.7068  0.2050
   45CHL1    C7 3267   2.244   4.522   7.057  0.2563 -1.1573  0.1297
   45CHL1   H7A 3268   2.340   4.523   7.113  1.8617 -0.2246 -2.5371
   45CHL1   H7B 3269   2.191   4.616   7.080  0.7629 -0.4798 -1.3824
   45CHL1    C8 3270   2.161   4.398   7.102 -0.2859  0.4098  0.3097
   45CHL1    H8 3271   2.222   4.307   7.084 -0.1139  0.5157  0.3485
   45CHL1   C14 3272   2.135   4.412   7.248 -0.3023  0.0785 -0.2119
   45CHL1   H14 3273   2.074   4.505   7.256 -1.6594 -0.9308  1.7227
   45CHL1   C15 3274   2.252   4.439   7.339  0.3936  0.4013 -0.2715
   45CHL1  H15A 3275   2.331   4.365   7.314  0.6217  0.3994  0.4444
   45CHL1  H15B 3276   2.299   4.539   7.344  1.8121 -0.1334 -2.1309
   45CHL1   C16 3277   2.200   4.399   7.485  0.6607  0.6914  0.2581
   45CHL1  H16A 3278   2.270   4.322   7.523  1.7805  1.4309 -0.2603
   45CHL1  H16B 3279   2.205   4.480   7.562 -3.8990  0.5341  0.8559
   45CHL1   C17 3280   2.047   4.362   7.464 -0.4849 -0.5780 -0.2576
   45CHL1   H17 3281   1.993   4.459   7.458  1.8892  0.8287  0.3751
   45CHL1   C13 3282   2.048   4.305   7.321 -0.5436 -0.6630 -0.6489
   45CHL1   C18 3283   2.115   4.168   7.317 -0.1583  0.1912 -0.5153
   45CHL1  H18A 3284   2.041   4.088   7.338 -0.7191  1.1395  1.1503
   45CHL1  H18B 3285   2.162   4.145   7.218  0.5733 -0.1612 -0.0886
   45CHL1  H18C 3286   2.203   4.159   7.384  0.7333  0.6216 -1.6057
   45CHL1   C12 3287   1.920   4.297   7.240  0.7714 -0.3774  0.0856
   45CHL1  H12A 3288   1.851   4.223   7.286  0.4046  1.7934  3.1548
   45CHL1  H12B 3289   1.870   4.394   7.258  2.0861  0.2496  0.4669
   45CHL1   C11 3290   1.934   4.265   7.086 -0.1183  0.2405 -0.6029
   45CHL1  H11A 3291   1.972   4.162   7.074  0.6208  0.6654 -1.9880
   45CHL1  H11B 3292   1.841   4.273   7.025 -1.0105  1.2567  0.8444
   45CHL1    C9 3293   2.036   4.372   7.020 -0.2842 -0.5337  0.3061
   45CHL1    H9 3294   1.989   4.472   7.025 -0.5363 -0.7484  2.7512
   45CHL1   C10 3295   2.075   4.357   6.872 -0.3319  0.0518  0.0121
   45CHL1   C19 3296   2.143   4.218   6.858 -0.2415 -0.3337  0.4846
   45CHL1  H19A 3297   2.065   4.144   6.886 -0.1616 -0.6027  0.0058
   45CHL1  H19B 3298   2.162   4.202   6.750 -1.0281 -1.8116  0.5463
   45CHL1  H19C 3299   2.235   4.199   6.916 -0.8321 -2.3970  0.8106
   45CHL1    C1 3300   1.947   4.378   6.779 -0.4115 -0.2425  0.2071
   45CHL1   H1A 3301   1.865   4.318   6.822 -0.6204  0.5278  0.9162
   45CHL1   H1B 3302   1.911   4.482   6.797 -1.4914 -0.4722 -0.6308
   45CHL1    C2 3303   1.976   4.366   6.627  0.0524  0.2979 -0.0255
   45CHL1   H2A 3304   1.884   4.403   6.578 -0.8800 -1.4804  0.3697
   45CHL1   H2B 3305   1.999   4.258   6.612  0.9198  0.1501  2.1808
   45CHL1   C20 3306   1.971   4.285   7.579  0.5224  0.7354 -0.3218
   45CHL1   H20 3307   2.016   4.184   7.587 -0.0404  0.5070  0.0507
   45CHL1   C21 3308   1.822   4.274   7.537 -0.1311  0.4242  0.2526
   45CHL1  H21A 3309   1.805   4.187   7.471  2.3318 -0.8441  1.2272
   45CHL1  H21B 3310   1.791   4.368   7.486  0.4112 -1.3068 -3.4241
   45CHL1  H21C 3311   1.760   4.242   7.623  1.6006 -1.7527  0.7514
   45CHL1   C22 3312   1.979   4.364   7.715 -0.2064  0.1718 -0.7069
   45CHL1  H22A 3313   2.084   4.398   7.728  0.2388 -0.3762 -2.6652
   45CHL1  H22B 3314   1.905   4.447   7.709  1.1666  1.5054  0.4947
   45CHL1   C23 3315   1.922   4.292   7.831  0.0096 -0.0474 -0.2068
   45CHL1  H23A 3316   1.814   4.269   7.818 -0.0797  0.4556 -0.3609
   45CHL1  H23B 3317   1.968   4.191   7.841  1.1391  0.2359 -2.1688
   45CHL1   C24 3318   1.927   4.383   7.957 -0.2284 -0.5156  0.6158
   45CHL1  H24A 3319   2.031   4.406   7.988 -0.1110 -0.0948 -0.0635
   45CHL1  H24B 3320   1.872   4.473   7.922  0.2420 -0.3748  0.2310
   45CHL1   C25 3321   1.869   4.325   8.080 -0.1136  1.0849  0.6437
   45CHL1   H25 3322   1.764   4.291   8.066 -0.3328  2.3263 -0.8907
   45CHL1   C26 3323   1.936   4.200   8.122 -0.3823 -0.1197  0.4675
   45CHL1  H26A 3324   2.044   4.193   8.097  0.0505  1.0309  1.9549
   45CHL1  H26B 3325   1.937   4.190   8.233  2.4426 -2.9545  0.2682
   45CHL1  H26C 3326   1.884   4.112   8.078 -0.6197  0.9231 -1.3728
   45CHL1   C27 3327   1.875   4.426   8.195 -0.1494 -0.5988 -0.3249
   45CHL1  H27A 3328   1.814   4.393   8.282  2.8890  0.1254  2.1742
   45CHL1  H27B 3329   1.982   4.428   8.222 -0.1506  0.8581 -0.4040
   45CHL1  H27C 3330   1.848   4.527   8.157  0.8479 -0.2338 -0.0787
   46CHL1    C3 3331   2.745   5.896   7.037  0.8912 -0.6455  1.0170
   46CHL1    H3 3332   2.835   5.944   7.078  1.1091 -1.0878  1.0618
   46CHL1    O3 3333   2.747   5.911   6.893  0.3466 -0.2766  0.0468
   46CHL1   H3' 3334   2.810   5.840   6.881 -1.0482 -1.5734  0.3015
   46CHL1    C4 3335   2.735   5.749   7.074 -0.1408  0.2739  0.3122
   46CHL1   H4A 3336   2.650   5.705   7.017 -0.4186  0.2070  0.7719
   46CHL1   H4B 3337   2.826   5.695   7.042  1.2377  2.6252  0.1137
   46CHL1    C5 3338   2.716   5.725   7.222 -0.2192  0.3074  0.1852
   46CHL1    C6 3339   2.793   5.637   7.295 -0.4136  0.5340  0.0599
   46CHL1    H6 3340   2.872   5.577   7.247 -1.5742 -1.6991  0.8840
   46CHL1    C7 3341   2.770   5.609   7.442  0.7168  0.5541 -0.3526
   46CHL1   H7A 3342   2.782   5.500   7.459  1.5250  0.5641 -0.7897
   46CHL1   H7B 3343   2.859   5.647   7.497  0.7703  0.5141 -0.4116
   46CHL1    C8 3344   2.632   5.667   7.495  0.7873 -0.1853 -0.3144
   46CHL1    H8 3345   2.548   5.604   7.457 -0.1511  1.7026 -1.4221
   46CHL1   C14 3346   2.633   5.673   7.650 -0.0240  0.3130 -0.2692
   46CHL1   H14 3347   2.707   5.752   7.674 -0.7596  0.1974  2.4363
   46CHL1   C15 3348   2.684   5.554   7.727 -0.4416 -0.7994 -0.2070
   46CHL1  H15A 3349   2.655   5.451   7.696 -0.4538 -1.5455  2.2218
   46CHL1  H15B 3350   2.794   5.561   7.717 -0.5296  2.0472  0.3880
   46CHL1   C16 3351   2.641   5.576   7.870  0.8370  0.0059 -0.2444
   46CHL1  H16A 3352   2.571   5.493   7.894 -0.6055  0.8403 -1.4708
   46CHL1  H16B 3353   2.727   5.581   7.941 -0.4068 -2.1046  1.4777
   46CHL1   C17 3354   2.555   5.708   7.866  0.5189  0.9058 -0.2154
   46CHL1   H17 3355   2.618   5.798   7.884  0.7468  1.1079 -1.8811
   46CHL1   C13 3356   2.504   5.720   7.717 -0.4917  0.4172  0.7088
   46CHL1   C18 3357   2.397   5.614   7.697 -0.0670  0.2622  0.5250
   46CHL1  H18A 3358   2.360   5.610   7.592 -0.1675 -0.3341  0.5820
   46CHL1  H18B 3359   2.433   5.514   7.728 -1.3739 -0.8032 -1.2674
   46CHL1  H18C 3360   2.302   5.644   7.747  1.0293  2.1410  1.5436
   46CHL1   C12 3361   2.475   5.861   7.665 -0.0212  0.5010  0.1623
   46CHL1  H12A 3362   2.376   5.903   7.695 -0.3387 -0.1006 -0.0301
   46CHL1  H12B 3363   2.551   5.927   7.712  1.1379 -0.0725 -0.8774
   46CHL1   C11 3364   2.469   5.868   7.506  0.0538  0.0987  0.4448
   46CHL1  H11A 3365   2.374   5.815   7.487 -0.6569  0.8676  1.7696
   46CHL1  H11B 3366   2.458   5.976   7.483 -2.5347 -0.4573 -1.0612
   46CHL1    C9 3367   2.594   5.806   7.440  0.2064 -0.3849  0.8201
   46CHL1    H9 3368   2.677   5.873   7.473 -0.1677  1.0722 -1.0664
   46CHL1   C10 3369   2.599   5.809   7.281  0.2561 -0.8210  0.8067
   46CHL1   C19 3370   2.463   5.750   7.229 -0.6936 -0.3600  0.1473
   46CHL1  H19A 3371   2.465   5.737   7.118  1.7079 -0.8464  0.2041
   46CHL1  H19B 3372   2.436   5.662   7.290  1.4333 -0.5727  0.8253
   46CHL1  H19C 3373   2.383   5.826   7.237 -0.2628  0.1412 -0.2333
   46CHL1    C1 3374   2.607   5.960   7.239 -0.5513 -0.0052  0.3131
   46CHL1   H1A 3375   2.522   6.019   7.282 -0.9978 -0.1703 -0.3263
   46CHL1   H1B 3376   2.702   6.000   7.280  0.1012 -0.7345 -0.4676
   46CHL1    C2 3377   2.618   5.978   7.087 -1.1447  0.6291  0.9015
   46CHL1   H2A 3378   2.634   6.085   7.061  1.8150 -0.3819 -1.6938
   46CHL1   H2B 3379   2.546   5.930   7.018  1.8670  0.8733 -2.5830
   46CHL1   C20 3380   2.460   5.700   7.979 -0.3706  0.1138  0.3061
   46CHL1   H20 3381   2.394   5.612   7.960 -1.1745  0.9739 -0.9181
   46CHL1   C21 3382   2.361   5.823   7.975 -0.4660  0.0469  0.9130
   46CHL1  H21A 3383   2.290   5.830   8.059 -2.5961  0.9447 -0.9049
   46CHL1  H21B 3384   2.296   5.818   7.885 -1.0658 -0.3946  1.3684
   46CHL1  H21C 3385   2.418   5.918   7.981  1.0309 -0.8136  0.6299
   46CHL1   C22 3386   2.534   5.686   8.111  0.2728 -0.5350 -0.2576
   46CHL1  H22A 3387   2.597   5.594   8.118  1.5424  0.3138 -0.3601
   46CHL1  H22B 3388   2.622   5.754   8.118 -0.1149 -0.0136 -0.3841
   46CHL1   C23 3389   2.458   5.692   8.240 -0.7844 -0.5261  0.4244
   46CHL1  H23A 3390   2.539   5.681   8.314  0.9875  1.7044 -1.1164
   46CHL1  H23B 3391   2.407   5.790   8.255  0.5752  0.0027  1.6816
   46CHL1   C24 3392   2.357   5.580   8.253 -0.0105  0.6106  0.0921
   46CHL1  H24A 3393   2.263   5.600   8.197  0.3281 -0.2354 -0.7887
   46CHL1  H24B 3394   2.411   5.492   8.213 -1.1271 -1.1750  2.3614
   46CHL1   C25 3395   2.309   5.550   8.399 -0.0995  0.1227  0.3514
   46CHL1   H25 3396   2.226   5.477   8.390 -1.0783  1.3210 -0.4744
   46CHL1   C26 3397   2.411   5.480   8.487 -0.1486  0.3330 -0.4002
   46CHL1  H26A 3398   2.444   5.387   8.435  1.0968 -0.0043  0.9880
   46CHL1  H26B 3399   2.499   5.546   8.497  0.0370  0.4435 -2.3978
   46CHL1  H26C 3400   2.368   5.445   8.583 -0.1097 -0.8560 -0.8099
   46CHL1   C27 3401   2.256   5.672   8.469 -0.6677 -0.2551 -0.1148
   46CHL1  H27A 3402   2.334   5.751   8.473 -2.2579  1.3656 -0.2278
   46CHL1  H27B 3403   2.170   5.727   8.424 -1.8688 -1.3576  0.8005
   46CHL1  H27C 3404   2.227   5.641   8.571 -0.1201  0.4359  0.2540
   47CHL1    C3 3405   1.845   5.566   6.581 -0.3247  0.3839 -0.2032
   47CHL1    H3 3406   1.776   5.481   6.600 -1.4469  1.3735  0.2475
   47CHL1    O3 3407   1.823   5.600   6.443 -0.6830 -0.2122  0.0173
   47CHL1   H3' 3408   1.912   5.620   6.412 -0.2746 -1.3907  0.3895
   47CHL1    C4 3409   1.794   5.683   6.671  0.0197 -0.0630  0.2971
   47CHL1   H4A 3410   1.841   5.776   6.632 -1.0797  0.1489 -0.5583
   47CHL1   H4B 3411   1.689   5.684   6.636 -0.7665  0.6537  2.5907
   47CHL1    C5 3412   1.805   5.643   6.818 -1.0584  0.7795 -0.8431
   47CHL1    C6 3413   1.698   5.628   6.901 -0.2014  0.0238  0.3861
   47CHL1    H6 3414   1.597   5.653   6.867 -0.2694 -0.8538 -0.0587
   47CHL1    C7 3415   1.706   5.588   7.051  0.2113  0.7018 -0.4979
   47CHL1   H7A 3416   1.634   5.651   7.108  2.0635 -0.2968  3.1171
   47CHL1   H7B 3417   1.673   5.483   7.070  2.3104  0.5018  2.3919
   47CHL1    C8 3418   1.847   5.604   7.112 -0.0628  0.3650  0.0749
   47CHL1    H8 3419   1.880   5.710   7.121  0.9167 -0.1377  2.8953
   47CHL1   C14 3420   1.851   5.539   7.246 -0.1832  0.0980  0.4564
   47CHL1   H14 3421   1.818   5.434   7.231 -0.6242  0.0358  1.8263
   47CHL1   C15 3422   1.757   5.591   7.362 -0.6351  0.9202  1.5935
   47CHL1  H15A 3423   1.774   5.700   7.374  2.3619  0.3785  2.5885
   47CHL1  H15B 3424   1.650   5.574   7.339 -0.4340  0.2338  1.1348
   47CHL1   C16 3425   1.814   5.517   7.482  0.6410 -0.4721 -0.4961
   47CHL1  H16A 3426   1.843   5.599   7.552 -0.6809 -1.8765  1.7833
   47CHL1  H16B 3427   1.744   5.443   7.528  0.2463 -1.3363 -2.4259
   47CHL1   C17 3428   1.948   5.451   7.439 -0.4162  0.1131 -0.6835
   47CHL1   H17 3429   1.923   5.346   7.413  0.0093 -0.5944  1.6606
   47CHL1   C13 3430   1.997   5.524   7.310  0.5170  0.3431 -0.3753
   47CHL1   C18 3431   2.064   5.665   7.338 -0.1741  0.1482 -0.7674
   47CHL1  H18A 3432   2.142   5.647   7.416  0.8668  0.3237 -1.7577
   47CHL1  H18B 3433   2.109   5.721   7.253  1.4872  2.4219  1.5284
   47CHL1  H18C 3434   1.989   5.729   7.388 -0.9812 -2.0456  0.9247
   47CHL1   C12 3435   2.095   5.453   7.213  0.3651 -0.7935  0.0665
   47CHL1  H12A 3436   2.197   5.452   7.256  0.2887  0.5122  0.2808
   47CHL1  H12B 3437   2.053   5.350   7.218 -1.1131 -0.2337 -0.4861
   47CHL1   C11 3438   2.089   5.513   7.068  0.3499 -0.2074  0.3674
   47CHL1  H11A 3439   2.156   5.600   7.080  0.7227 -0.6336  1.4619
   47CHL1  H11B 3440   2.140   5.436   7.005 -1.0065  0.7970 -2.0096
   47CHL1    C9 3441   1.954   5.540   7.010 -0.0503  0.7816 -0.0079
   47CHL1    H9 3442   1.909   5.439   6.999  1.1766  0.3069 -0.7592
   47CHL1   C10 3443   1.953   5.613   6.870  0.3206  0.0006  0.5775
   47CHL1   C19 3444   2.037   5.743   6.877  0.9707  0.0240  0.5944
   47CHL1  H19A 3445   2.052   5.792   6.778 -2.5123  3.2808  1.5472
   47CHL1  H19B 3446   1.979   5.816   6.937 -1.4945  1.7878 -3.7034
   47CHL1  H19C 3447   2.137   5.724   6.922  1.4343 -1.5467 -1.0409
   47CHL1    C1 3448   2.011   5.506   6.761  0.0127  0.1890 -0.0962
   47CHL1   H1A 3449   2.120   5.490   6.773  0.0071 -0.5514 -1.0605
   47CHL1   H1B 3450   1.954   5.414   6.785  1.6344 -0.2921  2.1430
   47CHL1    C2 3451   1.994   5.539   6.610 -0.3288  0.1878  0.1275
   47CHL1   H2A 3452   2.024   5.448   6.554  2.7983  2.0338 -1.3029
   47CHL1   H2B 3453   2.055   5.625   6.575  1.7944 -0.3905  2.2294
   47CHL1   C20 3454   2.053   5.430   7.556 -0.3265 -0.5625 -0.6042
   47CHL1   H20 3455   2.082   5.527   7.600 -1.0567 -1.0996  1.0788
   47CHL1   C21 3456   2.182   5.366   7.508  0.5953 -0.3348  0.4544
   47CHL1  H21A 3457   2.157   5.292   7.429 -2.5134  1.4036 -0.2677
   47CHL1  H21B 3458   2.244   5.319   7.587  0.3251  1.2153  1.6080
   47CHL1  H21C 3459   2.245   5.446   7.463  0.4677 -0.9125 -0.7762
   47CHL1   C22 3460   1.988   5.345   7.666  1.0010  0.2927  0.5436
   47CHL1  H22A 3461   1.885   5.377   7.693  1.0677  0.4512  0.6061
   47CHL1  H22B 3462   1.981   5.241   7.626  0.0603  0.3249  0.6212
   47CHL1   C23 3463   2.063   5.343   7.803  0.0526  0.0846 -0.6986
   47CHL1  H23A 3464   2.169   5.310   7.801  0.5580  1.7049 -1.0568
   47CHL1  H23B 3465   2.064   5.449   7.838 -1.0981  0.1523 -0.8723
   47CHL1   C24 3466   1.988   5.260   7.914 -0.0173  0.2935  0.1016
   47CHL1  H24A 3467   1.886   5.304   7.917 -0.2664 -0.2184 -0.9167
   47CHL1  H24B 3468   1.973   5.155   7.883 -2.5353  1.1073 -1.6007
   47CHL1   C25 3469   2.042   5.261   8.060 -0.1639  0.5173  0.0083
   47CHL1   H25 3470   2.132   5.195   8.063 -0.1831  0.2857 -2.8558
   47CHL1   C26 3471   2.082   5.403   8.088  0.4178  0.7006 -0.5764
   47CHL1  H26A 3472   2.121   5.408   8.192  0.6388  0.7326 -0.6620
   47CHL1  H26B 3473   2.163   5.445   8.026 -0.7656  1.1535 -1.8452
   47CHL1  H26C 3474   1.990   5.466   8.086  0.2307  0.5159  1.3118
   47CHL1   C27 3475   1.941   5.203   8.160 -1.3305 -0.2855 -0.0916
   47CHL1  H27A 3476   1.851   5.267   8.168 -0.8038  0.2370  1.9281
   47CHL1  H27B 3477   1.918   5.096   8.141 -0.5039 -0.6821  1.0527
   47CHL1  H27C 3478   1.997   5.200   8.256 -0.1489 -0.5786 -0.7875
   48CHL1    C3 3479   5.221   1.527   6.225  0.0359 -0.3074  0.5296
   48CHL1    H3 3480   5.331   1.509   6.218  0.4232  1.1407  2.4986
   48CHL1    O3 3481   5.167   1.550   6.098  0.8695 -0.1615  0.5835
   48CHL1   H3' 3482   5.079   1.513   6.106  0.8473 -0.0213  0.9783
   48CHL1    C4 3483   5.152   1.402   6.284  0.5439  1.5443 -0.0889
   48CHL1   H4A 3484   5.041   1.408   6.284  0.4410 -0.0764  0.4094
   48CHL1   H4B 3485   5.176   1.319   6.215 -1.0242  2.2434 -1.5228
   48CHL1    C5 3486   5.197   1.377   6.427 -0.1738  0.5286  0.2955
   48CHL1    C6 3487   5.233   1.254   6.466 -0.5631  0.1790  0.3490
   48CHL1    H6 3488   5.235   1.174   6.390 -1.0431  1.5066 -1.0868
   48CHL1    C7 3489   5.258   1.211   6.605 -0.0580  0.1086  0.2414
   48CHL1   H7A 3490   5.217   1.112   6.635 -0.1803 -0.2579 -1.1009
   48CHL1   H7B 3491   5.368   1.196   6.611  0.0026  0.3308 -0.3552
   48CHL1    C8 3492   5.205   1.307   6.710 -0.5744  0.6294  0.3622
   48CHL1    H8 3493   5.096   1.285   6.711 -0.6583  0.5049 -3.8890
   48CHL1   C14 3494   5.256   1.285   6.846 -0.0935  0.2855 -0.6323
   48CHL1   H14 3495   5.362   1.320   6.849  0.3231 -0.9268 -1.0024
   48CHL1   C15 3496   5.256   1.135   6.897  0.3284 -1.1228  0.0292
   48CHL1  H15A 3497   5.168   1.089   6.847  0.1426 -0.4692 -0.2575
   48CHL1  H15B 3498   5.348   1.081   6.868  1.1359  0.1366  0.1870
   48CHL1   C16 3499   5.251   1.157   7.045  0.8347  0.2318 -0.4584
   48CHL1  H16A 3500   5.160   1.108   7.086  0.8989  1.0004  0.6179
   48CHL1  H16B 3501   5.332   1.099   7.094 -1.1357 -1.7365  0.5701
   48CHL1   C17 3502   5.245   1.311   7.081 -0.0643  0.5092  0.8877
   48CHL1   H17 3503   5.351   1.340   7.095 -0.0310  0.7997  0.0757
   48CHL1   C13 3504   5.187   1.376   6.952 -0.1042  0.0533 -0.8547
   48CHL1   C18 3505   5.032   1.351   6.951 -0.6924  0.2515  0.5861
   48CHL1  H18A 3506   4.978   1.390   7.040 -0.9917  2.8294 -0.6776
   48CHL1  H18B 3507   4.969   1.398   6.872  1.7314  0.2305 -1.3970
   48CHL1  H18C 3508   5.013   1.242   6.951  0.0108  0.0968  3.1795
   48CHL1   C12 3509   5.232   1.519   6.920 -0.6022 -0.2283  0.0947
   48CHL1  H12A 3510   5.192   1.584   7.001  2.7946 -1.4857  2.9163
   48CHL1  H12B 3511   5.342   1.526   6.929 -0.2313 -4.0998 -0.6752
   48CHL1   C11 3512   5.190   1.563   6.782  0.5889 -0.4913 -0.0176
   48CHL1  H11A 3513   5.079   1.568   6.783  0.6028  0.2960 -1.2331
   48CHL1  H11B 3514   5.235   1.660   6.751  0.3214  0.2397  1.7972
   48CHL1    C9 3515   5.225   1.453   6.670  0.3431 -0.1233  0.0669
   48CHL1    H9 3516   5.335   1.458   6.652  0.0303 -0.4643 -2.0424
   48CHL1   C10 3517   5.167   1.493   6.531 -0.3893  0.0671 -0.0364
   48CHL1   C19 3518   5.012   1.517   6.546 -0.4162 -0.1161 -0.4209
   48CHL1  H19A 3519   4.978   1.597   6.615  0.8863 -0.7240  0.9562
   48CHL1  H19B 3520   4.972   1.538   6.445  1.4722 -0.6649 -1.3154
   48CHL1  H19C 3521   4.961   1.428   6.589  1.4754 -0.1131  1.9967
   48CHL1    C1 3522   5.245   1.610   6.462 -0.5931  0.2206 -0.0817
   48CHL1   H1A 3523   5.221   1.706   6.513 -1.2902  0.9354 -1.7251
   48CHL1   H1B 3524   5.354   1.590   6.456 -0.1056  1.9704  2.1700
   48CHL1    C2 3525   5.197   1.642   6.314  0.3863 -0.2476 -0.1419
   48CHL1   H2A 3526   5.250   1.736   6.291  0.5186 -0.0241  1.0232
   48CHL1   H2B 3527   5.089   1.669   6.318 -0.2467 -2.8102  1.5388
   48CHL1   C20 3528   5.176   1.353   7.215  0.3268  0.0305 -0.3713
   48CHL1   H20 3529   5.073   1.313   7.216  0.9272 -1.5578  0.1533
   48CHL1   C21 3530   5.178   1.501   7.240 -0.4411 -0.3095  0.3466
   48CHL1  H21A 3531   5.138   1.516   7.342  0.0167  3.1014  0.0941
   48CHL1  H21B 3532   5.113   1.562   7.175  1.2806  1.8246  0.5781
   48CHL1  H21C 3533   5.283   1.537   7.232 -1.2543  1.5430 -3.0341
   48CHL1   C22 3534   5.229   1.281   7.343  0.1475 -0.9232  0.1810
   48CHL1  H22A 3535   5.244   1.173   7.321  0.1639 -1.0478  0.8046
   48CHL1  H22B 3536   5.329   1.317   7.373 -0.6194 -1.0405  3.0253
   48CHL1   C23 3537   5.133   1.279   7.463  0.2109  0.0754 -0.5486
   48CHL1  H23A 3538   5.102   1.381   7.496 -1.9377 -0.6946 -0.1349
   48CHL1  H23B 3539   5.044   1.224   7.429  0.6433 -2.6164  2.3930
   48CHL1   C24 3540   5.194   1.208   7.585 -0.0924 -0.0604 -0.0360
   48CHL1  H24A 3541   5.252   1.119   7.552  2.1579  0.9173  1.1971
   48CHL1  H24B 3542   5.262   1.274   7.642 -2.0646 -0.2254  2.5973
   48CHL1   C25 3543   5.095   1.156   7.687  0.0650 -0.1844 -0.1087
   48CHL1   H25 3544   5.031   1.239   7.723  0.3804 -0.3679  0.9086
   48CHL1   C26 3545   5.002   1.049   7.634 -0.1733  0.8398 -0.3029
   48CHL1  H26A 3546   4.963   0.987   7.717 -0.2187  0.5022 -0.5746
   48CHL1  H26B 3547   4.915   1.087   7.576 -1.5894  0.7254  1.7195
   48CHL1  H26C 3548   5.054   0.982   7.562 -0.7428  1.2035 -1.0636
   48CHL1   C27 3549   5.163   1.097   7.811 -0.0298  0.2323  1.1277
   48CHL1  H27A 3550   5.204   0.995   7.796  0.0144  0.1406  1.8577
   48CHL1  H27B 3551   5.248   1.164   7.835  0.4980 -0.1584  0.3714
   48CHL1  H27C 3552   5.091   1.116   7.893 -1.0039  0.5177  0.2252
   49CHL1    C3 3553   3.724   2.426   6.846  1.1245 -0.5353  0.3274
   49CHL1    H3 3554   3.792   2.510   6.819 -2.2741  0.9262 -4.2452
   49CHL1    O3 3555   3.647   2.388   6.729  0.0267  0.4701  0.0406
   49CHL1   H3' 3556   3.580   2.326   6.758 -0.0266  1.1971  1.5217
   49CHL1    C4 3557   3.802   2.298   6.883  0.0830 -0.3941 -0.3179
   49CHL1   H4A 3558   3.738   2.211   6.906 -0.3401  0.1778  0.7117
   49CHL1   H4B 3559   3.863   2.266   6.796  0.3317  0.8067 -0.5951
   49CHL1    C5 3560   3.881   2.329   7.007  0.4521 -0.8117 -0.4120
   49CHL1    C6 3561   4.016   2.328   6.997  0.1267 -0.0966 -0.2484
   49CHL1    H6 3562   4.063   2.296   6.903  0.0008 -0.6549 -0.1246
   49CHL1    C7 3563   4.111   2.364   7.115  0.6172  0.7376  0.3969
   49CHL1   H7A 3564   4.196   2.293   7.120 -1.0957 -1.4664 -0.9667
   49CHL1   H7B 3565   4.142   2.470   7.099  0.8463  0.9688  2.2946
   49CHL1    C8 3566   4.027   2.362   7.248  0.0492  0.8795 -0.4844
   49CHL1    H8 3567   3.988   2.260   7.270 -0.9471  1.2861 -0.3725
   49CHL1   C14 3568   4.109   2.413   7.373 -0.1629  0.0315 -0.8402
   49CHL1   H14 3569   4.147   2.510   7.337  0.5721  0.7788  1.8642
   49CHL1   C15 3570   4.242   2.342   7.411 -0.1785  0.5497  0.7134
   49CHL1  H15A 3571   4.230   2.231   7.419  1.6729  0.3478  1.0492
   49CHL1  H15B 3572   4.317   2.364   7.332  0.0508 -0.6111  0.5976
   49CHL1   C16 3573   4.275   2.400   7.552 -0.1097 -0.1215  0.7904
   49CHL1  H16A 3574   4.316   2.327   7.624  3.0983 -0.9952 -1.8314
   49CHL1  H16B 3575   4.358   2.473   7.542 -0.3700  0.2392  1.2438
   49CHL1   C17 3576   4.144   2.466   7.601 -0.4224 -0.4182 -0.0950
   49CHL1   H17 3577   4.155   2.575   7.579 -0.1336 -0.6121 -0.9345
   49CHL1   C13 3578   4.029   2.431   7.502 -0.1801  0.1925 -0.2605
   49CHL1   C18 3579   3.974   2.290   7.549 -0.0097  0.8400 -0.0806
   49CHL1  H18A 3580   3.917   2.241   7.467 -3.3293  2.4905  1.1377
   49CHL1  H18B 3581   4.055   2.233   7.599 -3.0835 -2.2112  1.6542
   49CHL1  H18C 3582   3.900   2.323   7.625  0.7294  1.1666  0.5081
   49CHL1   C12 3583   3.912   2.533   7.483 -0.4790  0.9550 -0.0320
   49CHL1  H12A 3584   3.851   2.575   7.566 -1.0358  1.6201 -0.7711
   49CHL1  H12B 3585   3.972   2.621   7.448  0.3371  0.7974  0.9121
   49CHL1   C11 3586   3.827   2.473   7.373  1.0759  0.0583 -0.1640
   49CHL1  H11A 3587   3.777   2.381   7.410  2.8798 -0.5499  0.8108
   49CHL1  H11B 3588   3.746   2.544   7.344 -0.2140 -1.9688 -1.6437
   49CHL1    C9 3589   3.896   2.442   7.235 -0.0995  0.0755  0.2872
   49CHL1    H9 3590   3.927   2.543   7.200 -0.3695  0.5973  1.5430
   49CHL1   C10 3591   3.801   2.382   7.129  0.6286  0.3719  0.0865
   49CHL1   C19 3592   3.730   2.254   7.184  0.2611  0.5482  0.1521
   49CHL1  H19A 3593   3.788   2.167   7.221 -2.0681 -0.8385  0.6978
   49CHL1  H19B 3594   3.667   2.285   7.271 -1.2655  0.9275 -1.0571
   49CHL1  H19C 3595   3.656   2.219   7.108  3.4469 -1.3209 -2.2367
   49CHL1    C1 3596   3.699   2.492   7.087 -0.8863  0.4549 -1.2952
   49CHL1   H1A 3597   3.635   2.515   7.174  0.5999 -1.5011  0.3646
   49CHL1   H1B 3598   3.753   2.587   7.066 -0.2734  0.4246  0.1101
   49CHL1    C2 3599   3.625   2.468   6.954  0.8700  0.0005 -0.1720
   49CHL1   H2A 3600   3.564   2.553   6.918  0.2399 -1.2121 -2.0544
   49CHL1   H2B 3601   3.551   2.386   6.969  1.2360 -0.5414 -1.3111
   49CHL1   C20 3602   4.121   2.464   7.757 -0.4031  0.4042  0.0010
   49CHL1   H20 3603   4.114   2.357   7.787  2.4573  0.1864 -0.0212
   49CHL1   C21 3604   3.998   2.550   7.795 -0.0216 -0.1277 -0.9196
   49CHL1  H21A 3605   3.988   2.556   7.905 -0.5985 -0.4486 -0.9537
   49CHL1  H21B 3606   3.904   2.503   7.760 -0.7331  0.0623  0.7237
   49CHL1  H21C 3607   4.009   2.653   7.754 -2.9459  0.6018  0.0617
   49CHL1   C22 3608   4.245   2.521   7.835 -0.4017 -0.3062  0.4592
   49CHL1  H22A 3609   4.343   2.489   7.793 -0.2557  0.5970  0.0871
   49CHL1  H22B 3610   4.254   2.631   7.818  0.0133 -0.0562  2.2673
   49CHL1   C23 3611   4.249   2.488   7.980  0.2252  0.4256 -0.5287
   49CHL1  H23A 3612   4.161   2.539   8.024 -1.5223 -3.6451  1.0336
   49CHL1  H23B 3613   4.235   2.380   8.004 -1.9399  1.3198  2.4293
   49CHL1   C24 3614   4.375   2.535   8.060 -0.1862  0.2549 -0.6508
   49CHL1  H24A 3615   4.463   2.476   8.026 -0.4279 -0.0164 -0.8013
   49CHL1  H24B 3616   4.383   2.643   8.031 -1.4602  0.5955  0.2649
   49CHL1   C25 3617   4.378   2.502   8.210 -0.3126  0.1870  0.2926
   49CHL1   H25 3618   4.351   2.394   8.211  0.4092 -0.0049 -0.4429
   49CHL1   C26 3619   4.522   2.530   8.262  0.9280  0.2843  0.0325
   49CHL1  H26A 3620   4.597   2.492   8.190  2.1744 -0.3547  1.6334
   49CHL1  H26B 3621   4.531   2.640   8.260 -0.9581  0.4777  1.1936
   49CHL1  H26C 3622   4.544   2.496   8.366 -2.1941 -2.8007 -0.2195
   49CHL1   C27 3623   4.268   2.569   8.295 -0.5178 -0.0806 -0.1266
   49CHL1  H27A 3624   4.278   2.679   8.311 -1.7404 -0.0078  0.2225
   49CHL1  H27B 3625   4.167   2.555   8.250 -0.4730 -0.0864 -0.2271
   49CHL1  H27C 3626   4.276   2.535   8.401  1.7847 -0.3171 -0.3517
   50CHL1    C3 3627   5.023   3.946   6.716  0.1147  0.5738  0.1861
   50CHL1    H3 3628   4.927   3.894   6.735  1.1003 -1.0580  0.7925
   50CHL1    O3 3629   5.042   3.983   6.580 -0.4453  0.5868  0.1975
   50CHL1   H3' 3630   4.953   4.009   6.555  0.0405  0.1231 -2.1950
   50CHL1    C4 3631   5.037   4.081   6.785  0.5200 -0.0362  0.0656
   50CHL1   H4A 3632   5.126   4.136   6.748  0.1097  0.4631 -0.1985
   50CHL1   H4B 3633   4.959   4.159   6.770  0.2529 -0.3246 -0.0460
   50CHL1    C5 3634   5.060   4.065   6.933  0.2932  0.8199  0.2664
   50CHL1    C6 3635   4.981   4.128   7.026  0.4504 -0.1868 -0.3350
   50CHL1    H6 3636   4.901   4.195   6.992  0.1807 -0.2115  0.2661
   50CHL1    C7 3637   5.000   4.126   7.167  0.2647  0.0501 -0.6003
   50CHL1   H7A 3638   4.988   4.232   7.200  1.2745  0.7569 -2.4258
   50CHL1   H7B 3639   4.920   4.068   7.216  0.4384 -0.4276 -0.8863
   50CHL1    C8 3640   5.138   4.075   7.207  0.2538 -0.3138  0.4222
   50CHL1    H8 3641   5.218   4.149   7.186  0.1677 -0.7357 -1.4541
   50CHL1   C14 3642   5.140   4.042   7.352 -0.3914 -0.2568 -0.6851
   50CHL1   H14 3643   5.072   3.955   7.358  0.5521 -0.9417  0.1815
   50CHL1   C15 3644   5.083   4.152   7.443 -0.5665 -0.2117 -0.4914
   50CHL1  H15A 3645   5.122   4.250   7.407 -4.8463  1.9163  0.2502
   50CHL1  H15B 3646   4.972   4.150   7.446 -0.5456 -1.4436 -0.4730
   50CHL1   C16 3647   5.144   4.110   7.581  0.1137  0.6121 -0.1410
   50CHL1  H16A 3648   5.220   4.183   7.612  0.2784  0.6324 -0.5871
   50CHL1  H16B 3649   5.066   4.093   7.658  3.2796 -3.2372  2.4278
   50CHL1   C17 3650   5.228   3.971   7.554  0.0796 -0.7545 -0.0553
   50CHL1   H17 3651   5.146   3.897   7.554 -1.3167  0.7654  2.2569
   50CHL1   C13 3652   5.273   3.986   7.409  0.6528  0.2608  0.0258
   50CHL1   C18 3653   5.384   4.093   7.406  0.1554  0.3863 -0.1588
   50CHL1  H18A 3654   5.473   4.062   7.464 -0.4901 -0.1772  0.5220
   50CHL1  H18B 3655   5.410   4.107   7.299 -1.7893 -2.2369 -1.0299
   50CHL1  H18C 3656   5.348   4.190   7.448  1.8043  0.1344  1.9043
   50CHL1   C12 3657   5.317   3.868   7.333  0.1300 -0.2836 -0.4371
   50CHL1  H12A 3658   5.424   3.852   7.357  0.3535 -0.9226 -1.8252
   50CHL1  H12B 3659   5.252   3.782   7.360  0.3931 -0.6317 -0.9062
   50CHL1   C11 3660   5.312   3.891   7.178  0.2315 -0.6030  0.0855
   50CHL1  H11A 3661   5.399   3.957   7.158 -2.8086  3.7414  0.5041
   50CHL1  H11B 3662   5.323   3.792   7.130 -0.1584 -0.7947  0.3953
   50CHL1    C9 3663   5.177   3.952   7.121  0.1735  0.6775  0.3264
   50CHL1    H9 3664   5.096   3.878   7.140  2.9521 -2.4113  0.4538
   50CHL1   C10 3665   5.174   3.979   6.964  0.3385 -0.4369  0.2493
   50CHL1   C19 3666   5.300   4.057   6.924  0.6206  0.0182  0.6846
   50CHL1  H19A 3667   5.390   4.001   6.958  0.5994 -0.2215  0.3413
   50CHL1  H19B 3668   5.316   4.053   6.815  0.5418  0.5858  0.6493
   50CHL1  H19C 3669   5.305   4.157   6.974 -3.8501  1.4740 -1.5121
   50CHL1    C1 3670   5.171   3.842   6.895  0.1895 -0.2728  0.3752
   50CHL1   H1A 3671   5.259   3.775   6.904  0.7517  0.5436  1.0381
   50CHL1   H1B 3672   5.087   3.780   6.934 -0.6019 -0.8020 -2.0934
   50CHL1    C2 3673   5.149   3.857   6.750  0.3638  0.2928  0.2932
   50CHL1   H2A 3674   5.122   3.758   6.708 -0.9705  0.1112  1.5203
   50CHL1   H2B 3675   5.241   3.891   6.697  0.3519  0.2676  0.2570
   50CHL1   C20 3676   5.338   3.934   7.650  0.9101  0.3922 -0.5978
   50CHL1   H20 3677   5.431   3.992   7.634  1.1232  0.2295  0.0319
   50CHL1   C21 3678   5.354   3.778   7.653 -0.1640  0.7196  0.5562
   50CHL1  H21A 3679   5.455   3.743   7.681  1.3759  4.2597 -0.1812
   50CHL1  H21B 3680   5.354   3.748   7.546  0.4175  0.8961  0.5033
   50CHL1  H21C 3681   5.266   3.728   7.698 -0.4270 -0.7823 -1.5275
   50CHL1   C22 3682   5.290   3.965   7.796 -0.0814 -1.0349 -0.1175
   50CHL1  H22A 3683   5.275   4.075   7.802 -1.8366 -1.2786  0.2925
   50CHL1  H22B 3684   5.192   3.917   7.816 -1.3398  1.6838  0.4478
   50CHL1   C23 3685   5.383   3.916   7.908 -0.5703 -0.5044  0.1626
   50CHL1  H23A 3686   5.376   3.805   7.918 -0.8614 -0.5338 -0.3733
   50CHL1  H23B 3687   5.487   3.934   7.872 -0.2457 -0.9166  0.8557
   50CHL1   C24 3688   5.352   3.988   8.038  0.8361  0.1203  0.0592
   50CHL1  H24A 3689   5.348   4.098   8.027 -2.0480 -0.0992 -1.3743
   50CHL1  H24B 3690   5.253   3.956   8.077  2.0147 -0.0660  3.1032
   50CHL1   C25 3691   5.439   3.940   8.159 -0.6082  0.0388 -0.3394
   50CHL1   H25 3692   5.409   3.834   8.167  0.5182 -0.1308  2.1542
   50CHL1   C26 3693   5.587   3.970   8.135 -0.7639  0.1447  0.5280
   50CHL1  H26A 3694   5.661   3.931   8.208  0.4322  2.7041  0.7429
   50CHL1  H26B 3695   5.622   3.941   8.034 -2.3041  1.5746 -0.4253
   50CHL1  H26C 3696   5.600   4.079   8.152  0.6975  0.2368 -1.0775
   50CHL1   C27 3697   5.392   4.008   8.289 -1.0421 -0.1447  0.3104
   50CHL1  H27A 3698   5.400   4.118   8.280 -0.7540  0.0201  2.2315
   50CHL1  H27B 3699   5.288   3.979   8.316 -2.3812  2.4525 -1.9276
   50CHL1  H27C 3700   5.450   3.979   8.379 -0.1488  0.9673  0.1067
   51CHL1    C3 3701   4.626   2.927   7.030 -0.8097  0.3868 -0.6704
   51CHL1    H3 3702   4.683   3.023   7.030 -0.7103  0.3694  2.1963
   51CHL1    O3 3703   4.602   2.896   6.891 -0.6422 -0.2858 -0.8708
   51CHL1   H3' 3704   4.610   2.801   6.882  1.5326 -0.4052  1.7498
   51CHL1    C4 3705   4.711   2.816   7.094 -0.2069 -0.0626 -0.1815
   51CHL1   H4A 3706   4.667   2.719   7.064  1.0274 -0.3449 -1.0875
   51CHL1   H4B 3707   4.811   2.820   7.045  0.1199 -0.6997  0.4282
   51CHL1    C5 3708   4.714   2.831   7.240 -0.5601 -0.4367  0.5343
   51CHL1    C6 3709   4.836   2.825   7.296 -0.0147 -0.0435 -0.3911
   51CHL1    H6 3710   4.931   2.799   7.246 -0.5700 -3.3112  0.1504
   51CHL1    C7 3711   4.847   2.854   7.441 -0.2421  0.0471  0.2946
   51CHL1   H7A 3712   4.939   2.806   7.481 -0.9812 -1.5154  0.1547
   51CHL1   H7B 3713   4.867   2.962   7.458 -2.6811  0.4689  0.7698
   51CHL1    C8 3714   4.718   2.812   7.520  0.3079 -0.6148 -0.1961
   51CHL1    H8 3715   4.705   2.702   7.529 -1.2659 -0.4836 -0.8598
   51CHL1   C14 3716   4.740   2.858   7.660  0.0083 -0.1650  0.3660
   51CHL1   H14 3717   4.736   2.969   7.651 -1.4048 -0.3576 -1.5343
   51CHL1   C15 3718   4.865   2.805   7.727 -0.1563 -0.0576 -0.2648
   51CHL1  H15A 3719   4.870   2.694   7.721 -0.8598 -0.2087  1.5650
   51CHL1  H15B 3720   4.959   2.855   7.695  0.1923  0.3573  1.3786
   51CHL1   C16 3721   4.840   2.841   7.870  0.0695  0.5212  0.2588
   51CHL1  H16A 3722   4.857   2.760   7.945  0.8113 -0.3701 -0.8562
   51CHL1  H16B 3723   4.910   2.919   7.907  1.2376 -0.7932  0.9095
   51CHL1   C17 3724   4.697   2.890   7.891 -0.2213  0.1937  0.6800
   51CHL1   H17 3725   4.688   3.001   7.885 -2.0459  0.0282 -0.1549
   51CHL1   C13 3726   4.627   2.840   7.762  0.5896 -0.0879  0.1243
   51CHL1   C18 3727   4.591   2.685   7.779 -0.6382  0.3750  0.1854
   51CHL1  H18A 3728   4.566   2.635   7.683  0.0487 -1.0848  0.7506
   51CHL1  H18B 3729   4.664   2.619   7.831  0.1574  0.3251 -0.9806
   51CHL1  H18C 3730   4.501   2.681   7.844 -1.5825 -0.5820 -1.1445
   51CHL1   C12 3731   4.510   2.914   7.710 -0.2182 -0.9471  0.8079
   51CHL1  H12A 3732   4.416   2.897   7.766  0.8926 -3.0877  2.0862
   51CHL1  H12B 3733   4.535   3.023   7.715  2.0919 -1.4244  0.3974
   51CHL1   C11 3734   4.478   2.872   7.563 -0.3946  0.4001  0.0057
   51CHL1  H11A 3735   4.450   2.765   7.554 -0.3064  0.5140 -1.8260
   51CHL1  H11B 3736   4.400   2.940   7.525 -0.2183  0.9764  0.6546
   51CHL1    C9 3737   4.601   2.886   7.468 -0.1656  0.1513  0.0759
   51CHL1    H9 3738   4.626   2.994   7.463  0.3280  0.0518  0.3929
   51CHL1   C10 3739   4.581   2.844   7.313 -0.3490  0.2874 -1.1088
   51CHL1   C19 3740   4.508   2.707   7.307  0.6665 -0.2100  0.7435
   51CHL1  H19A 3741   4.407   2.715   7.352 -0.4858  1.6548 -1.9868
   51CHL1  H19B 3742   4.494   2.677   7.201 -0.9901  1.6043  0.4091
   51CHL1  H19C 3743   4.562   2.622   7.352  0.1467 -0.5724  0.6829
   51CHL1    C1 3744   4.496   2.960   7.246 -0.5310  0.4217 -0.0176
   51CHL1   H1A 3745   4.397   2.953   7.296  0.2795 -1.8492  1.3375
   51CHL1   H1B 3746   4.543   3.058   7.270  0.6823  0.0299 -0.7546
   51CHL1    C2 3747   4.490   2.942   7.095  0.3571 -0.2338  0.0557
   51CHL1   H2A 3748   4.432   3.022   7.043 -1.5084 -0.7561  1.2785
   51CHL1   H2B 3749   4.431   2.852   7.070 -0.4922  0.2969  0.1052
   51CHL1   C20 3750   4.627   2.853   8.020 -0.4537 -0.2558  0.4842
   51CHL1   H20 3751   4.593   2.748   8.031 -2.4013  0.6077  3.0554
   51CHL1   C21 3752   4.494   2.923   8.026  0.2887 -0.7751 -0.2696
   51CHL1  H21A 3753   4.409   2.855   8.002  0.2735 -1.0419  0.5429
   51CHL1  H21B 3754   4.483   3.003   7.950  1.5886 -0.3534 -0.0202
   51CHL1  H21C 3755   4.477   2.978   8.120 -0.8698  2.2444 -2.1810
   51CHL1   C22 3756   4.718   2.885   8.142  0.3076 -0.5416 -0.2035
   51CHL1  H22A 3757   4.670   2.855   8.238  0.7589 -1.1366 -0.1585
   51CHL1  H22B 3758   4.808   2.819   8.138  0.3163 -0.4436 -1.6487
   51CHL1   C23 3759   4.748   3.034   8.157 -0.3701  0.4599 -0.0626
   51CHL1  H23A 3760   4.775   3.076   8.057  1.7293  0.2833  0.4105
   51CHL1  H23B 3761   4.655   3.090   8.183  0.1815  0.8762  1.0572
   51CHL1   C24 3762   4.843   3.085   8.267 -0.4065 -0.4167 -1.2589
   51CHL1  H24A 3763   4.804   3.059   8.368  1.0234 -1.7933 -1.0544
   51CHL1  H24B 3764   4.939   3.031   8.260 -0.8970 -1.1887 -2.2788
   51CHL1   C25 3765   4.879   3.236   8.262 -0.0138 -0.5250  0.4514
   51CHL1   H25 3766   4.789   3.300   8.274  0.2725 -0.1805  0.7706
   51CHL1   C26 3767   4.973   3.273   8.380 -0.2463  0.0041  0.5948
   51CHL1  H26A 3768   4.978   3.382   8.399 -0.7279  0.1442 -0.0850
   51CHL1  H26B 3769   4.934   3.237   8.478 -0.0934 -1.1556  0.2448
   51CHL1  H26C 3770   5.074   3.227   8.372 -0.8386 -1.0630 -0.9857
   51CHL1   C27 3771   4.946   3.278   8.122  0.0107  0.3156 -0.1394
   51CHL1  H27A 3772   4.875   3.264   8.038 -0.0902 -1.8372  0.2910
   51CHL1  H27B 3773   5.006   3.372   8.128 -0.6524  0.9100 -2.2305
   51CHL1  H27C 3774   5.023   3.200   8.104 -0.8036 -0.2046 -1.4610
   52CHL1    C3 3775   0.186   3.752   7.037  0.0229 -0.7256  0.1885
   52CHL1    H3 3776   0.080   3.787   7.040  0.5690  0.9222  0.7649
   52CHL1    O3 3777   0.236   3.714   6.909 -0.2005  0.0428  0.1343
   52CHL1   H3' 3778   0.235   3.795   6.858 -1.7776 -1.0288 -1.6133
   52CHL1    C4 3779   0.272   3.863   7.091 -0.4007 -0.4206  0.0699
   52CHL1   H4A 3780   0.374   3.822   7.095 -1.0617 -1.9443  1.5423
   52CHL1   H4B 3781   0.284   3.946   7.018 -0.4281 -1.0747 -0.6861
   52CHL1    C5 3782   0.232   3.903   7.233  0.3417 -0.5145  0.0821
   52CHL1    C6 3783   0.197   4.028   7.267  0.1894 -0.2177 -0.3774
   52CHL1    H6 3784   0.197   4.102   7.185  0.7657  0.6161  0.3522
   52CHL1    C7 3785   0.161   4.075   7.409  0.4425  0.2959 -0.6885
   52CHL1   H7A 3786   0.221   4.161   7.445  3.2420 -0.7241 -2.7263
   52CHL1   H7B 3787   0.057   4.111   7.398  0.8974  1.4375 -1.3303
   52CHL1    C8 3788   0.175   3.953   7.516  0.4468 -0.3911  0.3962
   52CHL1    H8 3789   0.281   3.949   7.548 -0.1225  0.1837  2.4960
   52CHL1   C14 3790   0.087   3.980   7.635  0.2224 -0.6193  0.2272
   52CHL1   H14 3791  -0.017   3.975   7.597 -0.1080  1.6966  0.7138
   52CHL1   C15 3792   0.091   4.125   7.699  0.3404 -0.8215  0.0400
   52CHL1  H15A 3793   0.200   4.142   7.715  0.7425 -2.0996 -1.2702
   52CHL1  H15B 3794   0.046   4.200   7.631 -0.3192 -0.4329  0.8986
   52CHL1   C16 3795   0.027   4.104   7.835  0.5493 -0.0650 -0.4641
   52CHL1  H16A 3796   0.092   4.139   7.919  0.8904 -0.4552 -0.5592
   52CHL1  H16B 3797  -0.067   4.162   7.844  0.5833  0.0049 -0.5638
   52CHL1   C17 3798   0.006   3.949   7.856 -0.1937 -1.2680  0.3196
   52CHL1   H17 3799  -0.101   3.943   7.827 -0.3897 -0.3136  0.8097
   52CHL1   C13 3800   0.089   3.881   7.754 -0.3938  0.1697  0.4622
   52CHL1   C18 3801   0.235   3.878   7.808 -0.4246  0.2478 -0.5050
   52CHL1  H18A 3802   0.303   3.852   7.724 -0.0517 -0.9602  0.1551
   52CHL1  H18B 3803   0.261   3.977   7.851 -0.6301  0.4239 -0.7827
   52CHL1  H18C 3804   0.262   3.796   7.878 -1.9073 -0.5204 -0.8034
   52CHL1   C12 3805   0.050   3.742   7.686  0.4419  0.3059 -0.6231
   52CHL1  H12A 3806   0.057   3.658   7.760  3.4813  0.7309 -0.3614
   52CHL1  H12B 3807  -0.051   3.753   7.642  0.5766 -0.1290 -1.0479
   52CHL1   C11 3808   0.145   3.712   7.565  0.5138  0.2881  0.0308
   52CHL1  H11A 3809   0.247   3.702   7.606 -0.3264 -0.2177  2.0291
   52CHL1  H11B 3810   0.114   3.610   7.532 -0.6827  0.4645  0.5880
   52CHL1    C9 3811   0.135   3.821   7.455  0.2551 -1.0700  0.4708
   52CHL1    H9 3812   0.030   3.821   7.419  0.1650  2.3158  0.5588
   52CHL1   C10 3813   0.219   3.784   7.326  0.5131 -0.3255 -0.1512
   52CHL1   C19 3814   0.364   3.746   7.371 -0.4151 -0.2209 -0.7203
   52CHL1  H19A 3815   0.416   3.826   7.427 -2.2372  0.0817  0.6132
   52CHL1  H19B 3816   0.361   3.659   7.441 -0.9742  2.2010  2.4037
   52CHL1  H19C 3817   0.427   3.713   7.286 -1.5087 -1.0275 -1.2301
   52CHL1    C1 3818   0.140   3.659   7.265 -0.4015 -0.2774  0.4735
   52CHL1   H1A 3819   0.148   3.571   7.332  1.3516  0.6472  1.5116
   52CHL1   H1B 3820   0.032   3.680   7.252 -0.5654 -2.8289 -2.9947
   52CHL1    C2 3821   0.190   3.627   7.126 -0.3770  0.4062  0.2576
   52CHL1   H2A 3822   0.134   3.540   7.085 -3.2594  1.8648  1.0026
   52CHL1   H2B 3823   0.296   3.593   7.130 -0.7027 -0.5485  1.0763
   52CHL1   C20 3824   0.007   3.906   7.994 -0.9552  0.2203  0.4741
   52CHL1   H20 3825   0.107   3.908   8.044 -1.8606  3.5021  2.2890
   52CHL1   C21 3826  -0.031   3.755   8.000  0.1681  0.2276  0.7450
   52CHL1  H21A 3827   0.062   3.697   7.977 -0.8922 -1.3473  0.3644
   52CHL1  H21B 3828  -0.105   3.734   7.920  0.6409 -1.0391  0.6230
   52CHL1  H21C 3829  -0.068   3.705   8.092 -0.8608 -0.7332 -0.1714
   52CHL1   C22 3830  -0.086   3.984   8.095 -0.4118 -0.3500  0.0128
   52CHL1  H22A 3831  -0.074   4.093   8.083 -3.1441 -0.2987 -2.8832
   52CHL1  H22B 3832  -0.190   3.960   8.063 -0.4465 -0.4172  0.1750
   52CHL1   C23 3833  -0.074   3.943   8.242 -0.1916 -0.5457  0.1603
   52CHL1  H23A 3834  -0.175   3.953   8.287  0.3955  0.7127  1.1982
   52CHL1  H23B 3835  -0.052   3.836   8.262  0.3800 -0.7740 -1.5673
   52CHL1   C24 3836   0.028   4.031   8.323  0.4937  0.4138 -0.0419
   52CHL1  H24A 3837   0.129   4.040   8.278  0.4345  0.3750 -0.1801
   52CHL1  H24B 3838  -0.015   4.133   8.324 -0.7308 -0.0890  0.4602
   52CHL1   C25 3839   0.052   3.984   8.466  0.1095  0.2151 -0.2488
   52CHL1   H25 3840   0.089   3.880   8.460  1.6708  0.6675  0.9142
   52CHL1   C26 3841   0.167   4.065   8.523 -0.4999 -0.0014 -0.4508
   52CHL1  H26A 3842   0.136   4.169   8.549 -0.7255 -0.3433  0.7000
   52CHL1  H26B 3843   0.200   4.006   8.611  1.7936  2.0281  0.0875
   52CHL1  H26C 3844   0.256   4.071   8.458 -0.0946  1.6507  0.2399
   52CHL1   C27 3845  -0.071   3.992   8.559 -0.4489  1.1983 -0.6329
   52CHL1  H27A 3846  -0.154   3.926   8.528 -0.3972  2.4018 -3.4932
   52CHL1  H27B 3847  -0.039   3.962   8.661 -1.2714 -0.2130 -0.7857
   52CHL1  H27C 3848  -0.110   4.096   8.554 -1.4304  0.8377 -0.6238
   53CHL1    C3 3849   2.497   0.427   7.105 -0.1159 -0.5320 -0.5221
   53CHL1    H3 3850   2.540   0.529   7.115  0.2381 -0.8287  1.1229
   53CHL1    O3 3851   2.502   0.405   6.965  0.1101  0.0517  0.1561
   53CHL1   H3' 3852   2.424   0.444   6.925  0.7635 -0.7629 -1.9682
   53CHL1    C4 3853   2.600   0.333   7.165 -0.8484  0.3429 -0.2310
   53CHL1   H4A 3854   2.556   0.231   7.163  0.7496 -0.4152  1.8119
   53CHL1   H4B 3855   2.699   0.324   7.116 -1.6200 -0.9412 -1.5843
   53CHL1    C5 3856   2.628   0.377   7.310 -0.4976 -0.7689  0.0591
   53CHL1    C6 3857   2.758   0.395   7.354  0.3121 -0.1075  0.1130
   53CHL1    H6 3858   2.842   0.388   7.283  1.2330  0.4084  1.1356
   53CHL1    C7 3859   2.774   0.431   7.499  0.1287  0.3595 -0.9226
   53CHL1   H7A 3860   2.863   0.386   7.548 -1.4106 -1.2565  0.5027
   53CHL1   H7B 3861   2.804   0.537   7.500  0.1666  0.3613  1.9722
   53CHL1    C8 3862   2.653   0.404   7.594 -0.4329  0.0552  0.4985
   53CHL1    H8 3863   2.653   0.295   7.612  1.9859 -0.2030 -0.8712
   53CHL1   C14 3864   2.672   0.468   7.735 -0.6618  0.4383 -0.2565
   53CHL1   H14 3865   2.665   0.577   7.711  0.0139  0.6936  0.6867
   53CHL1   C15 3866   2.818   0.460   7.799  0.3558  0.9157 -0.0041
   53CHL1  H15A 3867   2.870   0.363   7.787 -0.2405  0.6144 -0.2141
   53CHL1  H15B 3868   2.875   0.545   7.756 -0.1455  2.0766  1.5930
   53CHL1   C16 3869   2.782   0.475   7.944 -0.6238 -0.6003  0.0781
   53CHL1  H16A 3870   2.822   0.384   7.994  0.9496 -0.3145 -0.6179
   53CHL1  H16B 3871   2.834   0.561   7.992  0.2139 -0.8486 -0.3753
   53CHL1   C17 3872   2.626   0.501   7.960  0.2747 -0.4250 -0.3531
   53CHL1   H17 3873   2.602   0.608   7.941  0.3052  0.0333  2.0637
   53CHL1   C13 3874   2.564   0.431   7.839  0.3629 -0.4365 -0.0024
   53CHL1   C18 3875   2.551   0.282   7.871  1.1666 -0.2035 -0.6103
   53CHL1  H18A 3876   2.445   0.269   7.902  0.6773  1.4062 -1.5981
   53CHL1  H18B 3877   2.566   0.220   7.780  0.3368  1.2896 -1.7812
   53CHL1  H18C 3878   2.627   0.239   7.940 -0.1389 -1.0261  0.3567
   53CHL1   C12 3879   2.437   0.505   7.776 -0.3445  0.4131  0.4239
   53CHL1  H12A 3880   2.364   0.509   7.859 -0.3755  1.5516  0.3510
   53CHL1  H12B 3881   2.468   0.610   7.758  0.8283  0.3713  2.1273
   53CHL1   C11 3882   2.405   0.442   7.634 -1.0225  0.1559  0.0236
   53CHL1  H11A 3883   2.375   0.336   7.646  1.9633 -0.8433 -0.9226
   53CHL1  H11B 3884   2.314   0.496   7.601  0.5868  2.3302 -0.9821
   53CHL1    C9 3885   2.520   0.453   7.534 -0.0514 -0.2692 -0.4387
   53CHL1    H9 3886   2.535   0.561   7.513 -1.8047  0.0662 -0.0557
   53CHL1   C10 3887   2.495   0.381   7.398  0.3040 -0.2258  0.1661
   53CHL1   C19 3888   2.447   0.236   7.427 -0.8560 -0.8243  0.5854
   53CHL1  H19A 3889   2.348   0.240   7.475 -0.6533 -2.0171  1.1079
   53CHL1  H19B 3890   2.441   0.168   7.339  0.8843 -0.1642 -0.0901
   53CHL1  H19C 3891   2.517   0.188   7.499  0.4821  0.9764  0.5427
   53CHL1    C1 3892   2.388   0.456   7.320 -0.1085 -1.1336  0.4375
   53CHL1   H1A 3893   2.287   0.463   7.367 -1.6584  0.8612 -2.9458
   53CHL1   H1B 3894   2.428   0.560   7.319 -1.4737 -0.5955 -0.0664
   53CHL1    C2 3895   2.364   0.420   7.171 -0.4070 -0.0678  0.1530
   53CHL1   H2A 3896   2.303   0.506   7.134  0.4750  0.3346 -0.3755
   53CHL1   H2B 3897   2.310   0.324   7.155 -0.5305 -0.1936  1.2518
   53CHL1   C20 3898   2.581   0.462   8.098 -0.3437 -0.2400 -0.5422
   53CHL1   H20 3899   2.588   0.352   8.111  1.7354  0.0065  0.7510
   53CHL1   C21 3900   2.436   0.519   8.112  0.2288 -0.1616 -0.4505
   53CHL1  H21A 3901   2.346   0.478   8.061 -0.3670 -1.7094  1.7386
   53CHL1  H21B 3902   2.434   0.630   8.109 -0.2606 -0.0381  2.3679
   53CHL1  H21C 3903   2.404   0.485   8.213 -0.9490 -3.6414 -1.9106
   53CHL1   C22 3904   2.665   0.525   8.213  0.1207 -0.0408 -0.0022
   53CHL1  H22A 3905   2.731   0.613   8.193  2.1684 -1.0644  1.9989
   53CHL1  H22B 3906   2.597   0.558   8.294 -0.5455  1.6353 -1.2276
   53CHL1   C23 3907   2.750   0.426   8.291  0.1976 -0.4087  0.8737
   53CHL1  H23A 3908   2.690   0.343   8.334 -0.8587  0.3311  0.8647
   53CHL1  H23B 3909   2.822   0.381   8.220 -1.5171  0.8158 -1.7231
   53CHL1   C24 3910   2.832   0.492   8.410 -0.3657 -0.4542  0.2992
   53CHL1  H24A 3911   2.911   0.549   8.357 -1.6233  1.1722  0.1273
   53CHL1  H24B 3912   2.766   0.561   8.466 -1.4635 -2.0925  1.0834
   53CHL1   C25 3913   2.882   0.398   8.518 -0.9366  0.0992  0.0968
   53CHL1   H25 3914   2.810   0.314   8.527 -0.8746  0.2221  1.9495
   53CHL1   C26 3915   3.025   0.349   8.485 -0.5538  0.2721  0.1131
   53CHL1  H26A 3916   3.045   0.308   8.384  3.2310  3.0912 -0.3662
   53CHL1  H26B 3917   3.083   0.441   8.465 -0.1016  0.5942  2.7519
   53CHL1  H26C 3918   3.077   0.287   8.562  1.4874  0.2210 -1.2863
   53CHL1   C27 3919   2.881   0.468   8.659 -0.7487  0.1794 -0.3680
   53CHL1  H27A 3920   2.952   0.554   8.662 -0.0628 -0.3588 -0.9428
   53CHL1  H27B 3921   2.782   0.514   8.678  0.1473  1.4613  1.4418
   53CHL1  H27C 3922   2.899   0.386   8.732 -0.2781  1.6694  1.2350
   54CHL1    C3 3923   3.318   2.022   7.081  0.3859 -0.4179 -0.8789
   54CHL1    H3 3924   3.368   2.119   7.105  0.9488 -0.3788 -2.1806
   54CHL1    O3 3925   3.327   1.998   6.944  0.4751  0.2420 -0.2692
   54CHL1   H3' 3926   3.317   1.902   6.941 -0.3724  0.2933  0.4770
   54CHL1    C4 3927   3.386   1.904   7.152 -0.0246  0.1114 -0.0717
   54CHL1   H4A 3928   3.327   1.814   7.122 -0.9096  0.9309 -0.8062
   54CHL1   H4B 3929   3.485   1.886   7.106  0.1294 -1.5710  0.8726
   54CHL1    C5 3930   3.370   1.919   7.301  0.1892 -0.1829 -0.3532
   54CHL1    C6 3931   3.479   1.914   7.376  0.3282 -0.0576  0.5927
   54CHL1    H6 3932   3.578   1.899   7.329 -0.3353 -1.3182 -0.4274
   54CHL1    C7 3933   3.478   1.921   7.529  0.6296  0.1326  0.6228
   54CHL1   H7A 3934   3.549   1.849   7.575  1.2666  1.8890  2.4930
   54CHL1   H7B 3935   3.514   2.023   7.554  1.0864  0.1732 -0.1996
   54CHL1    C8 3936   3.327   1.894   7.579 -0.0127 -0.1121 -1.3440
   54CHL1    H8 3937   3.300   1.787   7.569  0.0647 -0.1059 -1.6444
   54CHL1   C14 3938   3.324   1.934   7.728 -0.3530 -0.0354 -0.2732
   54CHL1   H14 3939   3.354   2.041   7.733  0.4033 -0.3028  1.1198
   54CHL1   C15 3940   3.422   1.864   7.831 -0.2417 -0.6443  0.0226
   54CHL1  H15A 3941   3.410   1.756   7.805 -0.0308 -0.8051  0.5978
   54CHL1  H15B 3942   3.523   1.901   7.803  0.5452 -2.4997  0.3220
   54CHL1   C16 3943   3.363   1.899   7.970  0.1024  0.2176  0.5300
   54CHL1  H16A 3944   3.355   1.802   8.024  1.3262 -0.2276 -0.0597
   54CHL1  H16B 3945   3.438   1.959   8.026 -1.0473  0.7063  1.5590
   54CHL1   C17 3946   3.226   1.964   7.945  0.4995 -0.1086 -0.6609
   54CHL1   H17 3947   3.246   2.073   7.944 -0.0586 -0.0033 -0.5982
   54CHL1   C13 3948   3.184   1.926   7.797  0.1358  0.5967  0.3495
   54CHL1   C18 3949   3.135   1.774   7.797  0.3570  0.1476 -0.0415
   54CHL1  H18A 3950   3.147   1.729   7.696 -0.3615 -0.2501  0.0541
   54CHL1  H18B 3951   3.193   1.719   7.874  2.3058  0.3949 -1.2888
   54CHL1  H18C 3952   3.027   1.784   7.819  0.3740  0.5997 -0.1614
   54CHL1   C12 3953   3.095   2.031   7.723 -0.2277  0.1113  0.0354
   54CHL1  H12A 3954   2.998   2.032   7.776  1.7587 -0.2908  3.8577
   54CHL1  H12B 3955   3.144   2.130   7.723 -1.7965  0.9082 -1.1857
   54CHL1   C11 3956   3.083   1.983   7.580 -0.1218  0.3766 -0.0728
   54CHL1  H11A 3957   3.023   1.892   7.564 -0.2604  0.6995 -1.4287
   54CHL1  H11B 3958   3.033   2.060   7.518 -1.6794 -0.2251  0.4043
   54CHL1    C9 3959   3.230   1.980   7.510 -0.0907 -0.3407  1.2466
   54CHL1    H9 3960   3.272   2.082   7.523  0.4885 -0.1126 -2.0486
   54CHL1   C10 3961   3.232   1.945   7.358  0.0712 -0.0535  0.3589
   54CHL1   C19 3962   3.152   1.811   7.339  0.1458  0.1074  0.3077
   54CHL1  H19A 3963   3.047   1.843   7.358 -0.3651 -1.4315  0.1373
   54CHL1  H19B 3964   3.152   1.771   7.235  0.4132 -1.3969  0.8710
   54CHL1  H19C 3965   3.187   1.732   7.409 -0.6157  0.1653  0.7636
   54CHL1    C1 3966   3.162   2.057   7.273 -0.0598 -0.4091  0.9423
   54CHL1   H1A 3967   3.057   2.058   7.309 -1.3299  0.2402 -2.6082
   54CHL1   H1B 3968   3.208   2.156   7.293  0.1541  0.1595 -2.2391
   54CHL1    C2 3969   3.170   2.029   7.124  0.3831  0.5555 -0.2602
   54CHL1   H2A 3970   3.119   2.107   7.064 -2.6478 -0.9034  0.3670
   54CHL1   H2B 3971   3.131   1.933   7.087  1.4975  0.8598 -2.2894
   54CHL1   C20 3972   3.125   1.944   8.056 -0.3318  0.0939 -0.1237
   54CHL1   H20 3973   3.094   1.838   8.068 -1.4175  0.6191  1.8721
   54CHL1   C21 3974   2.992   2.024   8.027 -0.2215 -0.1867  0.0923
   54CHL1  H21A 3975   3.025   2.124   7.991 -1.2158 -0.4376 -1.5944
   54CHL1  H21B 3976   2.937   2.027   8.123  2.0659 -0.5440  1.4611
   54CHL1  H21C 3977   2.926   1.982   7.949 -1.0967  1.3611 -0.0324
   54CHL1   C22 3978   3.180   1.997   8.184  1.0170  0.2631  0.3047
   54CHL1  H22A 3979   3.276   1.948   8.208  0.2767 -0.6197  1.4911
   54CHL1  H22B 3980   3.193   2.107   8.176  0.2351  0.2976 -0.6133
   54CHL1   C23 3981   3.085   1.968   8.307 -0.5946 -0.0027  0.5644
   54CHL1  H23A 3982   3.008   2.046   8.326 -0.9532 -1.0176  3.4026
   54CHL1  H23B 3983   3.023   1.881   8.275  0.9179 -0.1748 -2.0177
   54CHL1   C24 3984   3.172   1.935   8.438  0.2545 -0.2664 -0.1724
   54CHL1  H24A 3985   3.100   1.886   8.507 -3.2251  2.0235 -1.9638
   54CHL1  H24B 3986   3.254   1.867   8.409  0.6033 -1.1631  2.7593
   54CHL1   C25 3987   3.243   2.058   8.489  0.2471  0.4755 -0.3230
   54CHL1   H25 3988   3.275   2.113   8.397  2.9080 -0.4701 -0.0134
   54CHL1   C26 3989   3.150   2.140   8.564  0.0595 -0.4372 -0.1789
   54CHL1  H26A 3990   3.197   2.234   8.601  1.7098 -1.5526  0.6335
   54CHL1  H26B 3991   3.064   2.164   8.499 -0.6066  1.6087  1.4271
   54CHL1  H26C 3992   3.121   2.091   8.659  2.3207  1.4646  1.5442
   54CHL1   C27 3993   3.367   2.026   8.577  0.2462  0.1373  0.0143
   54CHL1  H27A 3994   3.423   1.937   8.540 -1.2165 -0.9878  0.4628
   54CHL1  H27B 3995   3.449   2.101   8.571  2.2708 -1.9451  1.0166
   54CHL1  H27C 3996   3.348   2.011   8.685  0.2400 -2.0044 -0.2609
   55CHL1    C3 3997   2.767   3.549   6.993  0.4438  0.2793  0.0371
   55CHL1    H3 3998   2.869   3.507   6.985  0.4693  0.4768 -0.6748
   55CHL1    O3 3999   2.751   3.628   6.878 -0.0785  0.0963  0.3819
   55CHL1   H3' 4000   2.677   3.589   6.830 -1.8963  2.5466  1.0952
   55CHL1    C4 4001   2.653   3.437   7.007 -0.0107  0.2602 -0.0091
   55CHL1   H4A 4002   2.552   3.478   6.987  0.1149  0.4559 -0.2480
   55CHL1   H4B 4003   2.655   3.365   6.921 -2.9551  0.2692 -0.1434
   55CHL1    C5 4004   2.638   3.366   7.138 -0.5879  0.7187  0.4322
   55CHL1    C6 4005   2.657   3.235   7.142 -0.9249 -0.0135  0.4735
   55CHL1    H6 4006   2.667   3.181   7.047 -2.2492  1.4834 -0.5222
   55CHL1    C7 4007   2.663   3.153   7.265 -0.1874 -0.0297 -0.8882
   55CHL1   H7A 4008   2.603   3.061   7.249 -1.0472  0.3645 -0.0240
   55CHL1   H7B 4009   2.771   3.135   7.286 -0.0938  1.6478  0.1784
   55CHL1    C8 4010   2.613   3.231   7.393  0.5048  0.0686  0.7523
   55CHL1    H8 4011   2.502   3.233   7.396  0.4501  1.0598 -1.1369
   55CHL1   C14 4012   2.649   3.146   7.516 -0.9023 -0.7573  0.5761
   55CHL1   H14 4013   2.759   3.136   7.504 -1.0515  0.7543 -2.5523
   55CHL1   C15 4014   2.600   3.006   7.532 -0.5354  0.5860 -0.2872
   55CHL1  H15A 4015   2.490   3.013   7.525 -0.4356  0.8516 -1.7713
   55CHL1  H15B 4016   2.632   2.931   7.456  0.2499 -0.0547  0.6636
   55CHL1   C16 4017   2.645   2.965   7.671 -0.3890  0.2721  0.1729
   55CHL1  H16A 4018   2.554   2.922   7.717 -1.0263  1.0664 -0.3408
   55CHL1  H16B 4019   2.727   2.890   7.673 -0.2489  0.4328  0.4255
   55CHL1   C17 4020   2.693   3.097   7.744 -0.7425 -0.4173  0.1170
   55CHL1   H17 4021   2.801   3.095   7.720 -0.4926  0.3953  1.1650
   55CHL1   C13 4022   2.638   3.217   7.657  0.1645  1.3195  0.2080
   55CHL1   C18 4023   2.488   3.232   7.704 -0.3451 -0.1834  0.0035
   55CHL1  H18A 4024   2.424   3.271   7.622  3.8463  1.1801 -2.8418
   55CHL1  H18B 4025   2.450   3.130   7.723 -0.5240 -0.3565 -1.2276
   55CHL1  H18C 4026   2.482   3.301   7.791  3.1170  2.7063 -1.8850
   55CHL1   C12 4027   2.705   3.353   7.655  1.5188 -0.6565 -0.2113
   55CHL1  H12A 4028   2.686   3.406   7.750 -3.2660 -2.6901  0.0971
   55CHL1  H12B 4029   2.811   3.324   7.636  2.1284 -0.3193  2.4772
   55CHL1   C11 4030   2.654   3.443   7.537  0.0779 -0.7363  0.9641
   55CHL1  H11A 4031   2.545   3.457   7.555 -0.1210 -2.1436  0.9483
   55CHL1  H11B 4032   2.708   3.540   7.540  2.0364 -1.7114 -0.9930
   55CHL1    C9 4033   2.673   3.373   7.393  0.4959  0.1212 -0.2396
   55CHL1    H9 4034   2.783   3.363   7.379  0.7382  2.1939  0.0146
   55CHL1   C10 4035   2.645   3.452   7.261  0.0995  0.0776 -0.4066
   55CHL1   C19 4036   2.507   3.529   7.274  0.4233  0.1913 -0.0955
   55CHL1  H19A 4037   2.484   3.590   7.184 -2.0180  0.0985  0.4104
   55CHL1  H19B 4038   2.427   3.455   7.296 -0.0534 -0.3307 -3.3469
   55CHL1  H19C 4039   2.509   3.597   7.362 -0.7606 -0.0831  0.1576
   55CHL1    C1 4040   2.760   3.559   7.255 -0.0802  0.5941  0.4515
   55CHL1   H1A 4041   2.747   3.629   7.340  0.5754  1.3837 -0.0958
   55CHL1   H1B 4042   2.857   3.504   7.259  0.1491  0.9239 -0.3794
   55CHL1    C2 4043   2.761   3.643   7.120 -0.1322  0.5541  0.1546
   55CHL1   H2A 4044   2.850   3.710   7.127  0.5780 -0.2193 -1.1467
   55CHL1   H2B 4045   2.674   3.710   7.109  1.2376  2.3559  0.0704
   55CHL1   C20 4046   2.680   3.094   7.889  0.2308 -0.3450 -0.3746
   55CHL1   H20 4047   2.574   3.104   7.922  0.4691  6.1623 -0.9503
   55CHL1   C21 4048   2.770   3.198   7.961  0.1911 -0.4354 -0.0116
   55CHL1  H21A 4049   2.877   3.200   7.931  0.2880  2.2011  0.4326
   55CHL1  H21B 4050   2.760   3.209   8.071  0.5519  1.1077 -0.1221
   55CHL1  H21C 4051   2.740   3.298   7.924  0.9097  0.4890  1.8834
   55CHL1   C22 4052   2.713   2.952   7.943 -0.2340 -0.2215 -0.1550
   55CHL1  H22A 4053   2.644   2.874   7.905 -1.7498  1.4995 -0.9973
   55CHL1  H22B 4054   2.818   2.918   7.925  0.1888  0.5334  0.8110
   55CHL1   C23 4055   2.703   2.931   8.097  0.1905  0.2558 -1.1489
   55CHL1  H23A 4056   2.796   2.974   8.141  0.3895 -0.3574 -0.9598
   55CHL1  H23B 4057   2.626   3.008   8.117 -0.2077 -0.3964 -0.1140
   55CHL1   C24 4058   2.670   2.791   8.155 -0.1043 -0.5010 -0.1317
   55CHL1  H24A 4059   2.571   2.751   8.125 -1.4523  0.7597  2.4455
   55CHL1  H24B 4060   2.751   2.717   8.136 -1.2261 -1.8549  0.2416
   55CHL1   C25 4061   2.679   2.797   8.311  0.5813 -0.3400 -0.0946
   55CHL1   H25 4062   2.779   2.834   8.344 -0.6106  0.9952  2.1228
   55CHL1   C26 4063   2.567   2.884   8.374 -0.1612 -0.2846  0.0287
   55CHL1  H26A 4064   2.565   2.859   8.483 -4.1033  0.0976  0.1004
   55CHL1  H26B 4065   2.590   2.992   8.365  2.0847 -0.7963 -0.6469
   55CHL1  H26C 4066   2.463   2.858   8.347 -0.4748 -0.2040  1.1191
   55CHL1   C27 4067   2.655   2.656   8.370  0.1475 -0.0564  0.4957
   55CHL1  H27A 4068   2.741   2.596   8.336  1.0324  2.7914 -2.6311
   55CHL1  H27B 4069   2.655   2.653   8.481  0.0215  1.1597  0.5378
   55CHL1  H27C 4070   2.555   2.620   8.336  1.6866 -2.7139 -1.3461
   56CHL1    C3 4071   1.877   1.468   6.919 -0.1600  0.1883  0.2439
   56CHL1    H3 4072   1.833   1.568   6.941  0.3365  0.4415  0.1072
   56CHL1    O3 4073   1.877   1.445   6.782 -0.3384  0.0081 -0.2922
   56CHL1   H3' 4074   1.907   1.354   6.778  0.5577  0.2683  0.4336
   56CHL1    C4 4075   2.017   1.468   6.978  0.5280 -0.4881 -0.0331
   56CHL1   H4A 4076   2.059   1.369   6.951  2.2271 -0.0320  0.8387
   56CHL1   H4B 4077   2.080   1.545   6.928 -2.6539  1.3450 -1.3908
   56CHL1    C5 4078   2.019   1.480   7.132  0.6094 -0.5588 -0.0792
   56CHL1    C6 4079   2.102   1.575   7.185 -0.1960  0.3013 -0.1730
   56CHL1    H6 4080   2.158   1.634   7.111  0.4366 -0.5731 -0.4089
   56CHL1    C7 4081   2.126   1.586   7.334  0.3562  0.1806  0.1412
   56CHL1   H7A 4082   2.231   1.606   7.365  0.1981 -0.1423  0.8900
   56CHL1   H7B 4083   2.072   1.676   7.370  0.1412 -0.2186  0.8111
   56CHL1    C8 4084   2.062   1.459   7.408  0.8184  0.2064 -0.0644
   56CHL1    H8 4085   2.140   1.382   7.392  0.5344  0.6019 -3.9286
   56CHL1   C14 4086   2.054   1.491   7.558 -0.0941  0.1597  0.0122
   56CHL1   H14 4087   1.976   1.568   7.576 -2.2135 -1.7645 -0.6060
   56CHL1   C15 4088   2.176   1.543   7.621  0.1899  0.0532 -0.5183
   56CHL1  H15A 4089   2.267   1.482   7.604  1.2231  0.8229  1.9506
   56CHL1  H15B 4090   2.198   1.646   7.586 -0.0125  1.4567  3.2576
   56CHL1   C16 4091   2.134   1.539   7.768 -0.9522  0.1068  0.0027
   56CHL1  H16A 4092   2.220   1.514   7.833 -1.5398 -1.2538  0.2647
   56CHL1  H16B 4093   2.114   1.640   7.810 -1.7912  0.3512 -0.9581
   56CHL1   C17 4094   2.015   1.433   7.791  0.2720 -0.4395 -0.5004
   56CHL1   H17 4095   1.932   1.504   7.810  0.9331  0.2972 -0.3295
   56CHL1   C13 4096   1.999   1.378   7.642 -0.1093  0.7139 -0.1138
   56CHL1   C18 4097   2.096   1.257   7.639 -0.2663  0.2562  0.1081
   56CHL1  H18A 4098   2.199   1.276   7.676 -0.0696 -0.7233  0.0822
   56CHL1  H18B 4099   2.048   1.173   7.694 -1.3080  0.3512 -0.6584
   56CHL1  H18C 4100   2.110   1.220   7.536  0.8128 -2.0292  1.0472
   56CHL1   C12 4101   1.864   1.343   7.595  0.2220  0.0853  0.7439
   56CHL1  H12A 4102   1.826   1.254   7.649 -0.0727  0.6360  1.4423
   56CHL1  H12B 4103   1.801   1.434   7.606  1.2327  0.5384  3.0525
   56CHL1   C11 4104   1.862   1.300   7.448 -0.0172  0.1967 -0.0048
   56CHL1  H11A 4105   1.920   1.206   7.440  0.1836  0.3310 -0.1285
   56CHL1  H11B 4106   1.759   1.284   7.410 -0.4701  0.9820  0.8822
   56CHL1    C9 4107   1.927   1.405   7.354  0.1666  0.2579 -0.2182
   56CHL1    H9 4108   1.860   1.493   7.359  1.2014  1.0278  0.3212
   56CHL1   C10 4109   1.925   1.377   7.204 -0.0092 -0.1973  0.0199
   56CHL1   C19 4110   1.963   1.226   7.183  0.2897 -0.1191  0.1295
   56CHL1  H19A 4111   1.869   1.171   7.206  1.1166 -2.1048 -1.1250
   56CHL1  H19B 4112   1.986   1.207   7.076  1.4832 -0.4971  0.4539
   56CHL1  H19C 4113   2.029   1.189   7.264  0.3406 -2.7608 -1.0645
   56CHL1    C1 4114   1.791   1.412   7.146 -0.0493  0.5423 -0.2603
   56CHL1   H1A 4115   1.719   1.351   7.204  1.2101 -1.3281 -0.6104
   56CHL1   H1B 4116   1.761   1.517   7.162 -0.4290  0.8314 -2.6760
   56CHL1    C2 4117   1.780   1.372   6.996 -0.3435 -0.2334 -0.0198
   56CHL1   H2A 4118   1.674   1.391   6.965  0.1943  0.9007 -1.2201
   56CHL1   H2B 4119   1.812   1.269   6.968  1.2468  0.4668 -0.8330
   56CHL1   C20 4120   2.024   1.349   7.920 -0.0824 -0.0959  0.2624
   56CHL1   H20 4121   2.092   1.262   7.906 -2.7193 -2.2335  0.4269
   56CHL1   C21 4122   1.881   1.282   7.943  0.4298 -0.3315  0.1752
   56CHL1  H21A 4123   1.855   1.198   7.876 -1.4497  0.4990 -0.1686
   56CHL1  H21B 4124   1.799   1.356   7.932  0.9204 -0.3268 -4.0309
   56CHL1  H21C 4125   1.885   1.229   8.041  2.4389 -0.8482 -0.1646
   56CHL1   C22 4126   2.055   1.421   8.051 -0.5983 -0.2635 -0.3020
   56CHL1  H22A 4127   2.077   1.353   8.136  1.5870  1.7411  0.8036
   56CHL1  H22B 4128   2.147   1.481   8.035  0.1261 -0.8762  1.3733
   56CHL1   C23 4129   1.950   1.516   8.112  0.1428 -0.1819 -0.4060
   56CHL1  H23A 4130   1.913   1.594   8.042  0.8062 -1.0107 -1.6988
   56CHL1  H23B 4131   1.877   1.447   8.159 -1.4688  1.2827 -0.7151
   56CHL1   C24 4132   1.996   1.586   8.236 -0.3242 -0.4510 -0.0978
   56CHL1  H24A 4133   2.033   1.507   8.305 -0.6281 -0.8642 -0.4132
   56CHL1  H24B 4134   2.076   1.660   8.214  0.9330 -0.9601  2.5060
   56CHL1   C25 4135   1.884   1.655   8.321 -0.0045 -0.5880  0.0499
   56CHL1   H25 4136   1.799   1.584   8.313 -0.2145 -0.1846 -1.5408
   56CHL1   C26 4137   1.912   1.684   8.468 -0.6639 -0.2825  0.2863
   56CHL1  H26A 4138   1.851   1.764   8.513 -0.6102  0.4244 -0.8788
   56CHL1  H26B 4139   2.021   1.700   8.474 -0.6599 -0.4296  0.5986
   56CHL1  H26C 4140   1.893   1.591   8.526  0.1540 -0.5272  0.1573
   56CHL1   C27 4141   1.832   1.787   8.258  0.1861 -0.1611  0.4504
   56CHL1  H27A 4142   1.721   1.783   8.261  0.2139 -0.4925  1.1823
   56CHL1  H27B 4143   1.889   1.874   8.295 -1.9625  2.0725 -1.3543
   56CHL1  H27C 4144   1.840   1.762   8.150  1.7645 -2.3814  1.0257
   57SAPC     N 4145   2.110   5.124  10.853 -0.0364 -0.4067 -0.3613
   57SAPC   C12 4146   1.998   5.176  10.764 -1.3971  0.0450 -0.2004
   57SAPC  H12A 4147   1.975   5.107  10.684 -0.8438 -1.7943  1.2101
   57SAPC  H12B 4148   2.019   5.267  10.710 -0.3893  0.6251  1.1500
   57SAPC   C13 4149   2.139   5.232  10.959  0.4072 -0.1854  0.0677
   57SAPC  H13A 4150   2.048   5.257  11.011  1.1457  2.5929  0.1231
   57SAPC  H13B 4151   2.206   5.200  11.037 -0.7377  0.4585  1.3310
   57SAPC  H13C 4152   2.161   5.328  10.914  0.1442 -0.3717 -0.4588
   57SAPC   C14 4153   2.073   5.000  10.936  0.2251  0.4144 -0.0672
   57SAPC  H14A 4154   2.154   4.981  11.005  0.6381  0.8582 -0.4202
   57SAPC  H14B 4155   1.995   5.021  11.008  0.5487 -1.9126  0.9919
   57SAPC  H14C 4156   2.056   4.912  10.876  2.3783 -0.4636  0.5804
   57SAPC   C15 4157   2.235   5.096  10.779  0.2165  0.4101  0.5991
   57SAPC  H15A 4158   2.272   5.181  10.723 -2.7186  0.4219 -1.4249
   57SAPC  H15B 4159   2.308   5.078  10.856 -1.7772 -1.6071  2.0959
   57SAPC  H15C 4160   2.240   5.005  10.721  0.5248  0.7200  0.1366
   57SAPC   C11 4161   1.860   5.197  10.828  0.4823  0.2021 -0.0340
   57SAPC  H11A 4162   1.875   5.263  10.917  0.8200  0.8613 -0.5744
   57SAPC  H11B 4163   1.810   5.102  10.856  0.0117  0.8553  1.4035
   57SAPC     P 4164   1.777   5.419  10.703 -0.1061 -0.1565  0.4329
   57SAPC   O13 4165   1.659   5.483  10.760 -0.4362  0.0454  0.1416
   57SAPC   O14 4166   1.906   5.477  10.752 -0.8486  0.1273  0.7496
   57SAPC   O12 4167   1.780   5.266  10.733  0.4497  0.0805 -0.4181
   57SAPC   O11 4168   1.761   5.428  10.550  0.4100 -0.2958  0.0032
   57SAPC    C1 4169   1.869   5.383  10.464  0.1767 -0.4054 -0.0166
   57SAPC    HA 4170   1.952   5.453  10.485  0.8056 -1.3678  0.7524
   57SAPC    HB 4171   1.894   5.276  10.480 -1.2889 -0.4882  1.9264
   57SAPC    C2 4172   1.814   5.401  10.318 -0.0148 -0.2672 -0.5460
   57SAPC    HS 4173   1.858   5.320  10.257 -0.1606 -0.4529 -0.4061
   57SAPC   O21 4174   1.834   5.532  10.266 -0.2384 -0.1573  0.1751
   57SAPC   C21 4175   1.966   5.557  10.238  0.4423 -0.9407 -0.5619
   57SAPC   O22 4176   2.053   5.478  10.259 -0.0061 -0.0750 -0.2007
   57SAPC   C22 4177   1.983   5.690  10.164  0.7244 -0.1677 -0.0616
   57SAPC   H2R 4178   1.886   5.744  10.153  0.5354  0.0524  2.3289
   57SAPC   H2S 4179   2.032   5.762  10.233  2.2290 -0.1423 -1.1469
   57SAPC    C3 4180   1.668   5.363  10.299  0.0587  0.1828 -0.3416
   57SAPC    HX 4181   1.604   5.439  10.349 -0.3238 -1.3255  1.4830
   57SAPC    HY 4182   1.653   5.263  10.346 -1.4019  0.0962 -0.9597
   57SAPC   O31 4183   1.626   5.351  10.160  0.0890 -0.2077 -0.1845
   57SAPC   C31 4184   1.565   5.456  10.104 -0.6147 -0.7081  0.3182
   57SAPC   O32 4185   1.494   5.535  10.167 -0.0638 -0.4111 -0.5930
   57SAPC   C32 4186   1.612   5.468   9.964  0.0994 -0.4795  0.1004
   57SAPC   H2X 4187   1.562   5.386   9.908 -1.0912 -0.6786  1.4256
   57SAPC   H2Y 4188   1.717   5.434   9.958  1.2343  2.6775  1.4341
   57SAPC   C23 4189   2.063   5.679  10.033  0.2119  0.2563  0.5466
   57SAPC   H3R 4190   2.159   5.625  10.049  1.0825  1.3430 -0.9405
   57SAPC   H3S 4191   2.088   5.783  10.006 -0.2707  0.6170  1.4549
   57SAPC   C24 4192   1.979   5.612   9.916 -0.3353  0.7139 -0.1756
   57SAPC   H4R 4193   1.913   5.685   9.863 -2.9893 -1.6993 -0.2835
   57SAPC   H4S 4194   1.911   5.541   9.966  1.2728  0.7032  2.0795
   57SAPC   C25 4195   2.071   5.542   9.818  0.6090 -0.4654  0.2947
   57SAPC   H5R 4196   2.144   5.613   9.776 -0.0774 -0.2198 -0.4861
   57SAPC   C26 4197   2.057   5.413   9.775 -0.3264 -0.3767 -0.0717
   57SAPC   H6R 4198   2.127   5.375   9.699 -0.5160  2.8669 -1.9754
   57SAPC   C27 4199   1.957   5.307   9.814 -0.2194  0.5784 -0.8358
   57SAPC   H7R 4200   1.884   5.328   9.896  0.3374 -1.5652  0.2478
   57SAPC   H7S 4201   2.006   5.219   9.861 -0.7742  0.4228 -0.5422
   57SAPC   C28 4202   1.869   5.276   9.694 -0.8928 -0.2551  0.5194
   57SAPC   H8R 4203   1.789   5.347   9.668  2.1291  2.0447 -3.0850
   57SAPC   C29 4204   1.886   5.165   9.613 -0.2610  0.0274 -0.4833
   57SAPC   H9R 4205   1.832   5.160   9.517 -1.4991  1.0578  0.1400
   57SAPC  C210 4206   1.973   5.047   9.638 -0.2229  0.0574  0.4956
   57SAPC  H10R 4207   1.921   4.959   9.594  2.8320 -1.4787 -0.2415
   57SAPC  H10S 4208   1.983   5.024   9.746  0.0041 -0.1911  0.4241
   57SAPC  C211 4209   2.105   5.054   9.565 -0.5241  0.4615 -0.3346
   57SAPC  H11R 4210   2.148   5.156   9.570  0.4524  0.0310  0.2915
   57SAPC  C212 4211   2.178   4.955   9.511 -0.3306 -1.0502 -0.6165
   57SAPC  H12R 4212   2.277   4.973   9.466  1.0062 -3.5928  1.1852
   57SAPC  C213 4213   2.143   4.806   9.512 -0.1936 -0.5050  0.6472
   57SAPC  H13R 4214   2.092   4.792   9.414  1.8382 -0.3266 -0.4601
   57SAPC  H13S 4215   2.064   4.784   9.586  0.6649 -0.8742  1.4648
   57SAPC  C214 4216   2.250   4.702   9.523 -0.1952  0.3191 -0.0759
   57SAPC  H14R 4217   2.281   4.655   9.429  0.3624  1.9502 -0.7038
   57SAPC  C215 4218   2.327   4.677   9.638 -0.0880 -0.5502 -0.5615
   57SAPC  H15R 4219   2.403   4.598   9.641 -0.2024 -0.6413 -0.0019
   57SAPC  C216 4220   2.319   4.756   9.769 -0.2595  0.0925 -0.0542
   57SAPC  H16R 4221   2.276   4.859   9.762 -0.6400 -0.0242  0.5418
   57SAPC  H16S 4222   2.419   4.762   9.816  0.4206 -0.6187 -1.3955
   57SAPC  C217 4223   2.243   4.677   9.879  0.0230  0.5420 -0.1130
   57SAPC  H17R 4224   2.297   4.579   9.883 -0.7874  0.0513 -0.9377
   57SAPC  H17S 4225   2.140   4.655   9.846 -0.1591 -0.6497  1.2139
   57SAPC  C218 4226   2.250   4.749  10.018 -0.6592 -0.0017 -0.1645
   57SAPC  H18R 4227   2.203   4.850  10.016 -0.5532  0.0323 -1.8270
   57SAPC  H18S 4228   2.353   4.766  10.056 -0.2348 -1.0926 -0.7873
   57SAPC  C219 4229   2.183   4.658  10.118 -0.3296  0.5789 -0.4542
   57SAPC  H19R 4230   2.229   4.557  10.109 -0.0261  0.7089 -0.3484
   57SAPC  H19S 4231   2.074   4.653  10.095 -0.5074  1.4971  0.1686
   57SAPC  C220 4232   2.187   4.707  10.258 -0.0468  0.0242 -1.0270
   57SAPC  H20R 4233   2.289   4.689  10.296 -0.5957  0.5005  0.7199
   57SAPC  H20S 4234   2.112   4.663  10.328 -1.2732  3.4904 -0.0422
   57SAPC  H20T 4235   2.166   4.816  10.265 -4.2486 -0.9024  3.8422
   57SAPC   C33 4236   1.571   5.595   9.887 -0.3437 -0.8433  0.1781
   57SAPC   H3X 4237   1.661   5.659   9.873 -0.6048 -0.6123 -0.4506
   57SAPC   H3Y 4238   1.492   5.655   9.939  0.0910 -0.2005  0.1012
   57SAPC   C34 4239   1.525   5.560   9.747  1.0561  0.6707 -0.9097
   57SAPC   H4X 4240   1.428   5.507   9.750  0.0633  2.4686  0.3994
   57SAPC   H4Y 4241   1.608   5.498   9.708  1.4131  1.2716 -1.1221
   57SAPC   C35 4242   1.513   5.678   9.652  0.2679 -0.5476  0.1826
   57SAPC   H5X 4243   1.615   5.719   9.632 -0.5874  1.8243  0.5119
   57SAPC   H5Y 4244   1.469   5.758   9.716  2.2410  0.2352  0.6259
   57SAPC   C36 4245   1.428   5.657   9.528 -0.1896  0.0210  0.4083
   57SAPC   H6X 4246   1.358   5.743   9.523  1.4001  1.4253  1.7463
   57SAPC   H6Y 4247   1.366   5.566   9.537  1.3888 -1.0660  0.4792
   57SAPC   C37 4248   1.508   5.658   9.392 -0.0693  0.4801 -0.3092
   57SAPC   H7X 4249   1.581   5.574   9.397 -0.6546  0.1003  2.7973
   57SAPC   H7Y 4250   1.558   5.755   9.368  0.1469 -0.3993 -3.7239
   57SAPC   C38 4251   1.417   5.627   9.273  0.4469 -0.3405  0.7642
   57SAPC   H8X 4252   1.340   5.704   9.295  1.7058  1.0916  0.2819
   57SAPC   H8Y 4253   1.372   5.525   9.270  0.0361 -0.1348 -0.8641
   57SAPC   C39 4254   1.476   5.659   9.139 -0.5570  1.0517  0.2417
   57SAPC   H9X 4255   1.572   5.604   9.134 -0.6702  0.5575  2.9603
   57SAPC   H9Y 4256   1.498   5.767   9.122 -0.5851  1.0756  0.3630
   57SAPC  C310 4257   1.375   5.618   9.032 -0.3457  0.2017 -0.0482
   57SAPC  H10X 4258   1.278   5.666   9.054  0.0834  0.0896  2.1347
   57SAPC  H10Y 4259   1.372   5.507   9.032 -1.4377  0.2345  0.4191
   57SAPC  C311 4260   1.418   5.630   8.885 -0.9873 -0.1825 -0.1506
   57SAPC  H11X 4261   1.335   5.615   8.813 -0.9377  2.0166 -0.7232
   57SAPC  H11Y 4262   1.495   5.555   8.856 -0.4023  0.4063 -0.1454
   57SAPC  C312 4263   1.481   5.768   8.840  0.3704  0.7833 -0.4286
   57SAPC  H12X 4264   1.566   5.800   8.905 -0.5664  0.4472  0.9945
   57SAPC  H12Y 4265   1.393   5.835   8.828 -1.9800 -1.9397  0.9207
   57SAPC  C313 4266   1.536   5.748   8.692 -0.0026 -0.6345 -0.3400
   57SAPC  H13X 4267   1.452   5.727   8.623 -0.9279  1.1048  0.2390
   57SAPC  H13Y 4268   1.607   5.662   8.691  0.9280  0.1029  0.5218
   57SAPC  C314 4269   1.613   5.870   8.631 -0.0325  0.2289 -0.0635
   57SAPC  H14X 4270   1.552   5.960   8.653 -2.1190 -0.8098 -1.3015
   57SAPC  H14Y 4271   1.620   5.854   8.521 -0.0001  0.4712 -0.0964
   57SAPC  C315 4272   1.752   5.891   8.689 -0.6137 -0.0488  1.1439
   57SAPC  H15X 4273   1.798   5.794   8.715 -0.4962 -0.5625 -0.9610
   57SAPC  H15Y 4274   1.739   5.947   8.785 -1.5249  2.6010 -0.4767
   57SAPC  C316 4275   1.836   5.982   8.599 -0.9633  0.7200 -0.9414
   57SAPC  H16X 4276   1.888   5.916   8.527 -2.2065  0.6297 -1.7647
   57SAPC  H16Y 4277   1.909   6.031   8.667 -0.8849 -1.0650  0.2896
   57SAPC  C317 4278   1.758   6.080   8.516  0.2361  0.4563 -0.8383
   57SAPC  H17X 4279   1.688   6.139   8.579 -0.3077  0.5639 -1.5379
   57SAPC  H17Y 4280   1.703   6.022   8.439  1.3014 -1.0541 -0.4919
   57SAPC  C318 4281   1.841   6.191   8.441  0.1590  0.3660  0.0448
   57SAPC  H18X 4282   1.923   6.153   8.376 -0.8210 -1.4833 -0.1465
   57SAPC  H18Y 4283   1.883   6.257   8.520  1.3699 -1.4235  0.9297
   57SAPC  H18Z 4284   1.777   6.251   8.372  2.9551  1.5771 -1.5842
   58SAPC     N 4285   3.875   4.138  10.813 -0.0129 -0.5979  1.0862
   58SAPC   C12 4286   3.898   4.081  10.676  0.1249  0.2458  0.2159
   58SAPC  H12A 4287   4.004   4.070  10.665  0.1610 -0.6170  1.3030
   58SAPC  H12B 4288   3.861   4.137  10.592  1.6204 -0.4441 -0.9195
   58SAPC   C13 4289   3.727   4.158  10.846 -0.2078  0.1174 -0.0622
   58SAPC  H13A 4290   3.707   4.198  10.944  1.2284  0.5123  0.0728
   58SAPC  H13B 4291   3.677   4.209  10.764 -0.2678 -2.7028 -1.8419
   58SAPC  H13C 4292   3.683   4.060  10.847 -0.8501  0.3867 -0.8816
   58SAPC   C14 4293   3.936   4.048  10.922 -0.5364 -0.3767 -0.2431
   58SAPC  H14A 4294   3.895   3.949  10.918  1.2130 -1.2343  2.1564
   58SAPC  H14B 4295   4.044   4.042  10.925 -0.5883 -0.7379  0.8363
   58SAPC  H14C 4296   3.898   4.089  11.014  1.0258  1.7793 -0.4880
   58SAPC   C15 4297   3.942   4.271  10.820  0.1539 -0.4661  0.1241
   58SAPC  H15A 4298   3.929   4.299  10.923 -1.5501 -1.8851  0.3099
   58SAPC  H15B 4299   4.049   4.262  10.803 -0.1685  0.4831 -2.7019
   58SAPC  H15C 4300   3.905   4.334  10.740  1.5961 -1.1941 -1.1560
   58SAPC   C11 4301   3.837   3.941  10.652 -0.9479 -0.0992  0.1104
   58SAPC  H11A 4302   3.836   3.922  10.543  1.8332 -0.6312  0.1335
   58SAPC  H11B 4303   3.730   3.948  10.679 -1.2648  0.0791 -1.2077
   58SAPC     P 4304   4.041   3.773  10.661  0.2782 -0.2318  0.2034
   58SAPC   O13 4305   4.105   3.873  10.576  0.3208  0.1241  0.4617
   58SAPC   O14 4306   4.122   3.720  10.774 -0.2683  0.3875 -0.3418
   58SAPC   O12 4307   3.910   3.835  10.719 -0.7502 -0.3388  0.1770
   58SAPC   O11 4308   3.995   3.647  10.574  0.5684  0.4986 -0.2003
   58SAPC    C1 4309   4.088   3.541  10.548  0.0271 -0.8779 -0.0781
   58SAPC    HA 4310   4.131   3.493  10.638  0.2410  1.3448  1.0409
   58SAPC    HB 4311   4.036   3.459  10.494  0.5025 -1.0223 -0.3246
   58SAPC    C2 4312   4.193   3.584  10.440 -0.0696  0.5129 -0.9680
   58SAPC    HS 4313   4.230   3.682  10.476 -0.7139 -0.0841  1.4233
   58SAPC   O21 4314   4.119   3.595  10.309  0.0591 -0.3593  0.4122
   58SAPC   C21 4315   4.173   3.679  10.220  0.2787  0.1799 -0.5835
   58SAPC   O22 4316   4.280   3.735  10.226  0.8739 -0.6754  0.5288
   58SAPC   C22 4317   4.083   3.682  10.099 -0.3112  0.5542 -0.2555
   58SAPC   H2R 4318   4.081   3.584  10.046 -0.2544 -0.8844  2.3055
   58SAPC   H2S 4319   3.983   3.706  10.141 -1.1633  0.4762 -2.1908
   58SAPC    C3 4320   4.305   3.485  10.427  0.2695 -0.5382  0.2642
   58SAPC    HX 4321   4.377   3.506  10.510  1.6020  0.4660 -1.1235
   58SAPC    HY 4322   4.353   3.509  10.330 -0.2634 -0.9608 -0.1017
   58SAPC   O31 4323   4.263   3.348  10.417 -0.0602 -0.5182  0.1942
   58SAPC   C31 4324   4.361   3.268  10.377  0.6789  0.3184  0.2402
   58SAPC   O32 4325   4.478   3.298  10.362  0.2004 -0.0506  0.4526
   58SAPC   C32 4326   4.303   3.129  10.353 -0.3218 -0.1233 -0.0654
   58SAPC   H2X 4327   4.258   3.089  10.446 -1.3272  0.1589 -0.4209
   58SAPC   H2Y 4328   4.395   3.073  10.326 -0.5440 -0.4440 -0.1565
   58SAPC   C23 4329   4.117   3.792   9.993  0.6585  0.3731 -0.4341
   58SAPC   H3R 4330   4.122   3.886  10.052  2.6213  1.0273 -1.5828
   58SAPC   H3S 4331   4.041   3.802   9.913  0.5941  1.9692 -0.1947
   58SAPC   C24 4332   4.246   3.765   9.915  0.1492  0.3031  0.6081
   58SAPC   H4R 4333   4.251   3.660   9.880  1.5675  0.9363 -1.1719
   58SAPC   H4S 4334   4.326   3.753   9.992 -1.1338 -3.5351  1.4615
   58SAPC   C25 4335   4.286   3.864   9.815 -0.9773 -0.3575  0.0955
   58SAPC   H5R 4336   4.321   3.959   9.858 -2.1475  1.1453 -2.1779
   58SAPC   C26 4337   4.300   3.845   9.681  0.8031  0.0476  0.4617
   58SAPC   H6R 4338   4.316   3.929   9.612 -0.5184 -0.5077 -0.5445
   58SAPC   C27 4339   4.289   3.715   9.603  0.4480 -0.0982 -0.0634
   58SAPC   H7R 4340   4.290   3.622   9.664  1.3760 -0.6102 -0.8382
   58SAPC   H7S 4341   4.372   3.716   9.528  0.7332  1.5430  0.2554
   58SAPC   C28 4342   4.162   3.718   9.527  0.4268  0.2364 -0.5892
   58SAPC   H8R 4343   4.078   3.675   9.583  0.2919  0.8381 -0.3327
   58SAPC   C29 4344   4.133   3.754   9.402  0.1818  0.4074  0.7072
   58SAPC   H9R 4345   4.028   3.732   9.376  0.7683 -0.0893 -1.3156
   58SAPC  C210 4346   4.218   3.810   9.288 -0.3318 -0.4528 -0.2329
   58SAPC  H10R 4347   4.319   3.842   9.320 -0.4116 -0.2356 -0.2037
   58SAPC  H10S 4348   4.162   3.900   9.255 -1.2691 -0.8744  0.1788
   58SAPC  C211 4349   4.226   3.717   9.164 -0.1149  0.0677 -0.1648
   58SAPC  H11R 4350   4.215   3.608   9.176 -1.7739  0.3843  1.4991
   58SAPC  C212 4351   4.222   3.766   9.036  0.2682 -0.2494  0.1611
   58SAPC  H12R 4352   4.245   3.700   8.952 -1.0497 -0.4809 -0.0181
   58SAPC  C213 4353   4.235   3.915   9.003  0.0406  0.1053  0.6789
   58SAPC  H13R 4354   4.325   3.935   8.941 -1.1235  0.1749 -1.0087
   58SAPC  H13S 4355   4.244   3.977   9.095 -1.6155  3.4471 -1.3036
   58SAPC  C214 4356   4.104   3.956   8.932  0.8777 -0.1625  0.0952
   58SAPC  H14R 4357   4.018   3.984   8.995  0.1305 -1.0896 -0.5066
   58SAPC  C215 4358   4.093   3.984   8.804  0.8145  0.0795 -0.3548
   58SAPC  H15R 4359   3.998   4.027   8.771 -0.9421 -1.8718  1.9182
   58SAPC  C216 4360   4.203   3.975   8.707 -0.2321 -0.0296 -0.1088
   58SAPC  H16R 4361   4.266   3.888   8.733 -1.6986 -0.8613  0.7638
   58SAPC  H16S 4362   4.264   4.067   8.697 -0.3984  0.1256  0.2900
   58SAPC  C217 4363   4.146   3.943   8.566  0.3923 -0.2955 -0.2453
   58SAPC  H17R 4364   4.066   4.015   8.538  2.6348  2.3083 -0.2169
   58SAPC  H17S 4365   4.111   3.838   8.563  1.8378 -0.7803 -0.3686
   58SAPC  C218 4366   4.260   3.952   8.464 -0.0483 -0.1772  1.3621
   58SAPC  H18R 4367   4.349   3.889   8.489  0.4000  0.3569  1.1154
   58SAPC  H18S 4368   4.285   4.060   8.469  0.6632 -0.3375  1.4419
   58SAPC  C219 4369   4.200   3.911   8.327 -0.7121 -0.1042  0.0257
   58SAPC  H19R 4370   4.274   3.940   8.250 -0.7871  0.9171  0.3264
   58SAPC  H19S 4371   4.105   3.967   8.309  0.1737  0.7433 -2.1449
   58SAPC  C220 4372   4.176   3.763   8.308  0.2795  0.5927  0.4071
   58SAPC  H20R 4373   4.267   3.706   8.337 -1.6132 -2.2725  0.9721
   58SAPC  H20S 4374   4.154   3.735   8.203  1.6247 -1.0470  0.5329
   58SAPC  H20T 4375   4.090   3.726   8.369 -1.3352  2.8260 -0.4862
   58SAPC   C33 4376   4.194   3.139  10.244 -1.0183  0.0206  0.3419
   58SAPC   H3X 4377   4.116   3.204  10.288 -0.8527  1.0757 -0.8769
   58SAPC   H3Y 4378   4.149   3.038  10.238  1.8275 -1.3833  1.6777
   58SAPC   C34 4379   4.253   3.192  10.110  0.2946  0.3422  0.2192
   58SAPC   H4X 4380   4.325   3.113  10.080  1.2691  1.5929 -0.7158
   58SAPC   H4Y 4381   4.299   3.292  10.123 -1.4054  1.2924 -0.8075
   58SAPC   C35 4382   4.135   3.209  10.008  0.1747  0.3325 -0.7327
   58SAPC   H5X 4383   4.060   3.277  10.054 -0.8491 -0.4455 -1.2400
   58SAPC   H5Y 4384   4.081   3.116   9.980  0.9013 -0.4867  0.5264
   58SAPC   C36 4385   4.176   3.282   9.877 -0.6486 -0.3628 -0.3317
   58SAPC   H6X 4386   4.274   3.244   9.842 -0.4848  1.6098 -2.1208
   58SAPC   H6Y 4387   4.198   3.391   9.884 -1.9273 -0.0010 -1.7839
   58SAPC   C37 4388   4.077   3.259   9.761  0.4998 -0.0115  0.8010
   58SAPC   H7X 4389   3.974   3.295   9.784 -0.3663 -1.3663 -0.8606
   58SAPC   H7Y 4390   4.072   3.152   9.729  1.9108  0.1917 -0.1741
   58SAPC   C38 4391   4.119   3.349   9.635  0.2154 -0.4759 -0.5521
   58SAPC   H8X 4392   4.230   3.339   9.632  0.2079 -0.2636 -1.5578
   58SAPC   H8Y 4393   4.092   3.454   9.659  1.8331 -0.3539  0.8647
   58SAPC   C39 4394   4.052   3.305   9.515  0.2631  0.1223  0.2197
   58SAPC   H9X 4395   3.947   3.339   9.524  0.0267 -0.4522 -0.3177
   58SAPC   H9Y 4396   4.054   3.195   9.505 -0.8446  0.2339 -1.6233
   58SAPC  C310 4397   4.094   3.368   9.381  0.0880  0.3111 -0.5891
   58SAPC  H10X 4398   4.205   3.373   9.385  0.2557 -0.0529 -3.5518
   58SAPC  H10Y 4399   4.059   3.472   9.363 -0.8981  0.1175  0.1705
   58SAPC  C311 4400   4.051   3.292   9.260  0.0189 -0.2368 -0.7390
   58SAPC  H11X 4401   3.943   3.268   9.271 -0.0932  1.2059  1.5899
   58SAPC  H11Y 4402   4.108   3.197   9.258 -1.1046 -0.9184 -1.0320
   58SAPC  C312 4403   4.077   3.369   9.132  0.6764 -0.2133 -0.6843
   58SAPC  H12X 4404   4.185   3.369   9.106  0.7413  0.2487 -0.4006
   58SAPC  H12Y 4405   4.048   3.474   9.151 -2.3194 -1.1612  0.3363
   58SAPC  C313 4406   4.016   3.321   8.998  0.1658  0.3460  0.9757
   58SAPC  H13X 4407   3.908   3.296   9.009  0.4204 -0.8366  0.8591
   58SAPC  H13Y 4408   4.063   3.222   8.976 -0.3446  0.1942  0.5277
   58SAPC  C314 4409   4.045   3.398   8.868  0.0278  0.2787 -0.4134
   58SAPC  H14X 4410   4.151   3.430   8.863 -0.0893  0.9735  1.1863
   58SAPC  H14Y 4411   3.992   3.496   8.872 -0.7356 -0.1603  0.5912
   58SAPC  C315 4412   3.991   3.335   8.733 -0.1605 -0.0764  0.4116
   58SAPC  H15X 4413   3.884   3.309   8.748 -0.8876  0.9481 -2.7630
   58SAPC  H15Y 4414   4.039   3.240   8.702 -1.0516 -0.4162  0.0419
   58SAPC  C316 4415   3.996   3.442   8.621 -0.7709 -0.4587  0.4499
   58SAPC  H16X 4416   4.101   3.455   8.585 -1.8008  2.0451 -1.8982
   58SAPC  H16Y 4417   3.961   3.546   8.639  1.9878  0.5127  0.5985
   58SAPC  C317 4418   3.924   3.394   8.493 -0.3011 -0.5764  0.4207
   58SAPC  H17X 4419   3.960   3.291   8.472 -1.1570 -0.5730 -1.1197
   58SAPC  H17Y 4420   3.943   3.458   8.405  1.0371  1.7635  2.3622
   58SAPC  C318 4421   3.771   3.375   8.509 -0.1563 -0.0165  0.3245
   58SAPC  H18X 4422   3.741   3.340   8.610  1.5491 -1.4199  0.3657
   58SAPC  H18Y 4423   3.727   3.311   8.430  1.8587 -0.6318 -0.3277
   58SAPC  H18Z 4424   3.735   3.478   8.487 -1.0904  0.0127  1.8796
   59SAPC     N 4425   5.811   5.486  11.416  0.1023  0.1663 -0.2422
   59SAPC   C12 4426   5.863   5.523  11.277 -0.6229  0.1150 -0.8855
   59SAPC  H12A 4427   5.966   5.554  11.287 -0.1427 -1.4275 -0.8966
   59SAPC  H12B 4428   5.812   5.607  11.233  0.3699  0.1248 -2.0397
   59SAPC   C13 4429   5.823   5.607  11.501 -0.4755 -0.9042 -0.2182
   59SAPC  H13A 4430   5.799   5.696  11.444 -1.0583  0.1312  1.5961
   59SAPC  H13B 4431   5.749   5.601  11.580  1.0732  1.2487  1.4634
   59SAPC  H13C 4432   5.920   5.613  11.547 -0.2995  2.4573 -0.9348
   59SAPC   C14 4433   5.664   5.457  11.406  0.0356  0.0287  0.4550
   59SAPC  H14A 4434   5.660   5.372  11.340  0.8023 -0.4511  1.0063
   59SAPC  H14B 4435   5.615   5.438  11.501 -1.4519  0.8732 -0.1320
   59SAPC  H14C 4436   5.616   5.543  11.363 -2.0662 -1.5125 -0.3651
   59SAPC   C15 4437   5.882   5.373  11.481 -0.3161  0.3760 -0.5936
   59SAPC  H15A 4438   5.984   5.401  11.507 -0.6380  1.7428 -0.8077
   59SAPC  H15B 4439   5.829   5.346  11.571  0.1918  2.3186  0.3233
   59SAPC  H15C 4440   5.894   5.285  11.419  0.5737 -0.6526  0.9873
   59SAPC   C11 4441   5.853   5.405  11.173 -0.6868  0.5641  0.0593
   59SAPC  H11A 4442   5.872   5.444  11.071 -2.3935 -1.1170 -0.9020
   59SAPC  H11B 4443   5.746   5.378  11.176 -1.3228  2.6050 -2.3247
   59SAPC     P 4444   6.006   5.203  11.091  0.1157  0.1697  0.1778
   59SAPC   O13 4445   6.153   5.232  11.089 -0.0928  0.4011  0.4890
   59SAPC   O14 4446   5.968   5.057  11.109  0.5380  0.3067  0.0958
   59SAPC   O12 4447   5.931   5.285  11.202 -0.3687  0.7535 -0.0467
   59SAPC   O11 4448   5.944   5.249  10.951 -0.1018 -0.2836  0.5056
   59SAPC    C1 4449   6.015   5.187  10.835 -0.6139 -0.0992 -0.1715
   59SAPC    HA 4450   6.111   5.237  10.807 -0.2451 -1.5201 -1.5325
   59SAPC    HB 4451   6.040   5.083  10.863  2.3103  1.4043  3.1291
   59SAPC    C2 4452   5.927   5.184  10.707 -0.2239  0.4446 -0.7541
   59SAPC    HS 4453   5.847   5.108  10.717  1.7805 -1.6454 -0.4085
   59SAPC   O21 4454   6.019   5.156  10.601  0.5601  0.1670  0.0519
   59SAPC   C21 4455   6.002   5.055  10.526  0.0577  0.7401  0.0997
   59SAPC   O22 4456   5.900   4.991  10.513  0.1459  0.5080 -0.4604
   59SAPC   C22 4457   6.137   5.033  10.459  0.0670 -0.2820  0.0422
   59SAPC   H2R 4458   6.147   5.125  10.397  0.6327 -2.0459 -2.5867
   59SAPC   H2S 4459   6.217   5.035  10.536 -1.0031 -0.6754  1.1747
   59SAPC    C3 4460   5.854   5.321  10.682 -0.3058  0.3674 -0.2026
   59SAPC    HX 4461   5.945   5.385  10.680  0.7490 -1.1150 -0.8122
   59SAPC    HY 4462   5.790   5.367  10.760 -0.3145  1.0609 -0.6134
   59SAPC   O31 4463   5.794   5.333  10.554  0.0664  0.2531 -0.1635
   59SAPC   C31 4464   5.681   5.266  10.545  0.2791 -0.0885 -0.0795
   59SAPC   O32 4465   5.629   5.198  10.630 -0.0221 -0.7572  0.2089
   59SAPC   C32 4466   5.626   5.287  10.407  0.1229 -0.4244 -0.5943
   59SAPC   H2X 4467   5.626   5.394  10.375 -4.1335 -0.3772 -0.7253
   59SAPC   H2Y 4468   5.519   5.259  10.413 -0.0000  0.6171  3.3169
   59SAPC   C23 4469   6.144   4.911  10.362  0.1858  1.0987 -0.0195
   59SAPC   H3R 4470   6.043   4.899  10.318  0.2874  1.2822 -0.3014
   59SAPC   H3S 4471   6.177   4.822  10.419  1.7325  1.2589 -0.6314
   59SAPC   C24 4472   6.244   4.918  10.246 -0.1010 -0.2444  0.2100
   59SAPC   H4R 4473   6.207   4.992  10.171 -2.7249 -1.5024  0.2165
   59SAPC   H4S 4474   6.238   4.815  10.205  1.1330  0.4579 -1.7801
   59SAPC   C25 4475   6.383   4.956  10.298  0.5513  0.0345 -0.3006
   59SAPC   H5R 4476   6.412   4.883  10.375 -1.6995 -0.1977  0.3719
   59SAPC   C26 4477   6.457   5.060  10.256  0.0453  0.5638  0.2877
   59SAPC   H6R 4478   6.549   5.066  10.317  1.3035 -0.1315 -1.4853
   59SAPC   C27 4479   6.433   5.162  10.148  0.3213  0.3424 -0.0845
   59SAPC   H7R 4480   6.462   5.257  10.199  0.9833  0.9080 -1.4953
   59SAPC   H7S 4481   6.324   5.171  10.132  0.1632  1.1163  1.3744
   59SAPC   C28 4482   6.521   5.118  10.038  0.0013  0.3361 -0.3893
   59SAPC   H8R 4483   6.623   5.154  10.059  0.1688  0.0777 -0.7481
   59SAPC   C29 4484   6.496   5.056   9.922  0.0222 -0.0691 -0.5078
   59SAPC   H9R 4485   6.577   5.027   9.853  0.3144  1.6743 -0.9123
   59SAPC  C210 4486   6.360   5.015   9.883 -0.7388 -0.0688  0.1506
   59SAPC  H10R 4487   6.315   5.087   9.811 -1.1369 -0.7133 -0.2505
   59SAPC  H10S 4488   6.284   5.031   9.962 -1.3641  1.0918 -0.6748
   59SAPC  C211 4489   6.338   4.875   9.827  0.0611  0.3720 -0.4246
   59SAPC  H11R 4490   6.372   4.800   9.900 -0.8264 -0.6311 -1.0363
   59SAPC  C212 4491   6.290   4.849   9.702  0.0166  0.5075 -0.5001
   59SAPC  H12R 4492   6.280   4.743   9.678 -1.0877  0.2947  0.8422
   59SAPC  C213 4493   6.262   4.952   9.590  0.0601  0.7818 -0.1182
   59SAPC  H13R 4494   6.270   4.906   9.489 -3.0562 -0.4433  0.1382
   59SAPC  H13S 4495   6.350   5.020   9.592 -0.7158  1.8042 -0.3221
   59SAPC  C214 4496   6.127   5.020   9.597 -0.8146  0.3909  0.3664
   59SAPC  H14R 4497   6.112   5.068   9.695  0.5904 -1.4757  1.5283
   59SAPC  C215 4498   6.030   5.021   9.504 -0.5563  0.0561  0.3905
   59SAPC  H15R 4499   5.932   5.067   9.525 -1.3012 -0.7545 -1.2342
   59SAPC  C216 4500   6.026   4.945   9.369 -0.6821  0.4238  0.1497
   59SAPC  H16R 4501   5.922   4.912   9.350  0.0610 -1.0494 -1.4704
   59SAPC  H16S 4502   6.094   4.858   9.374  1.0357  1.6989 -0.5456
   59SAPC  C217 4503   6.064   5.032   9.253  0.0507 -0.4479  0.3146
   59SAPC  H17R 4504   6.163   5.079   9.273  0.8542 -1.9538 -0.0548
   59SAPC  H17S 4505   5.981   5.106   9.252  0.5446  0.1030 -0.4557
   59SAPC  C218 4506   6.053   4.967   9.116 -0.4605  0.5625 -0.1947
   59SAPC  H18R 4507   5.947   4.967   9.080 -1.6603  1.9906  3.1772
   59SAPC  H18S 4508   6.088   4.862   9.118 -0.3779  0.6176  1.1806
   59SAPC  C219 4509   6.114   5.038   8.997 -0.5273  0.2123 -0.1557
   59SAPC  H19R 4510   6.114   4.962   8.915 -0.7683  0.2325 -0.1739
   59SAPC  H19S 4511   6.216   5.061   9.033 -0.7910 -0.7159  1.2344
   59SAPC  C220 4512   6.040   5.161   8.951 -0.1392 -0.2556  0.1917
   59SAPC  H20R 4513   6.021   5.227   9.038 -0.7318 -2.7998  2.0405
   59SAPC  H20S 4514   5.947   5.136   8.897 -0.7339  1.0971  0.5553
   59SAPC  H20T 4515   6.099   5.215   8.873 -0.6297 -2.7737 -1.9809
   59SAPC   C33 4516   5.707   5.193  10.312 -0.6134 -0.0867  0.6344
   59SAPC   H3X 4517   5.738   5.097  10.359 -0.5318 -0.1841  0.3808
   59SAPC   H3Y 4518   5.807   5.242  10.309 -1.1108  1.0055  1.2576
   59SAPC   C34 4519   5.640   5.188  10.181  0.6733 -0.0490 -0.5093
   59SAPC   H4X 4520   5.623   5.293  10.149  0.5246 -0.2455 -1.0786
   59SAPC   H4Y 4521   5.536   5.148  10.184  0.4075  0.6954  0.4763
   59SAPC   C35 4522   5.720   5.088  10.085  0.1240 -0.3378 -0.9541
   59SAPC   H5X 4523   5.703   4.989  10.132 -2.2729  0.4221 -0.1327
   59SAPC   H5Y 4524   5.829   5.106  10.077  0.6953 -2.0080  2.2199
   59SAPC   C36 4525   5.639   5.078   9.956  0.4960 -0.1108  0.5097
   59SAPC   H6X 4526   5.647   5.179   9.912 -1.1112 -0.5087 -0.7001
   59SAPC   H6Y 4527   5.531   5.056   9.970  0.4234 -1.7437 -2.3438
   59SAPC   C37 4528   5.686   4.985   9.844 -0.6788 -0.4245  0.4927
   59SAPC   H7X 4529   5.626   4.892   9.855  1.8487 -2.1881 -0.2441
   59SAPC   H7Y 4530   5.793   4.957   9.848 -0.9783 -1.7989 -0.3921
   59SAPC   C38 4531   5.670   5.042   9.702 -1.0371 -0.2430  0.1970
   59SAPC   H8X 4532   5.732   5.133   9.687 -3.0647  0.8608 -1.6986
   59SAPC   H8Y 4533   5.561   5.062   9.697 -0.9284  0.1911 -0.4233
   59SAPC   C39 4534   5.666   4.936   9.597  0.4607 -0.2941 -0.3122
   59SAPC   H9X 4535   5.589   4.862   9.628 -0.4421  0.4840 -0.6786
   59SAPC   H9Y 4536   5.759   4.875   9.589  1.0505  0.3817  1.1573
   59SAPC  C310 4537   5.629   4.989   9.452 -0.3949 -0.1976 -0.3917
   59SAPC  H10X 4538   5.697   5.070   9.418  0.3894 -1.6065 -2.2198
   59SAPC  H10Y 4539   5.528   5.035   9.453 -0.5064 -0.3100  3.9746
   59SAPC  C311 4540   5.653   4.875   9.359 -0.1252 -0.5790 -0.5742
   59SAPC  H11X 4541   5.578   4.795   9.381 -1.6129  0.7259 -0.8044
   59SAPC  H11Y 4542   5.754   4.839   9.387  0.3822 -0.5605 -2.2923
   59SAPC  C312 4543   5.646   4.926   9.218  0.0346  0.4913  0.0407
   59SAPC  H12X 4544   5.717   5.010   9.204 -1.3840  1.2742 -2.7817
   59SAPC  H12Y 4545   5.544   4.968   9.203  0.0981  0.9439  0.8816
   59SAPC  C313 4546   5.674   4.822   9.112 -0.0334 -0.2000  0.4320
   59SAPC  H13X 4547   5.636   4.721   9.140  1.8300 -0.7214  1.1728
   59SAPC  H13Y 4548   5.782   4.807   9.092 -0.0987  1.2293 -1.1233
   59SAPC  C314 4549   5.596   4.853   8.979 -0.0514 -0.3153  0.5820
   59SAPC  H14X 4550   5.647   4.942   8.936 -0.4815 -0.6074 -0.5601
   59SAPC  H14Y 4551   5.490   4.874   9.003  0.0687  1.3953 -0.2414
   59SAPC  C315 4552   5.587   4.731   8.884  0.3328  0.2956 -0.4433
   59SAPC  H15X 4553   5.547   4.656   8.956  1.1082 -1.5228 -1.8641
   59SAPC  H15Y 4554   5.686   4.693   8.851  0.4041 -0.5006  0.6621
   59SAPC  C316 4555   5.482   4.764   8.778 -0.6647  0.9874  0.1819
   59SAPC  H16X 4556   5.518   4.820   8.690 -2.1675 -0.2974 -1.2828
   59SAPC  H16Y 4557   5.398   4.819   8.826 -0.7576 -0.7884  2.1698
   59SAPC  C317 4558   5.411   4.642   8.739  0.3348  0.1256  0.7232
   59SAPC  H17X 4559   5.312   4.670   8.696  0.4804 -0.1082  0.2283
   59SAPC  H17Y 4560   5.392   4.583   8.832 -2.7349  1.9152  1.3122
   59SAPC  C318 4561   5.503   4.554   8.646 -0.1190 -0.2441 -0.1237
   59SAPC  H18X 4562   5.607   4.546   8.683 -0.9463  1.4057  2.6874
   59SAPC  H18Y 4563   5.502   4.605   8.547 -1.9496  0.9656  0.4961
   59SAPC  H18Z 4564   5.475   4.447   8.635  2.3691 -0.7803 -1.7490
   60SAPC     N 4565   0.684   3.152  11.104 -1.0545  0.2178 -0.4919
   60SAPC   C12 4566   0.627   3.030  11.033 -0.9803 -0.3381 -0.1311
   60SAPC  H12A 4567   0.629   2.943  11.097  2.2022  0.0994  0.4063
   60SAPC  H12B 4568   0.698   2.996  10.960 -0.3681  0.0106  0.3008
   60SAPC   C13 4569   0.787   3.105  11.195  0.7556  0.9880  0.3289
   60SAPC  H13A 4570   0.855   3.037  11.145 -0.5118 -1.6719  2.0930
   60SAPC  H13B 4571   0.849   3.184  11.234  1.5066 -0.0996  1.3880
   60SAPC  H13C 4572   0.745   3.052  11.279 -2.4156 -0.7518 -2.2349
   60SAPC   C14 4573   0.745   3.238  10.997 -0.4595 -0.0394 -1.1084
   60SAPC  H14A 4574   0.688   3.256  10.907 -2.6434 -1.4441 -0.0562
   60SAPC  H14B 4575   0.755   3.339  11.035 -0.8905 -1.2682  2.4561
   60SAPC  H14C 4576   0.839   3.195  10.967 -0.6789 -1.3154 -0.0360
   60SAPC   C15 4577   0.585   3.222  11.182  0.1652 -0.2944 -0.0946
   60SAPC  H15A 4578   0.513   3.272  11.119  0.9274  0.5142 -0.3331
   60SAPC  H15B 4579   0.535   3.156  11.252 -1.2235 -0.4013 -1.1553
   60SAPC  H15C 4580   0.640   3.296  11.238  2.4746 -1.4937 -0.7255
   60SAPC   C11 4581   0.494   3.030  10.973 -0.2925 -0.1189 -0.3032
   60SAPC  H11A 4582   0.412   3.036  11.047 -0.1004  1.4044 -0.1969
   60SAPC  H11B 4583   0.491   2.930  10.926 -1.9715 -0.1823 -0.0872
   60SAPC     P 4584   0.352   3.150  10.807 -0.0249  0.1327  0.2385
   60SAPC   O13 4585   0.308   3.013  10.787 -0.0322 -0.4378  0.3353
   60SAPC   O14 4586   0.261   3.247  10.872  0.8226 -0.0194 -0.2462
   60SAPC   O12 4587   0.485   3.148  10.884  0.7598  0.5117  0.1936
   60SAPC   O11 4588   0.386   3.204  10.663  0.6419 -0.1806  0.6895
   60SAPC    C1 4589   0.511   3.241  10.614 -0.1072  0.3019 -0.1546
   60SAPC    HA 4590   0.561   3.305  10.689 -1.8232  1.9366 -0.3698
   60SAPC    HB 4591   0.584   3.157  10.613  0.7347  1.0332 -1.3206
   60SAPC    C2 4592   0.512   3.283  10.462 -0.6107 -0.2202 -0.4343
   60SAPC    HS 4593   0.474   3.386  10.445 -0.4560 -0.0759  0.1058
   60SAPC   O21 4594   0.450   3.187  10.382  0.2106 -0.4969  0.3281
   60SAPC   C21 4595   0.319   3.216  10.360 -0.9511  0.0695  0.0907
   60SAPC   O22 4596   0.252   3.311  10.398 -0.0467  0.0602 -0.1664
   60SAPC   C22 4597   0.271   3.104  10.274 -0.1244  0.3386  0.0547
   60SAPC   H2R 4598   0.361   3.054  10.232  0.4642 -0.3721  2.1202
   60SAPC   H2S 4599   0.219   3.039  10.347 -0.1699  0.3829  0.0617
   60SAPC    C3 4600   0.663   3.302  10.420  0.0628  0.2536  0.0702
   60SAPC    HX 4601   0.723   3.214  10.452  1.1985  1.5719  1.6812
   60SAPC    HY 4602   0.701   3.394  10.470 -1.1622  0.6729  0.2548
   60SAPC   O31 4603   0.687   3.306  10.274  0.2233  0.1586 -0.1317
   60SAPC   C31 4604   0.679   3.423  10.224  0.2180 -0.5519 -0.0300
   60SAPC   O32 4605   0.649   3.522  10.285  0.0318 -0.3029 -0.0323
   60SAPC   C32 4606   0.705   3.429  10.077  0.1550 -0.0906 -0.3701
   60SAPC   H2X 4607   0.606   3.412  10.029  0.2693  0.4644 -0.8064
   60SAPC   H2Y 4608   0.768   3.345  10.040  0.8410 -1.3159  3.3583
   60SAPC   C23 4609   0.173   3.138  10.162  0.0636  0.3403  0.2974
   60SAPC   H3R 4610   0.216   3.206  10.086  0.7189 -0.9747 -0.5186
   60SAPC   H3S 4611   0.080   3.182  10.203 -0.5959 -1.6466  1.0119
   60SAPC   C24 4612   0.145   3.008  10.083 -0.7184  0.3846  0.2481
   60SAPC   H4R 4613   0.130   2.930  10.161 -2.9255  1.0583  0.5440
   60SAPC   H4S 4614   0.239   2.977  10.034 -0.6913  0.9658 -0.0699
   60SAPC   C25 4615   0.016   3.007   9.998 -0.1994  0.2924 -0.3392
   60SAPC   H5R 4616  -0.079   3.025  10.051  0.2653  3.3409 -0.4180
   60SAPC   C26 4617   0.008   2.996   9.866 -0.1898  0.2848  0.2760
   60SAPC   H6R 4618  -0.088   2.998   9.812  1.4451  0.6381 -2.7559
   60SAPC   C27 4619   0.114   2.979   9.758 -0.5119  0.0261  0.3817
   60SAPC   H7R 4620   0.112   2.872   9.729  1.0278 -0.6754  2.7251
   60SAPC   H7S 4621   0.213   2.990   9.807 -0.4592  0.2087  0.2358
   60SAPC   C28 4622   0.101   3.080   9.641 -0.7276 -0.9904 -0.3724
   60SAPC   H8R 4623   0.117   3.186   9.663 -1.9273 -0.7734 -0.5137
   60SAPC   C29 4624   0.057   3.056   9.517  0.1009  0.4073  1.1566
   60SAPC   H9R 4625   0.053   3.140   9.447  1.5647 -0.7550 -0.3705
   60SAPC  C210 4626   0.015   2.919   9.470 -0.3513  0.4145 -0.6583
   60SAPC  H10R 4627  -0.078   2.929   9.410 -0.1435 -1.0238 -1.2602
   60SAPC  H10S 4628  -0.011   2.852   9.555 -1.0999 -1.4089 -2.2749
   60SAPC  C211 4629   0.111   2.840   9.388  0.1725  0.1489 -0.5802
   60SAPC  H11R 4630   0.160   2.756   9.439 -1.7908 -0.8917 -0.3343
   60SAPC  C212 4631   0.137   2.873   9.260 -0.5106 -0.1053 -0.0698
   60SAPC  H12R 4632   0.208   2.823   9.192 -0.2388 -0.9375  0.8294
   60SAPC  C213 4633   0.073   2.988   9.181 -0.2654 -0.4252  0.0952
   60SAPC  H13R 4634   0.047   3.073   9.248 -0.8720 -1.0557  0.6697
   60SAPC  H13S 4635  -0.024   2.946   9.146 -1.0433  0.9658  0.5108
   60SAPC  C214 4636   0.153   3.030   9.060  0.0443  0.3135 -0.1016
   60SAPC  H14R 4637   0.185   3.132   9.085 -4.1028  1.8407 -0.5283
   60SAPC  C215 4638   0.172   2.966   8.940  0.1489  0.7740  0.2478
   60SAPC  H15R 4639   0.236   3.020   8.868 -1.3060  0.4694 -1.3084
   60SAPC  C216 4640   0.105   2.835   8.891 -0.0165  0.2579 -0.1061
   60SAPC  H16R 4641   0.034   2.843   8.805  2.5461 -0.8330 -2.4073
   60SAPC  H16S 4642   0.048   2.786   8.974  2.3056  1.5115  2.2803
   60SAPC  C217 4643   0.226   2.736   8.859  0.3343  0.4078  0.1931
   60SAPC  H17R 4644   0.180   2.641   8.824  1.6822  0.8631 -2.9601
   60SAPC  H17S 4645   0.280   2.709   8.953  1.1003 -0.7545 -0.5678
   60SAPC  C218 4646   0.319   2.779   8.744 -0.2116  0.3089 -0.0343
   60SAPC  H18R 4647   0.403   2.706   8.745  0.5611  1.1637 -1.0506
   60SAPC  H18S 4648   0.362   2.880   8.757 -1.4268  1.3162 -3.3365
   60SAPC  C219 4649   0.250   2.780   8.607  0.6315 -0.7005 -0.4965
   60SAPC  H19R 4650   0.195   2.876   8.599  1.4556 -0.0817  1.0906
   60SAPC  H19S 4651   0.176   2.698   8.613  0.4087 -0.5256 -0.8181
   60SAPC  C220 4652   0.352   2.786   8.499 -0.2499  0.5188 -0.5240
   60SAPC  H20R 4653   0.392   2.682   8.492  0.1973  0.4439  2.5433
   60SAPC  H20S 4654   0.442   2.846   8.522  0.2568 -0.3737 -0.1168
   60SAPC  H20T 4655   0.302   2.813   8.404 -1.4262 -0.0911 -0.0899
   60SAPC   C33 4656   0.761   3.569  10.038 -0.2326 -0.1113 -0.2741
   60SAPC   H3X 4657   0.866   3.573  10.076 -0.7982 -0.4071  1.3825
   60SAPC   H3Y 4658   0.698   3.648  10.084  0.3577  1.1030 -1.5129
   60SAPC   C34 4659   0.777   3.587   9.884  0.1296  0.6842  0.1024
   60SAPC   H4X 4660   0.833   3.682   9.867 -1.8593  1.6091 -1.5270
   60SAPC   H4Y 4661   0.677   3.599   9.836  0.1504 -0.7497 -0.3150
   60SAPC   C35 4662   0.845   3.467   9.817 -0.0420  0.0176  0.6387
   60SAPC   H5X 4663   0.764   3.391   9.815 -0.8703  0.9096  0.0086
   60SAPC   H5Y 4664   0.928   3.427   9.880 -1.1091 -2.1894  0.7060
   60SAPC   C36 4665   0.904   3.499   9.681  0.0880  0.4214 -0.0374
   60SAPC   H6X 4666   0.985   3.429   9.650 -1.5627 -0.9363 -1.3603
   60SAPC   H6Y 4667   0.945   3.602   9.690 -0.1681  0.5666 -0.5224
   60SAPC   C37 4668   0.800   3.501   9.576  0.3022 -0.1329 -0.6365
   60SAPC   H7X 4669   0.725   3.576   9.609  0.1006 -0.3506 -0.6001
   60SAPC   H7Y 4670   0.753   3.400   9.570  0.2648 -0.4572  3.6250
   60SAPC   C38 4671   0.867   3.540   9.448 -0.3072  0.3759 -0.5562
   60SAPC   H8X 4672   0.939   3.460   9.419  0.4798  0.8446  0.1102
   60SAPC   H8Y 4673   0.934   3.628   9.455  1.8220 -0.9838 -2.9123
   60SAPC   C39 4674   0.769   3.547   9.328 -0.0649 -0.6438 -0.6961
   60SAPC   H9X 4675   0.703   3.636   9.330  1.8637  0.8237 -0.5130
   60SAPC   H9Y 4676   0.697   3.465   9.347  0.7264 -0.8976  1.2940
   60SAPC  C310 4677   0.846   3.532   9.202  0.0223 -0.3041  0.1329
   60SAPC  H10X 4678   0.895   3.433   9.191 -1.4177 -0.7822 -2.2747
   60SAPC  H10Y 4679   0.925   3.609   9.190  0.7777 -1.6864 -4.4322
   60SAPC  C311 4680   0.761   3.547   9.078 -1.3856 -0.2605 -0.2705
   60SAPC  H11X 4681   0.698   3.638   9.087 -1.4969 -0.4739  1.3151
   60SAPC  H11Y 4682   0.696   3.457   9.075 -1.0404 -0.5818  1.3590
   60SAPC  C312 4683   0.842   3.569   8.947 -0.0949 -0.3539  0.3260
   60SAPC  H12X 4684   0.932   3.505   8.961  1.0711  1.2432  0.2031
   60SAPC  H12Y 4685   0.880   3.673   8.943  2.6230 -1.3448 -1.0612
   60SAPC  C313 4686   0.777   3.530   8.810 -0.0608  0.0593  0.2535
   60SAPC  H13X 4687   0.671   3.563   8.808 -0.3435 -0.8510 -1.2612
   60SAPC  H13Y 4688   0.781   3.419   8.805 -1.0595  0.0808 -1.7721
   60SAPC  C314 4689   0.855   3.598   8.699  0.6373 -0.0920  0.3443
   60SAPC  H14X 4690   0.964   3.583   8.717  1.0309 -0.8255 -2.3820
   60SAPC  H14Y 4691   0.838   3.706   8.719  1.2635  0.3818 -1.5226
   60SAPC  C315 4692   0.803   3.571   8.559  0.7109  0.4219  0.1948
   60SAPC  H15X 4693   0.692   3.574   8.563  0.5521 -2.2246 -1.1307
   60SAPC  H15Y 4694   0.833   3.466   8.536 -0.4738  0.1628 -0.1759
   60SAPC  C316 4695   0.849   3.674   8.455  0.0324 -0.3202 -0.3368
   60SAPC  H16X 4696   0.819   3.770   8.501  0.9334 -0.2882  0.2064
   60SAPC  H16Y 4697   0.796   3.657   8.359  1.9649 -2.8295 -1.0176
   60SAPC  C317 4698   0.997   3.688   8.430  0.0811 -0.0272 -0.4071
   60SAPC  H17X 4699   1.033   3.744   8.519 -0.2810  0.2684 -0.4489
   60SAPC  H17Y 4700   1.004   3.756   8.343 -1.0889 -0.4212 -0.8096
   60SAPC  C318 4701   1.075   3.561   8.404 -0.3155  0.1455 -0.2221
   60SAPC  H18X 4702   1.177   3.587   8.368 -1.2795  0.0668 -3.0799
   60SAPC  H18Y 4703   1.024   3.508   8.321 -1.1927  0.2710  0.2356
   60SAPC  H18Z 4704   1.086   3.490   8.489  0.2446 -2.7461 -2.6101
   61SAPC     N 4705   1.582   1.896  10.928  1.0067  0.0709  0.1175
   61SAPC   C12 4706   1.473   1.847  10.839  0.1697  0.5504 -0.0819
   61SAPC  H12A 4707   1.383   1.828  10.895  0.7028 -2.0655 -0.0066
   61SAPC  H12B 4708   1.504   1.754  10.792 -1.0903 -0.6746  1.4399
   61SAPC   C13 4709   1.626   1.776  11.013 -0.4485 -0.1107  0.5249
   61SAPC  H13A 4710   1.681   1.706  10.951 -1.3634  0.5520 -1.0660
   61SAPC  H13B 4711   1.692   1.811  11.091  2.2717  0.3772 -1.8908
   61SAPC  H13C 4712   1.548   1.726  11.067 -0.6799  0.2081  0.4873
   61SAPC   C14 4713   1.705   1.937  10.856 -0.0970  0.3307 -0.2702
   61SAPC  H14A 4714   1.765   1.983  10.933 -0.8075 -0.7863  0.9697
   61SAPC  H14B 4715   1.757   1.850  10.818  0.5450 -0.1265  1.6314
   61SAPC  H14C 4716   1.688   2.004  10.773  0.4569 -0.3398 -0.9317
   61SAPC   C15 4717   1.528   2.000  11.016  0.0508  0.3861  0.4021
   61SAPC  H15A 4718   1.485   2.084  10.964  0.5823 -0.2826 -1.1510
   61SAPC  H15B 4719   1.442   1.969  11.074 -0.2243  1.8630  0.8038
   61SAPC  H15C 4720   1.593   2.030  11.096  2.6511  0.8529 -1.8222
   61SAPC   C11 4721   1.435   1.934  10.716  0.1027 -0.1409 -0.3807
   61SAPC  H11A 4722   1.352   1.888  10.658 -0.8455 -2.6830  2.8484
   61SAPC  H11B 4723   1.523   1.942  10.648  0.6665  0.1491  0.3818
   61SAPC     P 4724   1.445   2.207  10.706 -0.0968 -0.0908  0.1701
   61SAPC   O13 4725   1.371   2.311  10.785 -0.5310  0.1319 -0.4296
   61SAPC   O14 4726   1.595   2.204  10.713  0.5271  0.2040  0.1668
   61SAPC   O12 4727   1.393   2.067  10.754  0.6588  0.2008 -0.1873
   61SAPC   O11 4728   1.398   2.210  10.555  0.8677 -0.0297 -0.2730
   61SAPC    C1 4729   1.267   2.154  10.519  0.6939  0.0520 -0.1887
   61SAPC    HA 4730   1.278   2.044  10.507  1.4222  0.1118 -0.1077
   61SAPC    HB 4731   1.190   2.164  10.598  2.0611 -0.9230  1.2957
   61SAPC    C2 4732   1.212   2.225  10.391  0.1536  0.2044 -0.0243
   61SAPC    HS 4733   1.104   2.201  10.381  0.6138 -1.5649 -1.1239
   61SAPC   O21 4734   1.275   2.183  10.271 -0.0646  0.3095  0.2371
   61SAPC   C21 4735   1.235   2.056  10.241 -0.0162  0.5472  0.4801
   61SAPC   O22 4736   1.145   1.991  10.290  0.3904 -0.0226 -0.3687
   61SAPC   C22 4737   1.295   2.010  10.110  0.0580 -0.3308 -0.6475
   61SAPC   H2R 4738   1.380   1.949  10.146  0.2807  1.5156  2.0727
   61SAPC   H2S 4739   1.219   1.951  10.053 -0.0875  0.3551 -1.1764
   61SAPC    C3 4740   1.226   2.377  10.405 -0.1812 -0.0706  0.5854
   61SAPC    HX 4741   1.334   2.399  10.406 -0.2130  0.2078 -1.2118
   61SAPC    HY 4742   1.179   2.391  10.505 -0.9229 -0.1318  0.2548
   61SAPC   O31 4743   1.158   2.457  10.306  0.2180 -0.0108 -0.3545
   61SAPC   C31 4744   1.221   2.499  10.199 -0.1663  0.4905 -1.7284
   61SAPC   O32 4745   1.344   2.503  10.184  0.0934  0.4557  0.0533
   61SAPC   C32 4746   1.122   2.556  10.102 -0.0218 -0.7491 -0.4664
   61SAPC   H2X 4747   1.075   2.644  10.149 -0.3563  0.0845 -2.3238
   61SAPC   H2Y 4748   1.051   2.474  10.074 -2.6217  1.2492  0.1142
   61SAPC   C23 4749   1.351   2.117  10.015 -0.5406 -0.2537 -0.1254
   61SAPC   H3R 4750   1.406   2.057   9.939 -0.1261  0.9331 -0.7771
   61SAPC   H3S 4751   1.427   2.178  10.068 -0.1749 -0.6126 -0.2266
   61SAPC   C24 4752   1.257   2.213   9.944  0.0319 -0.4366 -0.9298
   61SAPC   H4R 4753   1.312   2.305   9.915  1.1635 -0.4203  1.1502
   61SAPC   H4S 4754   1.185   2.250  10.021 -0.9918 -0.8094 -1.6967
   61SAPC   C25 4755   1.177   2.147   9.835  0.0851  0.1113 -0.1822
   61SAPC   H5R 4756   1.102   2.074   9.871  2.3820 -1.2466  1.9699
   61SAPC   C26 4757   1.180   2.178   9.702 -0.0785 -0.2402  0.1315
   61SAPC   H6R 4758   1.122   2.112   9.635  1.5712  0.2435 -1.8276
   61SAPC   C27 4759   1.259   2.281   9.633 -0.3218  0.4051 -0.0702
   61SAPC   H7R 4760   1.265   2.374   9.694  0.2564  0.3848 -0.0889
   61SAPC   H7S 4761   1.201   2.310   9.543 -1.3158 -3.7564 -0.8468
   61SAPC   C28 4762   1.401   2.235   9.605 -0.3625 -0.2933  0.0307
   61SAPC   H8R 4763   1.437   2.151   9.666 -0.7459 -0.9746 -0.6721
   61SAPC   C29 4764   1.489   2.293   9.521 -0.1274 -0.2024 -0.0816
   61SAPC   H9R 4765   1.592   2.254   9.512  0.2617  0.6423  0.7115
   61SAPC  C210 4766   1.457   2.408   9.430  0.0807  0.4566 -0.3087
   61SAPC  H10R 4767   1.508   2.500   9.465 -0.5095  0.0159  1.7303
   61SAPC  H10S 4768   1.354   2.449   9.429  0.5825  1.7646  1.1679
   61SAPC  C211 4769   1.508   2.377   9.292 -0.5995  0.5565  0.0876
   61SAPC  H11R 4770   1.450   2.309   9.227 -0.0320  1.2224 -1.1253
   61SAPC  C212 4771   1.622   2.430   9.235  0.5295 -0.6659 -0.7481
   61SAPC  H12R 4772   1.650   2.406   9.131 -0.4155  0.0851 -1.1823
   61SAPC  C213 4773   1.722   2.529   9.293 -0.2611 -0.2449 -0.0151
   61SAPC  H13R 4774   1.677   2.583   9.380 -0.4069 -1.5240  0.7206
   61SAPC  H13S 4775   1.760   2.601   9.219 -1.5903  0.6828  0.1795
   61SAPC  C214 4776   1.838   2.445   9.329  0.5831 -0.2824  0.3158
   61SAPC  H14R 4777   1.835   2.344   9.285 -0.4640  0.9594 -2.5160
   61SAPC  C215 4778   1.935   2.477   9.415  0.3504  0.6932  0.0837
   61SAPC  H15R 4779   2.022   2.409   9.422  0.6194  1.0266  0.0096
   61SAPC  C216 4780   1.953   2.603   9.499 -0.0999  0.0653  0.1440
   61SAPC  H16R 4781   1.887   2.688   9.473 -3.9111 -3.0882 -0.9167
   61SAPC  H16S 4782   2.059   2.621   9.472 -0.4098 -1.1679 -2.0342
   61SAPC  C217 4783   1.952   2.565   9.647  0.5759 -0.6781  0.1738
   61SAPC  H17R 4784   1.978   2.652   9.712  0.5910 -1.0962  0.7289
   61SAPC  H17S 4785   2.027   2.489   9.678  1.1137 -0.7825 -1.3419
   61SAPC  C218 4786   1.810   2.526   9.693 -0.2167  0.2965  0.0768
   61SAPC  H18R 4787   1.771   2.439   9.636 -1.3344  1.3823 -0.8466
   61SAPC  H18S 4788   1.746   2.615   9.676 -2.7530 -1.6199 -0.6710
   61SAPC  C219 4789   1.789   2.499   9.846 -0.1064 -0.0599  0.4134
   61SAPC  H19R 4790   1.815   2.595   9.897  2.0028 -0.2179 -0.3317
   61SAPC  H19S 4791   1.849   2.417   9.891  0.2025  0.4624  0.9632
   61SAPC  C220 4792   1.648   2.451   9.877  0.0611 -0.2674  0.7573
   61SAPC  H20R 4793   1.635   2.451   9.987  0.6772 -0.6820  0.8345
   61SAPC  H20S 4794   1.613   2.359   9.825  0.0627  0.5012 -0.6373
   61SAPC  H20T 4795   1.582   2.536   9.851 -0.4778 -1.0574 -0.5092
   61SAPC   C33 4796   1.193   2.605   9.977  0.4889 -0.7997  0.0300
   61SAPC   H3X 4797   1.234   2.521   9.917  4.0167  0.8029  0.1045
   61SAPC   H3Y 4798   1.276   2.677   9.991  0.0667 -0.1676 -0.6453
   61SAPC   C34 4799   1.094   2.666   9.873 -0.3016 -0.1967 -0.0335
   61SAPC   H4X 4800   1.061   2.758   9.925  0.3801 -0.9798  1.8341
   61SAPC   H4Y 4801   1.000   2.607   9.872 -2.5124  3.1788  0.9458
   61SAPC   C35 4802   1.153   2.688   9.734 -0.3461 -0.8937  0.0179
   61SAPC   H5X 4803   1.174   2.590   9.686 -0.5754 -1.0236  0.1869
   61SAPC   H5Y 4804   1.250   2.739   9.754 -0.8690  1.4237 -2.9907
   61SAPC   C36 4805   1.054   2.779   9.659  1.2252  0.4403 -0.2301
   61SAPC   H6X 4806   1.042   2.873   9.715  3.0184  0.9679 -0.6888
   61SAPC   H6Y 4807   0.960   2.720   9.649  2.1961 -0.8847 -2.1319
   61SAPC   C37 4808   1.095   2.806   9.513 -0.1283 -0.0127  1.1881
   61SAPC   H7X 4809   1.202   2.836   9.511 -0.8762  2.6974 -0.7424
   61SAPC   H7Y 4810   1.035   2.886   9.466  0.3892 -1.6476 -2.4688
   61SAPC   C38 4811   1.080   2.692   9.412 -0.0644 -0.0303 -0.4069
   61SAPC   H8X 4812   0.975   2.658   9.418  0.2340 -0.7948  0.8521
   61SAPC   H8Y 4813   1.147   2.605   9.432  1.1681  0.9843 -0.0590
   61SAPC   C39 4814   1.120   2.726   9.272  0.2520  0.1368  0.1608
   61SAPC   H9X 4815   1.230   2.713   9.262  0.2287  0.2893 -0.2944
   61SAPC   H9Y 4816   1.091   2.829   9.243 -0.2189 -0.4853 -1.6140
   61SAPC  C310 4817   1.056   2.643   9.162 -0.1118 -0.3673 -0.3695
   61SAPC  H10X 4818   0.946   2.653   9.173 -0.1187  0.2059 -0.9667
   61SAPC  H10Y 4819   1.088   2.538   9.182  0.3486 -0.2677 -0.5716
   61SAPC  C311 4820   1.091   2.691   9.027 -0.8815 -0.3575  0.6984
   61SAPC  H11X 4821   1.198   2.668   9.005 -0.8534  2.0728 -1.8799
   61SAPC  H11Y 4822   1.087   2.801   9.014  0.7846 -0.5435 -1.8461
   61SAPC  C312 4823   1.017   2.629   8.903 -1.2408  0.4951  0.8313
   61SAPC  H12X 4824   1.013   2.710   8.828 -0.9055  0.1962  0.4894
   61SAPC  H12Y 4825   0.912   2.604   8.931 -2.8477  3.8497 -1.7076
   61SAPC  C313 4826   1.079   2.493   8.840  0.4382 -0.1695 -0.4448
   61SAPC  H13X 4827   1.078   2.420   8.924 -0.2449  1.3652  0.9020
   61SAPC  H13Y 4828   1.180   2.518   8.803  0.5672  0.7567  0.5052
   61SAPC  C314 4829   0.998   2.437   8.725 -0.1760 -0.2830  0.4160
   61SAPC  H14X 4830   0.980   2.516   8.649  1.9891 -1.2168 -1.1084
   61SAPC  H14Y 4831   0.901   2.409   8.771  0.6695 -1.4447  1.5328
   61SAPC  C315 4832   1.054   2.310   8.650 -0.3569 -0.3548  0.0795
   61SAPC  H15X 4833   1.063   2.225   8.722  1.2378  0.1881  0.5644
   61SAPC  H15Y 4834   1.157   2.334   8.615  0.1553  1.1592  2.4631
   61SAPC  C316 4835   0.971   2.266   8.532 -0.0976  0.5260  0.3170
   61SAPC  H16X 4836   0.966   2.342   8.451  1.2715 -0.3558 -0.6117
   61SAPC  H16Y 4837   0.865   2.245   8.561 -0.7997  1.8026 -1.2651
   61SAPC  C317 4838   1.037   2.142   8.463 -0.0991  0.6781  0.3668
   61SAPC  H17X 4839   1.137   2.175   8.426  1.2084 -1.4460  1.8948
   61SAPC  H17Y 4840   0.981   2.116   8.370  1.9662 -3.5802  0.1982
   61SAPC  C318 4841   1.049   2.020   8.558  0.2735 -0.2884 -0.1189
   61SAPC  H18X 4842   1.120   2.059   8.633 -1.1895 -0.4721  1.3926
   61SAPC  H18Y 4843   1.084   1.933   8.499 -3.0903 -1.5449 -0.3754
   61SAPC  H18Z 4844   0.954   1.992   8.608  0.6614  0.0765  0.8250
   62SAPC     N 4845   6.590   1.155  10.878 -0.5161  0.4581  0.2728
   62SAPC   C12 4846   6.602   1.291  10.787  0.2246  0.5939 -1.0898
   62SAPC  H12A 4847   6.600   1.372  10.858 -0.3921 -0.3821  0.0287
   62SAPC  H12B 4848   6.505   1.292  10.740  0.3783 -2.0397 -1.5450
   62SAPC   C13 4849   6.727   1.130  10.932  0.6063  0.2837  0.2697
   62SAPC  H13A 4850   6.799   1.132  10.852 -0.5030 -0.4893 -0.7641
   62SAPC  H13B 4851   6.764   1.218  10.982  1.8179 -0.1771  0.1963
   62SAPC  H13C 4852   6.738   1.036  10.985 -0.4957 -0.7459 -1.2719
   62SAPC   C14 4853   6.496   1.182  10.989  0.4354 -0.3029  0.3269
   62SAPC  H14A 4854   6.398   1.206  10.950  0.2644 -0.7024  0.5117
   62SAPC  H14B 4855   6.476   1.103  11.060 -3.9517 -0.6143 -1.0950
   62SAPC  H14C 4856   6.532   1.269  11.042 -0.0657  0.5734 -0.7577
   62SAPC   C15 4857   6.553   1.041  10.795 -0.7671 -0.1860  0.0310
   62SAPC  H15A 4858   6.452   1.056  10.759 -0.2082  0.3422 -1.3361
   62SAPC  H15B 4859   6.617   1.040  10.708 -0.4327  0.1233  0.2750
   62SAPC  H15C 4860   6.556   0.954  10.860  0.1006  0.2505  0.5779
   62SAPC   C11 4861   6.715   1.312  10.692  0.2883 -0.2196  0.1648
   62SAPC  H11A 4862   6.702   1.392  10.616  1.4023 -0.8082 -0.6564
   62SAPC  H11B 4863   6.730   1.217  10.637 -1.8185  1.0580 -2.7141
   62SAPC     P 4864   6.871   1.485  10.788 -0.0813 -0.1804 -0.1569
   62SAPC   O13 4865   6.751   1.548  10.843  0.0324 -0.5586 -0.2524
   62SAPC   O14 4866   6.985   1.489  10.883 -0.0458  0.0177  0.4811
   62SAPC   O12 4867   6.838   1.335  10.753  0.3788 -0.5449  0.0566
   62SAPC   O11 4868   6.920   1.556  10.656  0.6736  0.0826 -0.3997
   62SAPC    C1 4869   6.947   1.489  10.535 -0.1892 -0.0824 -0.3773
   62SAPC    HA 4870   6.941   1.379  10.529  1.9476 -0.3658  1.8338
   62SAPC    HB 4871   6.886   1.527  10.450  0.8125  1.1317 -0.5702
   62SAPC    C2 4872   7.097   1.526  10.492 -0.0526  0.5292 -0.5245
   62SAPC    HS 4873   7.118   1.629  10.526 -0.8687  0.6176 -0.2793
   62SAPC   O21 4874   7.104   1.529  10.349 -0.4262 -0.7197 -0.4512
   62SAPC   C21 4875   7.223   1.553  10.305  0.0467  0.5223 -0.3174
   62SAPC   O22 4876   7.316   1.591  10.371  0.4066 -0.1116  0.4201
   62SAPC   C22 4877   7.224   1.533  10.154  0.0872  0.6174 -0.5897
   62SAPC   H2R 4878   7.328   1.560  10.124  0.8734 -1.1949  0.3819
   62SAPC   H2S 4879   7.203   1.424  10.149 -1.2999  0.7336  1.9557
   62SAPC    C3 4880   7.194   1.429  10.571  0.1214 -0.7689  0.2806
   62SAPC    HX 4881   7.186   1.469  10.675 -0.6383 -0.5876  0.1593
   62SAPC    HY 4882   7.298   1.438  10.534  0.1421 -0.9151  0.3049
   62SAPC   O31 4883   7.145   1.288  10.563 -1.2286 -0.4022 -0.2468
   62SAPC   C31 4884   7.193   1.226  10.456  0.3735  0.7114  0.6901
   62SAPC   O32 4885   7.268   1.269  10.375 -0.1024 -0.2031 -0.1014
   62SAPC   C32 4886   7.126   1.084  10.448 -0.1866 -0.2130 -0.2042
   62SAPC   H2X 4887   7.019   1.104  10.470  0.1875  1.2936  0.3656
   62SAPC   H2Y 4888   7.170   1.033  10.536  0.5832  0.8282  0.0336
   62SAPC   C23 4889   7.130   1.622  10.078  0.9355 -0.3092  0.4621
   62SAPC   H3R 4890   7.179   1.721  10.079  1.0597 -0.3736  0.8184
   62SAPC   H3S 4891   7.026   1.632  10.115  0.1616 -0.2122 -1.6279
   62SAPC   C24 4892   7.135   1.595   9.924  0.3830 -0.5763 -0.1050
   62SAPC   H4R 4893   7.075   1.506   9.896  0.6904 -1.0078  0.5866
   62SAPC   H4S 4894   7.236   1.568   9.887  0.2926  2.0264 -2.3833
   62SAPC   C25 4895   7.082   1.713   9.849 -0.1906 -0.1146  0.0036
   62SAPC   H5R 4896   6.973   1.728   9.857 -0.7413 -1.9699 -3.2813
   62SAPC   C26 4897   7.149   1.788   9.759  0.5149 -1.0396  0.0234
   62SAPC   H6R 4898   7.089   1.868   9.712  0.5390 -0.7889  0.4169
   62SAPC   C27 4899   7.297   1.779   9.735 -0.1658  0.1773  0.9724
   62SAPC   H7R 4900   7.310   1.669   9.722  0.8290  0.4138 -0.1899
   62SAPC   H7S 4901   7.351   1.817   9.824 -2.3002  1.2955  1.8139
   62SAPC   C28 4902   7.330   1.853   9.610 -0.6563  0.3030  0.1460
   62SAPC   H8R 4903   7.278   1.949   9.594 -0.1750  0.6024  0.3646
   62SAPC   C29 4904   7.400   1.806   9.509 -0.2761 -0.0036 -0.6076
   62SAPC   H9R 4905   7.401   1.856   9.411  0.4896 -0.6752 -0.9542
   62SAPC  C210 4906   7.469   1.669   9.508  0.4982  0.0366  0.2865
   62SAPC  H10R 4907   7.391   1.597   9.474  1.7191 -0.6847 -1.0384
   62SAPC  H10S 4908   7.493   1.651   9.615  0.4388  0.0368  0.3000
   62SAPC  C211 4909   7.599   1.671   9.433 -0.5279  0.8664 -0.4683
   62SAPC  H11R 4910   7.688   1.701   9.489  1.0444 -1.4080 -1.6499
   62SAPC  C212 4911   7.607   1.629   9.307  0.3365 -0.3843  0.9111
   62SAPC  H12R 4912   7.703   1.633   9.253 -0.6318  0.4062 -0.7811
   62SAPC  C213 4913   7.507   1.573   9.212  0.1475 -0.5124 -0.1130
   62SAPC  H13R 4914   7.412   1.549   9.266 -0.0622  0.7967  0.1249
   62SAPC  H13S 4915   7.551   1.480   9.171  0.1089  0.2441 -1.9143
   62SAPC  C214 4916   7.469   1.672   9.097 -0.3466 -0.2776  0.6722
   62SAPC  H14R 4917   7.385   1.740   9.119  0.2982  0.6917  0.1481
   62SAPC  C215 4918   7.537   1.680   8.983  0.6993  0.5953  0.1107
   62SAPC  H15R 4919   7.510   1.761   8.914  0.0543 -0.0489 -0.4037
   62SAPC  C216 4920   7.660   1.606   8.940  0.5071 -0.1116  0.2142
   62SAPC  H16R 4921   7.686   1.523   9.010  3.9275 -0.0561 -0.9323
   62SAPC  H16S 4922   7.740   1.681   8.928 -0.3494  0.9618  1.1467
   62SAPC  C217 4923   7.635   1.532   8.805  0.8353 -0.3874 -0.2678
   62SAPC  H17R 4924   7.572   1.590   8.734  0.0086 -0.2760  0.5440
   62SAPC  H17S 4925   7.574   1.439   8.814  1.0466 -0.7511 -2.2796
   62SAPC  C218 4926   7.770   1.483   8.745  0.9120 -0.0959  0.2762
   62SAPC  H18R 4927   7.811   1.408   8.816 -0.9947 -0.1126  1.3844
   62SAPC  H18S 4928   7.847   1.562   8.731  0.9646 -0.6487 -3.1616
   62SAPC  C219 4929   7.758   1.409   8.611 -0.9942 -0.1703  0.1657
   62SAPC  H19R 4930   7.674   1.336   8.615 -1.1109  0.0187  1.4638
   62SAPC  H19S 4931   7.857   1.362   8.597 -0.5703  0.7843 -0.0674
   62SAPC  C220 4932   7.734   1.504   8.499 -0.4465  0.1416 -0.1154
   62SAPC  H20R 4933   7.753   1.462   8.398 -3.7379  1.0672 -1.1859
   62SAPC  H20S 4934   7.795   1.597   8.508  0.4145 -0.3694 -0.5139
   62SAPC  H20T 4935   7.628   1.537   8.504 -0.6536 -0.7182  1.6041
   62SAPC   C33 4936   7.151   1.006  10.312  0.0699 -0.6858  0.1860
   62SAPC   H3X 4937   7.247   0.952  10.330 -0.3411 -0.9490  1.6602
   62SAPC   H3Y 4938   7.150   1.083  10.232  1.2452 -0.4352  0.3996
   62SAPC   C34 4939   7.034   0.912  10.286 -0.5493 -0.2059  1.2743
   62SAPC   H4X 4940   6.939   0.968  10.293 -0.0272  1.0623 -1.3874
   62SAPC   H4Y 4941   7.030   0.822  10.352  3.1335 -0.7387  0.9043
   62SAPC   C35 4942   7.047   0.843  10.146  0.3926  0.1300 -0.4133
   62SAPC   H5X 4943   7.006   0.914  10.070 -2.5786 -1.1501 -0.0534
   62SAPC   H5Y 4944   6.975   0.759  10.135 -0.9444  1.1042  0.8592
   62SAPC   C36 4945   7.181   0.779  10.119 -0.5467 -0.2233 -0.3825
   62SAPC   H6X 4946   7.218   0.731  10.212  0.9003  0.8686 -0.3794
   62SAPC   H6Y 4947   7.253   0.859  10.092  0.5960 -0.6940  1.1491
   62SAPC   C37 4948   7.179   0.666  10.017  0.0590  0.6271 -0.3208
   62SAPC   H7X 4949   7.081   0.614  10.015 -0.2623  1.1711  0.8342
   62SAPC   H7Y 4950   7.250   0.583  10.039 -2.6170 -1.3459  1.1702
   62SAPC   C38 4951   7.207   0.719   9.875 -0.2909 -0.2715 -0.1714
   62SAPC   H8X 4952   7.297   0.784   9.880 -0.3379 -0.0097 -2.2834
   62SAPC   H8Y 4953   7.115   0.775   9.849 -0.8989 -0.6470  1.1405
   62SAPC   C39 4954   7.241   0.606   9.779 -0.1686  0.0228 -0.0629
   62SAPC   H9X 4955   7.156   0.534   9.774 -2.1464  2.2155  0.9461
   62SAPC   H9Y 4956   7.339   0.559   9.799 -0.6347 -0.7568  0.4193
   62SAPC  C310 4957   7.252   0.671   9.636 -0.1477  0.0426  0.6543
   62SAPC  H10X 4958   7.326   0.753   9.649  0.6783 -0.5336 -0.3001
   62SAPC  H10Y 4959   7.145   0.699   9.622 -0.0500  0.8153  1.4266
   62SAPC  C311 4960   7.300   0.574   9.521 -0.5221 -0.4132 -0.3757
   62SAPC  H11X 4961   7.280   0.466   9.543 -0.1115 -0.7661 -1.6942
   62SAPC  H11Y 4962   7.410   0.591   9.515 -0.3564 -0.2421  2.5468
   62SAPC  C312 4963   7.227   0.599   9.388 -0.5790  0.4338  0.7226
   62SAPC  H12X 4964   7.120   0.566   9.389 -0.3944 -0.3416 -1.4768
   62SAPC  H12Y 4965   7.281   0.537   9.313  1.1226  0.8768  1.5739
   62SAPC  C313 4966   7.230   0.744   9.334 -0.0730 -0.5128 -0.4507
   62SAPC  H13X 4967   7.335   0.780   9.338 -0.5184  0.8054 -0.3358
   62SAPC  H13Y 4968   7.178   0.801   9.414  0.6678  0.8450 -0.9235
   62SAPC  C314 4969   7.161   0.765   9.196 -0.3036  0.3131  0.3362
   62SAPC  H14X 4970   7.144   0.873   9.180 -1.8613 -0.0430 -0.4525
   62SAPC  H14Y 4971   7.063   0.718   9.216  1.0901 -2.1615  1.6196
   62SAPC  C315 4972   7.239   0.685   9.089 -0.7484  0.5595 -0.2035
   62SAPC  H15X 4973   7.178   0.673   8.997 -1.2973  1.5515  0.0257
   62SAPC  H15Y 4974   7.258   0.579   9.118  0.4999  0.7798 -0.2269
   62SAPC  C316 4975   7.371   0.754   9.046 -0.3503  0.2099 -0.5283
   62SAPC  H16X 4976   7.436   0.741   9.135  0.1657 -0.8808 -1.0617
   62SAPC  H16Y 4977   7.353   0.861   9.022  0.8064  0.3936 -0.5957
   62SAPC  C317 4978   7.450   0.677   8.938  0.3400 -0.1332 -0.2841
   62SAPC  H17X 4979   7.400   0.685   8.838 -2.0133 -0.1767  0.8541
   62SAPC  H17Y 4980   7.440   0.571   8.970 -3.6563 -0.1337 -1.2087
   62SAPC  C318 4981   7.595   0.716   8.931  0.6922  0.1295 -0.0383
   62SAPC  H18X 4982   7.646   0.663   8.847  2.9940  2.5960 -0.2947
   62SAPC  H18Y 4983   7.662   0.708   9.019 -1.9527  2.7988  2.2850
   62SAPC  H18Z 4984   7.601   0.823   8.901  2.1230 -0.3635 -1.6032
   63SAPC     N 4985   4.973   6.169   6.169  0.4212 -0.2687  0.2614
   63SAPC   C12 4986   4.994   6.314   6.219  0.2212  0.9927 -0.4902
   63SAPC  H12A 4987   4.993   6.383   6.135  0.5344  0.9305 -0.5468
   63SAPC  H12B 4988   5.094   6.322   6.260 -0.5876  0.7338  1.5947
   63SAPC   C13 4989   4.963   6.082   6.292 -0.2563  0.5024  0.1647
   63SAPC  H13A 4990   4.892   6.113   6.367 -0.0981 -2.5717  1.6599
   63SAPC  H13B 4991   4.937   5.987   6.248  1.0502  0.6948 -1.0656
   63SAPC  H13C 4992   5.058   6.076   6.343 -1.6988 -0.8158  2.7643
   63SAPC   C14 4993   4.842   6.154   6.090  0.1836  0.1058 -0.0538
   63SAPC  H14A 4994   4.832   6.054   6.052  0.0674 -0.3759  1.2085
   63SAPC  H14B 4995   4.763   6.162   6.163 -0.9603 -0.9583 -1.1483
   63SAPC  H14C 4996   4.830   6.232   6.016 -2.0246  3.6742  3.8483
   63SAPC   C15 4997   5.092   6.115   6.092  0.2052  0.1813 -0.7203
   63SAPC  H15A 4998   5.131   6.193   6.028 -3.6966  0.9804 -2.2618
   63SAPC  H15B 4999   5.173   6.086   6.156 -0.7230  2.1329  1.4078
   63SAPC  H15C 5000   5.067   6.024   6.039 -1.6731 -0.4505  1.1839
   63SAPC   C11 5001   4.902   6.377   6.323  0.3395 -0.0607  0.0987
   63SAPC  H11A 5002   4.908   6.486   6.303  0.2571 -0.2432 -0.9756
   63SAPC  H11B 5003   4.943   6.364   6.425 -2.3305  1.6429  1.4516
   63SAPC     P 5004   4.685   6.266   6.435 -0.2364  0.2142 -0.1763
   63SAPC   O13 5005   4.590   6.175   6.363  0.6878 -0.8162 -0.6647
   63SAPC   O14 5006   4.784   6.204   6.527 -0.0607 -0.5150 -0.3436
   63SAPC   O12 5007   4.764   6.339   6.318  0.5371 -0.0866 -0.7289
   63SAPC   O11 5008   4.611   6.374   6.514 -0.0875  0.1290  0.2483
   63SAPC    C1 5009   4.640   6.510   6.508 -0.2366 -0.0204 -0.6561
   63SAPC    HA 5010   4.681   6.542   6.409  0.2587  2.7031  0.3681
   63SAPC    HB 5011   4.552   6.574   6.531  0.3469  0.3105  0.6701
   63SAPC    C2 5012   4.749   6.550   6.609 -0.5707  0.7233 -0.5229
   63SAPC    HS 5013   4.844   6.502   6.576  0.0113  0.1595  1.8604
   63SAPC   O21 5014   4.704   6.520   6.741 -0.2192  0.0064 -0.4401
   63SAPC   C21 5015   4.808   6.498   6.821  0.1777  0.3494 -0.0649
   63SAPC   O22 5016   4.926   6.501   6.796 -0.3725  0.4161 -0.1104
   63SAPC   C22 5017   4.760   6.441   6.950  0.9218  0.3566  0.1008
   63SAPC   H2R 5018   4.654   6.412   6.936  1.0182  0.6654 -1.3658
   63SAPC   H2S 5019   4.816   6.348   6.973  1.6021  0.5440 -0.7681
   63SAPC    C3 5020   4.783   6.700   6.591 -0.0520 -0.6049  0.2693
   63SAPC    HX 5021   4.687   6.748   6.622  2.1371  2.7603  2.1449
   63SAPC    HY 5022   4.793   6.736   6.486  3.1206  1.2498  1.1607
   63SAPC   O31 5023   4.890   6.738   6.676 -0.1181 -0.5458 -0.1050
   63SAPC   C31 5024   5.012   6.768   6.622  0.3427 -0.9983 -0.4891
   63SAPC   O32 5025   5.046   6.753   6.507  0.6365  0.2777  0.3903
   63SAPC   C32 5026   5.109   6.807   6.735  0.3826  0.4419 -0.5478
   63SAPC   H2X 5027   5.131   6.706   6.777  1.4096  0.9782  0.2247
   63SAPC   H2Y 5028   5.059   6.864   6.816 -0.7233 -0.3424 -0.6602
   63SAPC   C23 5029   4.782   6.540   7.065 -0.2856 -0.0261  0.1724
   63SAPC   H3R 5030   4.702   6.615   7.050 -1.3968 -0.8511  1.8906
   63SAPC   H3S 5031   4.879   6.586   7.034  0.7244 -3.0058 -1.2994
   63SAPC   C24 5032   4.779   6.465   7.200  0.1847  0.9146  0.5620
   63SAPC   H4R 5033   4.835   6.529   7.271  0.9096  0.5722  0.3055
   63SAPC   H4S 5034   4.847   6.378   7.196  1.6719  2.0488  0.7789
   63SAPC   C25 5035   4.646   6.414   7.249  0.6106  0.1007 -0.4872
   63SAPC   H5R 5036   4.583   6.377   7.167 -0.9786 -0.1679  0.8166
   63SAPC   C26 5037   4.588   6.422   7.371  0.2809  0.2599  0.5049
   63SAPC   H6R 5038   4.479   6.407   7.381  0.4091  0.2364  1.9842
   63SAPC   C27 5039   4.655   6.493   7.489 -0.1057  0.4953  0.0949
   63SAPC   H7R 5040   4.584   6.497   7.575 -1.6482  0.1933 -1.1321
   63SAPC   H7S 5041   4.657   6.601   7.464 -3.3145  0.7437  0.7055
   63SAPC   C28 5042   4.790   6.454   7.549 -0.5554  0.1770 -0.8146
   63SAPC   H8R 5043   4.857   6.391   7.489  0.3127 -1.2850  1.6493
   63SAPC   C29 5044   4.837   6.497   7.671  0.5807 -0.3714  0.4239
   63SAPC   H9R 5045   4.935   6.458   7.704  0.2449 -0.3367  1.4848
   63SAPC  C210 5046   4.764   6.599   7.758 -0.4655 -0.3566 -0.7156
   63SAPC  H10R 5047   4.680   6.653   7.709  0.5057  2.5193  0.6805
   63SAPC  H10S 5048   4.834   6.682   7.782 -0.9244 -0.5706  1.4200
   63SAPC  C211 5049   4.718   6.537   7.891 -0.5343 -0.1801  0.4463
   63SAPC  H11R 5050   4.628   6.476   7.877  0.4601 -2.1708  2.2914
   63SAPC  C212 5051   4.776   6.544   8.018 -0.0580 -0.1651  0.9067
   63SAPC  H12R 5052   4.733   6.494   8.106 -1.7292 -0.0976  0.1592
   63SAPC  C213 5053   4.887   6.626   8.057 -0.1516  0.3886 -0.4552
   63SAPC  H13R 5054   4.868   6.686   8.149  1.7931  0.1365  0.1327
   63SAPC  H13S 5055   4.908   6.709   7.986  4.7299  1.1551  1.6608
   63SAPC  C214 5056   5.021   6.556   8.069 -0.9765 -0.6403 -0.0620
   63SAPC  H14R 5057   5.085   6.563   7.980  0.5577 -0.6497  1.0088
   63SAPC  C215 5058   5.073   6.495   8.183  0.7325  0.8949 -0.1921
   63SAPC  H15R 5059   5.173   6.450   8.189  0.2379  0.1709  3.8999
   63SAPC  C216 5060   4.996   6.488   8.316  0.1403  0.2480  0.3671
   63SAPC  H16R 5061   4.898   6.435   8.321  0.3851 -0.2205  0.2368
   63SAPC  H16S 5062   4.994   6.594   8.350  1.3516 -0.6650  3.4914
   63SAPC  C217 5063   5.085   6.420   8.420 -1.1699  0.1675 -0.3257
   63SAPC  H17R 5064   5.054   6.464   8.518  0.1838 -2.5984  1.4113
   63SAPC  H17S 5065   5.188   6.459   8.407 -1.4546  0.7242 -0.9367
   63SAPC  C218 5066   5.073   6.270   8.404  0.1977 -0.4920 -0.1044
   63SAPC  H18R 5067   5.131   6.244   8.313 -2.0110 -0.5559 -1.5244
   63SAPC  H18S 5068   4.967   6.243   8.385  0.2735 -1.1433  0.3941
   63SAPC  C219 5069   5.120   6.185   8.526 -0.1504 -0.6339  1.0379
   63SAPC  H19R 5070   5.071   6.225   8.617 -0.4095  2.1892 -0.2804
   63SAPC  H19S 5071   5.229   6.197   8.546 -0.2394 -0.0845  1.2005
   63SAPC  C220 5072   5.096   6.032   8.504  0.9613  0.2860 -0.2635
   63SAPC  H20R 5073   5.145   5.970   8.581 -0.1325  0.7602  0.8393
   63SAPC  H20S 5074   5.136   5.999   8.406  2.8174  1.4443  0.0983
   63SAPC  H20T 5075   4.986   6.012   8.505  0.7632  1.3550  1.8907
   63SAPC   C33 5076   5.238   6.872   6.691  0.1779 -0.2859  0.3599
   63SAPC   H3X 5077   5.226   6.951   6.614  3.5834  1.5673  1.6178
   63SAPC   H3Y 5078   5.299   6.795   6.639 -0.1013  0.2809 -0.8251
   63SAPC   C34 5079   5.323   6.950   6.804 -0.4965 -0.6671 -0.4067
   63SAPC   H4X 5080   5.261   7.035   6.840 -1.3470 -1.3527 -0.2582
   63SAPC   H4Y 5081   5.412   6.990   6.750 -0.5564  1.7337  1.2111
   63SAPC   C35 5082   5.378   6.864   6.918 -1.4070  0.6682  0.0976
   63SAPC   H5X 5083   5.431   6.775   6.878  1.5945  1.2875  2.5166
   63SAPC   H5Y 5084   5.296   6.818   6.976  0.4845 -2.3182  0.5212
   63SAPC   C36 5085   5.467   6.941   7.026  0.0246  0.8658 -0.0705
   63SAPC   H6X 5086   5.551   6.991   6.974 -0.6071  0.8327 -1.1443
   63SAPC   H6Y 5087   5.500   6.862   7.097 -1.1182 -0.8193 -1.3657
   63SAPC   C37 5088   5.399   7.041   7.119  0.5234 -0.5703 -0.0749
   63SAPC   H7X 5089   5.294   7.009   7.139  0.3838 -0.3123 -0.3962
   63SAPC   H7Y 5090   5.388   7.141   7.072  0.8727 -0.8624 -0.7757
   63SAPC   C38 5091   5.467   7.050   7.256  0.2869  0.1727  0.1412
   63SAPC   H8X 5092   5.578   7.058   7.248  0.3595  0.0307  1.0129
   63SAPC   H8Y 5093   5.450   6.948   7.294  1.0147  0.1760  0.4814
   63SAPC   C39 5094   5.403   7.151   7.346 -0.3325 -0.5348 -0.0053
   63SAPC   H9X 5095   5.295   7.129   7.355 -1.2117  1.2457 -4.6753
   63SAPC   H9Y 5096   5.406   7.254   7.304 -2.4086 -0.5789 -0.3284
   63SAPC  C310 5097   5.468   7.151   7.489 -0.0487  0.6459 -0.1559
   63SAPC  H10X 5098   5.573   7.183   7.475  0.3597 -1.4144 -2.0797
   63SAPC  H10Y 5099   5.469   7.050   7.535 -0.9888  0.6508 -0.1097
   63SAPC  C311 5100   5.403   7.247   7.590 -0.1371  0.1048 -0.1231
   63SAPC  H11X 5101   5.294   7.225   7.598 -0.0190 -1.2205 -1.8125
   63SAPC  H11Y 5102   5.418   7.346   7.543 -0.3545  0.1643 -0.0662
   63SAPC  C312 5103   5.460   7.240   7.725  0.4183  0.0592 -0.7669
   63SAPC  H12X 5104   5.560   7.288   7.728 -1.1574  3.4138  0.8332
   63SAPC  H12Y 5105   5.468   7.137   7.768 -1.6519 -0.3794 -1.4026
   63SAPC  C313 5106   5.376   7.312   7.832  0.0275 -0.7615 -0.0985
   63SAPC  H13X 5107   5.284   7.252   7.850  0.3635 -0.8036  1.5632
   63SAPC  H13Y 5108   5.354   7.413   7.792 -2.2972 -0.5803  1.4909
   63SAPC  C314 5109   5.449   7.316   7.967  0.1235 -0.5249  0.7880
   63SAPC  H14X 5110   5.539   7.381   7.969 -1.9997  2.5108  1.4482
   63SAPC  H14Y 5111   5.480   7.210   7.981  0.4299 -0.3031  1.7761
   63SAPC  C315 5112   5.363   7.356   8.073 -0.7176 -0.4015 -0.2710
   63SAPC  H15X 5113   5.396   7.321   8.173 -1.1467  1.1953  0.4418
   63SAPC  H15Y 5114   5.268   7.302   8.049  0.4446 -2.4926 -0.2488
   63SAPC  C316 5115   5.324   7.510   8.074  0.1577 -0.0157 -0.0420
   63SAPC  H16X 5116   5.247   7.525   8.153  0.0171  1.3254 -0.4329
   63SAPC  H16Y 5117   5.274   7.536   7.978  2.2685  1.6510 -0.7213
   63SAPC  C317 5118   5.426   7.614   8.116 -0.4344  0.6319  0.4470
   63SAPC  H17X 5119   5.516   7.601   8.053 -0.8932  0.1920 -0.1204
   63SAPC  H17Y 5120   5.461   7.604   8.221 -1.5781 -0.3268  0.7467
   63SAPC  C318 5121   5.374   7.755   8.108 -0.1040  0.7125 -0.1498
   63SAPC  H18X 5122   5.314   7.783   8.197 -1.0815 -0.3689 -0.4521
   63SAPC  H18Y 5123   5.299   7.757   8.026 -1.4613  0.4244  1.0765
   63SAPC  H18Z 5124   5.457   7.826   8.087  0.0552  1.2409  2.2350
   64SAPC     N 5125   0.515   0.197   6.004  1.0380 -0.7272 -0.4635
   64SAPC   C12 5126   0.458   0.090   5.917 -0.1931 -0.1448  0.0063
   64SAPC  H12A 5127   0.544   0.042   5.873  0.8684  2.1511 -0.5346
   64SAPC  H12B 5128   0.396   0.135   5.841 -0.5493  1.5777  1.2672
   64SAPC   C13 5129   0.637   0.140   6.067  0.4651 -0.0526  0.8520
   64SAPC  H13A 5130   0.610   0.047   6.114  0.3831 -0.4444  0.0278
   64SAPC  H13B 5131   0.711   0.116   5.992  0.6162 -0.2487  1.0611
   64SAPC  H13C 5132   0.679   0.214   6.134  2.0477 -1.1767  1.1432
   64SAPC   C14 5133   0.554   0.322   5.919  0.5966 -0.6103  0.2303
   64SAPC  H14A 5134   0.465   0.371   5.883  0.8703  0.1366  0.5504
   64SAPC  H14B 5135   0.613   0.394   5.974 -0.6238  0.7998 -0.2678
   64SAPC  H14C 5136   0.613   0.291   5.835  1.4929  0.1365  0.5747
   64SAPC   C15 5137   0.431   0.238   6.118 -0.2749 -0.7409 -0.0767
   64SAPC  H15A 5138   0.396   0.156   6.178 -0.2741 -1.6742 -1.3434
   64SAPC  H15B 5139   0.469   0.314   6.184  1.1926 -0.7063 -0.9211
   64SAPC  H15C 5140   0.340   0.282   6.080  0.2546 -0.8171 -1.4762
   64SAPC   C11 5141   0.368  -0.016   5.989  0.1241 -0.0131 -0.1206
   64SAPC  H11A 5142   0.330  -0.088   5.913  1.0054  0.1711 -0.7399
   64SAPC  H11B 5143   0.280   0.035   6.034 -0.1537 -0.6258  0.0426
   64SAPC     P 5144   0.439  -0.236   6.110 -0.0861  0.2563  0.2044
   64SAPC   O13 5145   0.313  -0.284   6.046  0.1916  0.4742 -0.0482
   64SAPC   O14 5146   0.564  -0.305   6.073 -0.3116  0.2144  0.9312
   64SAPC   O12 5147   0.446  -0.077   6.090  0.9020 -0.5033 -0.4732
   64SAPC   O11 5148   0.425  -0.255   6.265 -0.3326  0.4093 -0.6359
   64SAPC    C1 5149   0.309  -0.197   6.328 -1.0628 -0.4002 -0.2000
   64SAPC    HA 5150   0.228  -0.179   6.254 -1.6052 -1.6924  0.0675
   64SAPC    HB 5151   0.269  -0.269   6.402 -1.5994  1.9333  1.8352
   64SAPC    C2 5152   0.333  -0.058   6.396 -0.4363  0.1412  0.4636
   64SAPC    HS 5153   0.367   0.007   6.312 -0.0985  0.5846  0.9474
   64SAPC   O21 5154   0.442  -0.082   6.481  0.0611 -0.4418  0.8868
   64SAPC   C21 5155   0.521   0.018   6.499  0.1145 -0.8501 -0.5767
   64SAPC   O22 5156   0.521   0.125   6.434 -0.3437 -0.2297  0.9487
   64SAPC   C22 5157   0.611  -0.010   6.617 -0.3782  0.0770 -0.0933
   64SAPC   H2R 5158   0.552  -0.047   6.703 -0.6028  0.6990  0.0221
   64SAPC   H2S 5159   0.698  -0.071   6.585 -3.2551 -3.3281 -1.7245
   64SAPC    C3 5160   0.210   0.005   6.464 -0.5203  0.2564  0.0773
   64SAPC    HX 5161   0.189  -0.062   6.549  0.4248  0.1943  0.2622
   64SAPC    HY 5162   0.124   0.018   6.394 -0.3675 -0.5004 -0.2576
   64SAPC   O31 5163   0.240   0.132   6.526 -0.5381  0.1533  0.7861
   64SAPC   C31 5164   0.168   0.241   6.493 -0.4940  0.8842 -0.0763
   64SAPC   O32 5165   0.064   0.242   6.432  0.0785 -0.1581 -0.4071
   64SAPC   C32 5166   0.223   0.366   6.568 -1.2629  0.4920  0.4243
   64SAPC   H2X 5167   0.157   0.450   6.538 -0.5828  1.1819  0.8429
   64SAPC   H2Y 5168   0.328   0.382   6.533 -0.9781  3.9633  2.5930
   64SAPC   C23 5169   0.682   0.119   6.665  0.0207  0.5428  0.5981
   64SAPC   H3R 5170   0.733   0.163   6.576  1.0873  0.6196  1.2310
   64SAPC   H3S 5171   0.762   0.079   6.731  0.5097 -3.3377 -2.2003
   64SAPC   C24 5172   0.582   0.208   6.746  0.3838 -0.0012 -0.5318
   64SAPC   H4R 5173   0.526   0.148   6.821 -2.1533 -1.0840 -3.1924
   64SAPC   H4S 5174   0.503   0.242   6.675  0.9251 -1.2959 -1.7906
   64SAPC   C25 5175   0.650   0.330   6.807 -0.4346 -0.2742  0.4182
   64SAPC   H5R 5176   0.698   0.395   6.732 -2.7839  1.2083  0.1561
   64SAPC   C26 5177   0.645   0.351   6.936 -0.7901  0.2009 -0.9649
   64SAPC   H6R 5178   0.696   0.439   6.975  1.1910 -1.8098  1.0708
   64SAPC   C27 5179   0.581   0.278   7.047 -0.4482  0.1301 -0.5392
   64SAPC   H7R 5180   0.476   0.248   7.027 -0.7437 -0.4495  1.7565
   64SAPC   H7S 5181   0.563   0.352   7.127  0.1735 -1.2681  0.9161
   64SAPC   C28 5182   0.665   0.158   7.083  0.0914 -0.1597  0.2874
   64SAPC   H8R 5183   0.693   0.092   7.000 -2.4506  1.0265 -1.5987
   64SAPC   C29 5184   0.706   0.125   7.208  0.0496 -0.1725  0.0693
   64SAPC   H9R 5185   0.775   0.041   7.222 -1.5957 -1.4129  1.0319
   64SAPC  C210 5186   0.669   0.183   7.346  0.2683 -0.1095  0.4543
   64SAPC  H10R 5187   0.650   0.104   7.422 -0.1078  1.0785  1.6237
   64SAPC  H10S 5188   0.566   0.223   7.344 -0.4401 -1.7984  1.8589
   64SAPC  C211 5189   0.762   0.297   7.400 -0.1419 -0.5215 -0.0084
   64SAPC  H11R 5190   0.843   0.329   7.333 -1.2041  4.2909  0.8188
   64SAPC  C212 5191   0.777   0.340   7.523 -0.5711 -0.4210  0.2426
   64SAPC  H12R 5192   0.831   0.434   7.543  1.1279 -1.7984  2.3507
   64SAPC  C213 5193   0.693   0.275   7.638  0.4851 -0.2068  0.2844
   64SAPC  H13R 5194   0.604   0.218   7.601 -0.5663  1.1568  0.6872
   64SAPC  H13S 5195   0.665   0.365   7.695  2.7238 -0.5779  2.0316
   64SAPC  C214 5196   0.778   0.195   7.738  0.0446 -0.3792  0.0585
   64SAPC  H14R 5197   0.833   0.110   7.696  2.1138 -0.4211  2.6617
   64SAPC  C215 5198   0.792   0.209   7.863 -0.0125 -0.1748  0.2654
   64SAPC  H15R 5199   0.849   0.133   7.918 -3.8434 -2.2587  1.5644
   64SAPC  C216 5200   0.736   0.316   7.954 -0.3533 -0.5404  0.5573
   64SAPC  H16R 5201   0.727   0.286   8.061 -0.1511 -0.7382  0.5197
   64SAPC  H16S 5202   0.636   0.355   7.925 -1.4716 -2.8674  1.1879
   64SAPC  C217 5203   0.818   0.451   7.957 -0.3684 -0.2653  0.1488
   64SAPC  H17R 5204   0.844   0.496   7.859 -3.1791  1.8611  0.3056
   64SAPC  H17S 5205   0.917   0.414   7.990 -0.8301 -1.2216  0.4885
   64SAPC  C218 5206   0.765   0.552   8.055 -0.0141  0.4733 -0.0727
   64SAPC  H18R 5207   0.669   0.590   8.015  0.4618  1.4799 -0.2749
   64SAPC  H18S 5208   0.829   0.643   8.048  0.5604  0.0195 -0.8337
   64SAPC  C219 5209   0.755   0.513   8.205  0.4193 -0.5173  0.8405
   64SAPC  H19R 5210   0.671   0.444   8.227  0.7414 -0.4887  2.2112
   64SAPC  H19S 5211   0.731   0.603   8.266 -2.5398 -0.7956  0.1595
   64SAPC  C220 5212   0.892   0.466   8.241 -0.9515 -0.0836 -0.3899
   64SAPC  H20R 5213   0.960   0.552   8.224 -0.1362 -0.8151 -0.8739
   64SAPC  H20S 5214   0.925   0.372   8.192  3.5743  0.7587  0.8207
   64SAPC  H20T 5215   0.892   0.439   8.349 -2.8951 -0.7324 -0.5374
   64SAPC   C33 5216   0.212   0.351   6.713 -0.2444  0.5519 -0.4919
   64SAPC   H3X 5217   0.268   0.264   6.754  1.2012  1.0418 -1.3576
   64SAPC   H3Y 5218   0.106   0.324   6.732  0.0504 -0.2540  0.0395
   64SAPC   C34 5219   0.240   0.481   6.789  0.4518 -0.8500  0.0879
   64SAPC   H4X 5220   0.165   0.560   6.765  2.6450  0.8829 -1.2269
   64SAPC   H4Y 5221   0.338   0.518   6.753 -1.6799  1.5507 -3.5064
   64SAPC   C35 5222   0.245   0.461   6.945  0.5425  0.1810  0.5004
   64SAPC   H5X 5223   0.317   0.381   6.972  0.4002  0.1229  0.7104
   64SAPC   H5Y 5224   0.149   0.415   6.978  1.0094 -1.4770 -0.4107
   64SAPC   C36 5225   0.278   0.590   7.024 -0.1305 -0.0460 -0.3004
   64SAPC   H6X 5226   0.218   0.672   6.979  0.1018 -0.4814 -1.4194
   64SAPC   H6Y 5227   0.387   0.608   7.016 -0.1576 -0.2188 -1.1519
   64SAPC   C37 5228   0.254   0.590   7.180 -0.1512 -0.5176 -0.3300
   64SAPC   H7X 5229   0.145   0.580   7.197  0.0750 -0.4055  1.2604
   64SAPC   H7Y 5230   0.296   0.682   7.226 -0.2810 -1.8850  2.6296
   64SAPC   C38 5231   0.314   0.481   7.258  0.3552  0.5399 -0.3243
   64SAPC   H8X 5232   0.418   0.462   7.226  1.0213  1.5154  1.2318
   64SAPC   H8Y 5233   0.264   0.383   7.241  1.1462  0.2355 -0.9149
   64SAPC   C39 5234   0.306   0.513   7.403 -1.0085  0.5793  0.4940
   64SAPC   H9X 5235   0.231   0.594   7.411 -1.6088  0.0781  0.0194
   64SAPC   H9Y 5236   0.401   0.564   7.429 -0.0337 -1.4505  1.0292
   64SAPC  C310 5237   0.284   0.387   7.488  0.6103  0.7800  0.0335
   64SAPC  H10X 5238   0.347   0.309   7.440 -0.4724  0.1165 -0.3199
   64SAPC  H10Y 5239   0.183   0.341   7.485  0.9513 -0.2493  2.7136
   64SAPC  C311 5240   0.308   0.412   7.643 -0.7355  0.3508  0.4360
   64SAPC  H11X 5241   0.253   0.507   7.659  0.4852  1.4299 -1.5383
   64SAPC  H11Y 5242   0.415   0.431   7.663 -0.5253  0.8718 -1.1052
   64SAPC  C312 5243   0.280   0.298   7.742 -0.0352 -0.2727  0.2146
   64SAPC  H12X 5244   0.323   0.201   7.708  2.1910  1.0912 -0.9572
   64SAPC  H12Y 5245   0.170   0.282   7.735  0.1134 -1.6800  0.9481
   64SAPC  C313 5246   0.328   0.330   7.887  0.4380 -0.2440  0.5473
   64SAPC  H13X 5247   0.435   0.357   7.880  1.6109 -3.2079  5.1222
   64SAPC  H13Y 5248   0.320   0.231   7.936 -3.1501 -0.0101  0.6105
   64SAPC  C314 5249   0.258   0.443   7.972 -0.5748 -0.3063 -0.3495
   64SAPC  H14X 5250   0.148   0.432   7.968 -0.4642 -2.2622  1.0729
   64SAPC  H14Y 5251   0.294   0.540   7.931  0.1381  0.1929  1.4058
   64SAPC  C315 5252   0.294   0.430   8.115 -0.1538 -0.4857 -0.0106
   64SAPC  H15X 5253   0.401   0.402   8.126  0.7619  3.1079  0.8200
   64SAPC  H15Y 5254   0.235   0.344   8.152 -0.0697  0.0902  1.5036
   64SAPC  C316 5255   0.272   0.559   8.194 -0.2127  0.5767  0.0890
   64SAPC  H16X 5256   0.170   0.601   8.184 -0.3533  0.2909  0.3067
   64SAPC  H16Y 5257   0.345   0.630   8.148  0.8766  0.1251  1.0920
   64SAPC  C317 5258   0.314   0.555   8.346 -0.0036  0.0168  0.2716
   64SAPC  H17X 5259   0.424   0.557   8.362  0.3843 -0.7312 -2.0941
   64SAPC  H17Y 5260   0.277   0.464   8.399 -1.1142 -0.4672 -1.2825
   64SAPC  C318 5261   0.265   0.689   8.405 -1.3268  0.1323  0.8068
   64SAPC  H18X 5262   0.154   0.683   8.414 -1.1443 -2.0782  2.0300
   64SAPC  H18Y 5263   0.288   0.773   8.337  1.3689 -0.3400  1.0662
   64SAPC  H18Z 5264   0.304   0.705   8.508 -0.6298 -0.6199  0.6615
   65SAPC     N 5265   6.560   1.200   5.844 -0.6434  0.2096 -0.7389
   65SAPC   C12 5266   6.600   1.206   5.989  0.5489 -0.3853  0.6013
   65SAPC  H12A 5267   6.524   1.151   6.043 -2.2080  2.2933 -0.3514
   65SAPC  H12B 5268   6.610   1.310   6.016  0.6516  0.1327 -1.3666
   65SAPC   C13 5269   6.527   1.056   5.817  0.2301 -0.2972 -0.2989
   65SAPC  H13A 5270   6.440   1.014   5.866 -0.0920  0.4560 -0.2287
   65SAPC  H13B 5271   6.510   1.038   5.712 -3.5559 -1.4793  0.4445
   65SAPC  H13C 5272   6.613   0.996   5.845 -1.0366 -0.6969  3.0546
   65SAPC   C14 5273   6.440   1.282   5.810  0.2355 -0.3109 -0.1551
   65SAPC  H14A 5274   6.402   1.247   5.715  1.1658  0.9640 -1.0122
   65SAPC  H14B 5275   6.363   1.276   5.885  0.9527 -0.2492  0.5892
   65SAPC  H14C 5276   6.467   1.386   5.802  2.0042 -0.6972  0.4443
   65SAPC   C15 5277   6.670   1.247   5.752  0.1932 -0.0552  0.2627
   65SAPC  H15A 5278   6.701   1.350   5.762 -0.3806  0.1610 -0.1572
   65SAPC  H15B 5279   6.756   1.189   5.782  0.2186  0.9662  2.2390
   65SAPC  H15C 5280   6.653   1.216   5.650  0.3731 -4.0418  1.3852
   65SAPC   C11 5281   6.738   1.152   6.015 -0.3455 -0.1474  0.0485
   65SAPC  H11A 5282   6.758   1.055   5.966  1.8842 -1.4307  3.3704
   65SAPC  H11B 5283   6.736   1.142   6.125  0.2730  0.0781  0.0788
   65SAPC     P 5284   6.986   1.231   6.047  0.3230 -0.1911  0.0843
   65SAPC   O13 5285   7.057   1.111   5.988  0.2030  0.2136 -0.2888
   65SAPC   O14 5286   7.055   1.362   6.031  0.6724 -0.1727  0.1792
   65SAPC   O12 5287   6.842   1.244   5.974 -0.3543  0.4890 -0.6065
   65SAPC   O11 5288   6.951   1.201   6.197 -0.6555 -0.2373 -0.0804
   65SAPC    C1 5289   6.910   1.307   6.285  0.2602  0.2939  0.2398
   65SAPC    HA 5290   6.910   1.404   6.232  1.5455  0.6909  0.9491
   65SAPC    HB 5291   6.806   1.294   6.324  0.4800 -2.1708  0.0631
   65SAPC    C2 5292   7.001   1.303   6.406  0.0979  1.2390  0.1042
   65SAPC    HS 5293   7.107   1.279   6.384  0.2059 -1.9351  3.6351
   65SAPC   O21 5294   6.941   1.217   6.508 -0.0293 -0.5023  0.4657
   65SAPC   C21 5295   7.011   1.113   6.544 -0.5197 -0.1592  0.0807
   65SAPC   O22 5296   7.126   1.085   6.519 -0.0676 -0.0199  0.0756
   65SAPC   C22 5297   6.919   1.012   6.613 -0.3852  0.5770  0.7003
   65SAPC   H2R 5298   6.810   1.030   6.603 -0.6743 -1.7189 -0.6109
   65SAPC   H2S 5299   6.953   0.921   6.559  1.0123  2.4703 -1.6872
   65SAPC    C3 5300   7.011   1.442   6.466  0.2779 -0.1078 -0.0922
   65SAPC    HX 5301   6.908   1.481   6.465  0.2030 -0.1324  2.6482
   65SAPC    HY 5302   7.072   1.505   6.397  0.2013 -0.6954 -0.7005
   65SAPC   O31 5303   7.064   1.447   6.601  0.0190  0.1663 -0.4055
   65SAPC   C31 5304   7.061   1.567   6.656  0.0382 -0.0655  0.4927
   65SAPC   O32 5305   7.025   1.671   6.605 -0.0695  0.2318  0.1480
   65SAPC   C32 5306   7.099   1.557   6.803 -0.0781  0.3377 -0.1597
   65SAPC   H2X 5307   7.175   1.477   6.820  0.4135  0.3940 -1.9723
   65SAPC   H2Y 5308   7.005   1.530   6.857  0.0812 -0.2235 -0.1539
   65SAPC   C23 5309   6.952   1.004   6.764 -0.7715 -0.5821 -0.3886
   65SAPC   H3R 5310   7.045   0.947   6.786 -0.4737  0.0016 -0.0992
   65SAPC   H3S 5311   6.870   0.944   6.807 -2.4635  0.6740 -1.7864
   65SAPC   C24 5312   6.949   1.137   6.848 -0.7116 -0.5305 -0.2558
   65SAPC   H4R 5313   6.851   1.188   6.839  0.4600  1.3633 -3.0528
   65SAPC   H4S 5314   7.022   1.202   6.794 -1.7817  0.4756 -0.5173
   65SAPC   C25 5315   6.995   1.095   6.992 -0.3136 -0.2684 -0.1973
   65SAPC   H5R 5316   7.048   0.998   6.991  0.2848  0.0510  0.2954
   65SAPC   C26 5317   6.983   1.149   7.110 -0.7477  0.3287 -0.3938
   65SAPC   H6R 5318   7.026   1.101   7.199  0.0630  1.1687 -0.3267
   65SAPC   C27 5319   6.911   1.277   7.140 -0.1677  0.4744  0.0738
   65SAPC   H7R 5320   6.813   1.254   7.188 -0.2329  0.1245 -0.2240
   65SAPC   H7S 5321   6.883   1.339   7.052  2.3686 -0.6365 -1.5784
   65SAPC   C28 5322   7.001   1.357   7.228  0.2705  0.0789 -0.2934
   65SAPC   H8R 5323   7.093   1.395   7.181 -0.0041 -1.2578 -1.9614
   65SAPC   C29 5324   7.000   1.391   7.358 -0.5578  0.7712  0.4699
   65SAPC   H9R 5325   7.073   1.464   7.396  0.1392  1.3566 -1.9158
   65SAPC  C210 5326   6.903   1.343   7.457 -0.0730 -0.1830  0.4363
   65SAPC  H10R 5327   6.802   1.322   7.415 -0.6938  0.1974  1.6927
   65SAPC  H10S 5328   6.894   1.433   7.521  0.5410  0.9637 -1.0573
   65SAPC  C211 5329   6.931   1.235   7.553 -0.1215  0.1084  0.0305
   65SAPC  H11R 5330   6.855   1.155   7.546 -1.1213  1.0918 -0.3414
   65SAPC  C212 5331   7.027   1.220   7.645  0.2939  0.4066  0.4000
   65SAPC  H12R 5332   7.014   1.137   7.716 -1.0945  0.4873  0.2584
   65SAPC  C213 5333   7.135   1.316   7.675  0.6830 -0.1486 -0.5534
   65SAPC  H13R 5334   7.158   1.379   7.586 -0.4481  1.0551 -0.0073
   65SAPC  H13S 5335   7.234   1.276   7.707  1.1082  3.0832  2.5613
   65SAPC  C214 5336   7.089   1.412   7.780 -0.0106 -0.0109 -0.4821
   65SAPC  H14R 5337   7.026   1.491   7.736 -0.8335 -1.4551 -1.9785
   65SAPC  C215 5338   7.119   1.418   7.908  0.8573  0.6249 -0.5569
   65SAPC  H15R 5339   7.063   1.477   7.982  1.7981 -0.3171  0.9265
   65SAPC  C216 5340   7.217   1.325   7.972 -0.0919  0.4038 -0.4027
   65SAPC  H16R 5341   7.241   1.238   7.907 -2.1270 -0.3156 -0.2503
   65SAPC  H16S 5342   7.173   1.296   8.070  0.2945  0.3484 -0.2444
   65SAPC  C217 5343   7.345   1.394   8.014  0.3119 -0.0330 -0.0550
   65SAPC  H17R 5344   7.382   1.450   7.925 -2.1539  2.2154  0.2571
   65SAPC  H17S 5345   7.425   1.319   8.033  1.5372  0.9270 -1.2873
   65SAPC  C218 5346   7.326   1.495   8.126  0.1244  0.5080 -0.6121
   65SAPC  H18R 5347   7.270   1.455   8.214  0.5928  1.4745  0.1415
   65SAPC  H18S 5348   7.260   1.577   8.090  0.8724  1.0142 -0.8305
   65SAPC  C219 5349   7.456   1.554   8.176  0.0426  0.1251  0.0638
   65SAPC  H19R 5350   7.502   1.607   8.090 -1.8773  0.9127 -0.5003
   65SAPC  H19S 5351   7.521   1.466   8.198  0.6110  0.0356 -1.8945
   65SAPC  C220 5352   7.436   1.645   8.295  0.0388  0.1298  0.1576
   65SAPC  H20R 5353   7.366   1.728   8.271  2.6228  2.0476 -1.0095
   65SAPC  H20S 5354   7.521   1.689   8.351 -1.4273  2.3436  0.7185
   65SAPC  H20T 5355   7.371   1.600   8.372  0.9329  1.6715  1.8451
   65SAPC   C33 5356   7.150   1.688   6.867 -0.2482 -0.8953 -0.1020
   65SAPC   H3X 5357   7.062   1.756   6.859  0.2806 -0.2727 -0.7194
   65SAPC   H3Y 5358   7.220   1.729   6.792  0.7770 -2.6422 -0.1372
   65SAPC   C34 5359   7.232   1.671   6.999  0.0231  0.4232  0.0975
   65SAPC   H4X 5360   7.311   1.596   6.978  0.1015  0.9725 -1.6744
   65SAPC   H4Y 5361   7.163   1.622   7.071 -0.7836 -1.3015 -1.7879
   65SAPC   C35 5362   7.273   1.806   7.065 -0.1462  0.0161 -0.6639
   65SAPC   H5X 5363   7.186   1.862   7.106 -0.0696  1.2619 -2.1263
   65SAPC   H5Y 5364   7.327   1.873   6.994 -2.5051  1.6843 -0.9489
   65SAPC   C36 5365   7.363   1.797   7.189 -0.4776 -0.7128  0.3809
   65SAPC   H6X 5366   7.412   1.896   7.203  0.0219 -0.9388  0.2146
   65SAPC   H6Y 5367   7.438   1.718   7.171 -0.4627 -0.7093  0.4277
   65SAPC   C37 5368   7.277   1.766   7.314 -0.3049 -0.0369 -0.0372
   65SAPC   H7X 5369   7.348   1.729   7.392 -2.7478  0.5873  2.5374
   65SAPC   H7Y 5370   7.210   1.681   7.290  0.3309 -0.4297 -0.4422
   65SAPC   C38 5371   7.207   1.887   7.378  0.2887  1.0866 -0.1021
   65SAPC   H8X 5372   7.128   1.844   7.443  1.1655 -2.5585 -1.3623
   65SAPC   H8Y 5373   7.161   1.950   7.298  1.5756 -0.1127 -1.8352
   65SAPC   C39 5374   7.289   1.977   7.471  0.1629  0.5873  0.4434
   65SAPC   H9X 5375   7.349   2.040   7.402  0.2721 -1.8686 -1.8062
   65SAPC   H9Y 5376   7.352   1.906   7.529 -1.1224 -1.5885 -0.7520
   65SAPC  C310 5377   7.203   2.061   7.560 -0.1453 -0.7151  0.4355
   65SAPC  H10X 5378   7.139   2.008   7.634 -0.5240 -0.6765  0.1387
   65SAPC  H10Y 5379   7.139   2.109   7.483 -2.3158 -1.8167  1.4977
   65SAPC  C311 5380   7.288   2.148   7.646 -0.0259 -0.3006 -0.4160
   65SAPC  H11X 5381   7.347   2.214   7.579  0.6853 -0.0493  0.4432
   65SAPC  H11Y 5382   7.363   2.091   7.705 -0.1532 -0.0011  0.0381
   65SAPC  C312 5383   7.210   2.238   7.742 -0.3236  0.1102  0.0125
   65SAPC  H12X 5384   7.142   2.192   7.817 -1.0144  2.3214  0.7754
   65SAPC  H12Y 5385   7.149   2.315   7.690 -0.0807 -0.8138 -1.6639
   65SAPC  C313 5386   7.324   2.317   7.817  1.0592  0.6215  0.0827
   65SAPC  H13X 5387   7.360   2.402   7.756  1.9602 -0.7229 -1.3096
   65SAPC  H13Y 5388   7.405   2.247   7.846  0.3260 -0.5699 -0.6498
   65SAPC  C314 5389   7.273   2.387   7.939  0.4684  0.2181 -0.2105
   65SAPC  H14X 5390   7.247   2.309   8.014  3.9973 -1.2242 -0.3841
   65SAPC  H14Y 5391   7.177   2.441   7.928 -0.3410 -0.4036  3.3128
   65SAPC  C315 5392   7.372   2.487   7.992 -0.4569 -0.1637 -0.1912
   65SAPC  H15X 5393   7.384   2.575   7.925 -1.6364  0.3586  0.2659
   65SAPC  H15Y 5394   7.470   2.439   8.011  1.1054  3.1965  0.7681
   65SAPC  C316 5395   7.330   2.552   8.123  0.7497  0.1409  0.2331
   65SAPC  H16X 5396   7.318   2.476   8.203 -0.9177 -2.1427 -2.1368
   65SAPC  H16Y 5397   7.226   2.582   8.096  1.2958  0.7197 -1.2965
   65SAPC  C317 5398   7.429   2.655   8.153  0.3053  0.5450  0.1493
   65SAPC  H17X 5399   7.439   2.729   8.070 -2.4277  2.2986  1.3106
   65SAPC  H17Y 5400   7.529   2.606   8.150  0.0725  0.0474  0.6011
   65SAPC  C318 5401   7.413   2.723   8.283  0.5775 -0.5933 -0.0019
   65SAPC  H18X 5402   7.330   2.796   8.269  1.5237  0.7134  1.1803
   65SAPC  H18Y 5403   7.503   2.780   8.314 -0.5284  0.9786  0.4058
   65SAPC  H18Z 5404   7.386   2.648   8.359 -2.8989 -0.1547 -0.7235
   66SAPC     N 5405   4.886   1.158   5.818  0.2877 -0.0468 -0.1686
   66SAPC   C12 5406   4.948   1.116   5.956 -0.2515 -0.2925 -0.4061
   66SAPC  H12A 5407   5.053   1.092   5.942 -0.7998 -1.7298 -2.3454
   66SAPC  H12B 5408   4.898   1.026   5.987 -2.3329  0.6392 -0.9679
   66SAPC   C13 5409   4.945   1.287   5.773  0.4020  0.0900 -0.3247
   66SAPC  H13A 5410   5.050   1.267   5.758  0.8377  0.4905  1.9694
   66SAPC  H13B 5411   4.898   1.325   5.683  1.0514  0.6001 -0.4497
   66SAPC  H13C 5412   4.942   1.366   5.847 -0.3809  0.6710 -0.9679
   66SAPC   C14 5413   4.934   1.052   5.717 -0.1287 -0.6249 -0.4378
   66SAPC  H14A 5414   5.042   1.055   5.716 -0.1637  2.0048 -2.5496
   66SAPC  H14B 5415   4.898   0.954   5.743  2.5920 -2.0382 -1.7873
   66SAPC  H14C 5416   4.903   1.078   5.617  4.2626 -2.1113 -2.3146
   66SAPC   C15 5417   4.736   1.164   5.844 -0.1118 -0.1097 -0.1460
   66SAPC  H15A 5418   4.684   1.069   5.840  1.8437 -1.2210 -0.1489
   66SAPC  H15B 5419   4.722   1.212   5.940 -1.6497 -0.5459 -0.1436
   66SAPC  H15C 5420   4.692   1.235   5.776  0.6436 -0.5303 -1.0801
   66SAPC   C11 5421   4.946   1.219   6.071  0.8009 -0.1188  0.7632
   66SAPC  H11A 5422   5.016   1.303   6.051  0.2455  0.4529  1.1701
   66SAPC  H11B 5423   4.971   1.163   6.163 -1.9536 -0.0734  1.5967
   66SAPC     P 5424   4.785   1.427   6.087 -0.2762  0.1975  0.0318
   66SAPC   O13 5425   4.909   1.498   6.049 -0.0507  0.3558 -0.2132
   66SAPC   O14 5426   4.662   1.442   6.006  0.5817  0.0573  0.1954
   66SAPC   O12 5427   4.816   1.277   6.081 -0.4581  0.3879 -0.2112
   66SAPC   O11 5428   4.750   1.453   6.236 -0.2387 -0.0184  0.3884
   66SAPC    C1 5429   4.639   1.393   6.299  0.4631  0.1427 -0.2014
   66SAPC    HA 5430   4.557   1.466   6.316 -1.1497 -1.7998  0.5306
   66SAPC    HB 5431   4.592   1.314   6.238 -2.4206  1.5737  0.1044
   66SAPC    C2 5432   4.677   1.335   6.440  0.0951  0.7273  0.5056
   66SAPC    HS 5433   4.586   1.277   6.467  0.9165 -1.0176 -0.3887
   66SAPC   O21 5434   4.714   1.436   6.531  0.5715  0.0371  0.3677
   66SAPC   C21 5435   4.649   1.436   6.647  1.0237 -0.0339  0.3997
   66SAPC   O22 5436   4.589   1.337   6.683 -0.2090  0.7770 -0.2682
   66SAPC   C22 5437   4.680   1.569   6.726 -0.1615 -0.5587  0.0169
   66SAPC   H2R 5438   4.783   1.552   6.766 -0.3987 -0.5764  0.6316
   66SAPC   H2S 5439   4.674   1.655   6.656  3.0279 -0.9691 -0.8397
   66SAPC    C3 5440   4.802   1.240   6.434  0.5811  0.5093  0.1531
   66SAPC    HX 5441   4.893   1.289   6.394  0.4588  1.8860  1.5332
   66SAPC    HY 5442   4.782   1.159   6.361 -0.6355  1.3505 -0.4758
   66SAPC   O31 5443   4.849   1.199   6.563 -0.8857 -0.1351 -0.0814
   66SAPC   C31 5444   4.799   1.090   6.617  0.2060  0.1157  0.1558
   66SAPC   O32 5445   4.733   1.010   6.549 -0.5013  0.5238  0.2616
   66SAPC   C32 5446   4.858   1.076   6.755 -0.0210 -0.2263 -0.1579
   66SAPC   H2X 5447   4.814   1.155   6.820 -2.5801 -3.2119  1.8944
   66SAPC   H2Y 5448   4.967   1.092   6.742  0.6304 -2.2746  2.3157
   66SAPC   C23 5449   4.592   1.584   6.854  0.6087  0.7028  0.2772
   66SAPC   H3R 5450   4.617   1.507   6.930  0.6832  0.2456 -0.2038
   66SAPC   H3S 5451   4.484   1.577   6.832  0.9933 -1.5144 -1.0700
   66SAPC   C24 5452   4.627   1.715   6.936  0.2971 -0.8601 -0.3099
   66SAPC   H4R 5453   4.552   1.742   7.014  2.4216  2.6753  0.6428
   66SAPC   H4S 5454   4.612   1.804   6.870  1.3967  0.2360  0.8836
   66SAPC   C25 5455   4.765   1.704   7.002  0.8634 -0.5539 -0.1447
   66SAPC   H5R 5456   4.846   1.690   6.929  1.3019  2.2402 -0.2418
   66SAPC   C26 5457   4.798   1.701   7.130 -0.3124  0.3883 -0.6956
   66SAPC   H6R 5458   4.907   1.705   7.147 -0.6781 -0.2956  2.0086
   66SAPC   C27 5459   4.704   1.709   7.251 -0.4170 -0.4193  0.2610
   66SAPC   H7R 5460   4.745   1.649   7.335  0.2580 -1.6797 -0.9506
   66SAPC   H7S 5461   4.605   1.664   7.226  0.3275  0.2147 -4.2980
   66SAPC   C28 5462   4.684   1.854   7.291  0.5585 -0.2652 -0.2486
   66SAPC   H8R 5463   4.645   1.916   7.209  0.9758  2.9440  1.9045
   66SAPC   C29 5464   4.717   1.915   7.405 -0.3255  0.6355  0.3890
   66SAPC   H9R 5465   4.685   2.020   7.411 -0.3767  0.5818  1.1819
   66SAPC  C210 5466   4.782   1.840   7.521  0.2312 -0.4763 -0.2305
   66SAPC  H10R 5467   4.719   1.754   7.551  1.3761 -0.3832  2.5882
   66SAPC  H10S 5468   4.775   1.904   7.612 -1.9853 -1.0364  0.0339
   66SAPC  C211 5469   4.924   1.793   7.491 -0.6501  0.2599  0.0141
   66SAPC  H11R 5470   4.924   1.732   7.399 -0.4101 -2.2908  1.6518
   66SAPC  C212 5471   5.039   1.804   7.562  0.0076  0.3387 -0.0462
   66SAPC  H12R 5472   5.131   1.756   7.526 -0.7242 -0.1050 -1.3787
   66SAPC  C213 5473   5.056   1.874   7.697  0.1888  0.0689 -0.0615
   66SAPC  H13R 5474   4.967   1.940   7.705 -1.0045 -1.4954 -0.1551
   66SAPC  H13S 5475   5.143   1.943   7.690 -0.9705  1.4509 -1.0152
   66SAPC  C214 5476   5.074   1.780   7.815 -0.0437  0.4956  0.9783
   66SAPC  H14R 5477   5.152   1.705   7.800  0.4758  0.9434  1.4253
   66SAPC  C215 5478   5.006   1.789   7.935 -0.6491  0.2877  0.1436
   66SAPC  H15R 5479   5.026   1.720   8.019  0.5917  2.5036  1.7226
   66SAPC  C216 5480   4.902   1.890   7.975 -0.3050  0.4840 -0.3374
   66SAPC  H16R 5481   4.836   1.922   7.891  1.4226  0.1653 -1.8333
   66SAPC  H16S 5482   4.951   1.979   8.020 -0.3385  0.2131  0.2379
   66SAPC  C217 5483   4.804   1.831   8.075  0.3156  0.3631 -0.4082
   66SAPC  H17R 5484   4.755   1.749   8.020 -3.8665  1.2286  1.8001
   66SAPC  H17S 5485   4.730   1.912   8.097 -0.6301 -0.5570 -0.1651
   66SAPC  C218 5486   4.860   1.780   8.200 -0.7234  0.0325 -0.4886
   66SAPC  H18R 5487   4.944   1.843   8.236 -0.9828  1.8401 -2.9063
   66SAPC  H18S 5488   4.894   1.675   8.188 -0.8249 -0.2750  1.6565
   66SAPC  C219 5489   4.753   1.772   8.315 -1.7950  0.1635 -0.1195
   66SAPC  H19R 5490   4.728   1.878   8.336 -2.2847  0.1622 -0.6682
   66SAPC  H19S 5491   4.796   1.746   8.414 -1.2808  0.5909 -0.2309
   66SAPC  C220 5492   4.628   1.692   8.289  0.1203 -0.4888  0.2324
   66SAPC  H20R 5493   4.648   1.591   8.249 -1.4167 -1.2527  1.3126
   66SAPC  H20S 5494   4.562   1.748   8.220  0.9427  0.8731  0.5348
   66SAPC  H20T 5495   4.573   1.679   8.385  1.0795  0.3367  0.9041
   66SAPC   C33 5496   4.845   0.939   6.820 -0.0162 -0.1894 -0.0382
   66SAPC   H3X 5497   4.903   0.865   6.762 -0.7110  0.2815 -1.3439
   66SAPC   H3Y 5498   4.740   0.906   6.834 -0.0047  0.0324  0.6140
   66SAPC   C34 5499   4.903   0.942   6.962  0.6826 -0.4301  0.8570
   66SAPC   H4X 5500   4.845   1.015   7.021  0.5478  0.7493 -0.6834
   66SAPC   H4Y 5501   5.011   0.965   6.974  0.5089  1.5902 -1.1820
   66SAPC   C35 5502   4.884   0.810   7.049  0.0524  0.7245  0.0294
   66SAPC   H5X 5503   4.941   0.729   6.999  0.7806  0.5695  1.0897
   66SAPC   H5Y 5504   4.777   0.781   7.053  0.0705  0.7422  0.5905
   66SAPC   C36 5505   4.952   0.814   7.191  0.7742 -0.2837  0.0012
   66SAPC   H6X 5506   4.915   0.903   7.246 -0.3334 -1.1946  0.7538
   66SAPC   H6Y 5507   5.063   0.814   7.180  0.5890 -1.1590 -2.0074
   66SAPC   C37 5508   4.926   0.689   7.277  0.1263  0.2188 -0.0426
   66SAPC   H7X 5509   4.961   0.603   7.217  0.4152  0.1572  0.2069
   66SAPC   H7Y 5510   4.817   0.689   7.295  0.3852  0.3127  1.6043
   66SAPC   C38 5511   5.002   0.694   7.415 -0.0821  0.5830 -0.3072
   66SAPC   H8X 5512   4.950   0.775   7.470  0.7241  0.8846  0.0220
   66SAPC   H8Y 5513   5.103   0.733   7.388 -0.1234  1.1008  0.2839
   66SAPC   C39 5514   4.989   0.564   7.489 -0.4183 -0.0730  0.0187
   66SAPC   H9X 5515   5.059   0.493   7.440  0.7488  2.3269 -1.9350
   66SAPC   H9Y 5516   4.887   0.526   7.471 -1.4352  2.2851  0.6396
   66SAPC  C310 5517   5.013   0.576   7.637 -0.1341  0.1847 -0.4083
   66SAPC  H10X 5518   5.100   0.642   7.661 -1.6191  1.4694  1.6177
   66SAPC  H10Y 5519   5.040   0.477   7.681  0.5161  1.2703  1.7224
   66SAPC  C311 5520   4.898   0.614   7.719 -0.1291 -0.4565 -0.6925
   66SAPC  H11X 5521   4.808   0.559   7.684 -0.0765 -0.2242 -1.1944
   66SAPC  H11Y 5522   4.873   0.721   7.701 -0.1143 -0.1008  1.3217
   66SAPC  C312 5523   4.927   0.584   7.863 -0.3123  0.4259  0.1493
   66SAPC  H12X 5524   4.863   0.648   7.928 -1.5982 -0.5091 -0.1634
   66SAPC  H12Y 5525   5.029   0.614   7.894 -0.5332  3.0159 -1.5092
   66SAPC  C313 5526   4.899   0.437   7.915  0.3151  0.1224  0.3468
   66SAPC  H13X 5527   4.962   0.372   7.851 -2.2674 -0.3337 -1.8417
   66SAPC  H13Y 5528   4.794   0.409   7.893 -0.4484  1.6445  1.9483
   66SAPC  C314 5529   4.940   0.394   8.053  0.8377  0.1211  0.0141
   66SAPC  H14X 5530   4.924   0.472   8.130  1.0817 -2.5930  2.9596
   66SAPC  H14Y 5531   5.051   0.392   8.052  0.9241 -5.8570 -0.6578
   66SAPC  C315 5532   4.869   0.261   8.106  0.4962  0.1144  0.3920
   66SAPC  H15X 5533   4.870   0.177   8.033  1.4015 -0.1100  0.6516
   66SAPC  H15Y 5534   4.761   0.283   8.118  0.0584 -2.1192  0.7881
   66SAPC  C316 5535   4.929   0.211   8.242 -0.0397  0.3996  0.0430
   66SAPC  H16X 5536   5.037   0.184   8.237 -0.0604  0.2791  0.2376
   66SAPC  H16Y 5537   4.875   0.122   8.282 -3.1295  1.4321 -1.7069
   66SAPC  C317 5538   4.914   0.314   8.354 -0.3433  0.0251  0.0244
   66SAPC  H17X 5539   4.997   0.388   8.346  1.7380 -2.2788 -0.4088
   66SAPC  H17Y 5540   4.934   0.271   8.454  0.6553 -0.0783 -0.2104
   66SAPC  C318 5541   4.774   0.372   8.374  0.4554 -0.3819  0.6647
   66SAPC  H18X 5542   4.766   0.423   8.472 -0.1637  1.3911 -0.2866
   66SAPC  H18Y 5543   4.705   0.286   8.382  0.4319 -0.5009 -0.6583
   66SAPC  H18Z 5544   4.741   0.439   8.292 -1.5167 -2.2500 -0.1235
   67SAPC     N 5545   6.498   3.141   6.157 -0.3463 -0.9617 -0.1054
   67SAPC   C12 5546   6.654   3.146   6.134 -0.1259  0.2033  0.1100
   67SAPC  H12A 5547   6.672   3.158   6.029  0.0065 -2.9504 -0.2762
   67SAPC  H12B 5548   6.691   3.046   6.147 -1.7429 -0.4616 -0.3116
   67SAPC   C13 5549   6.438   3.044   6.060  0.5574  0.1229  0.6438
   67SAPC  H13A 5550   6.487   2.949   6.051 -3.5591 -2.1113  0.2228
   67SAPC  H13B 5551   6.336   3.030   6.094 -0.1068 -0.4799 -1.4909
   67SAPC  H13C 5552   6.427   3.080   5.959 -0.9963  0.2968  0.8571
   67SAPC   C14 5553   6.467   3.105   6.295  0.2370  0.5826  0.1932
   67SAPC  H14A 5554   6.489   3.184   6.365 -2.3235  2.4119 -0.9629
   67SAPC  H14B 5555   6.360   3.093   6.307 -0.0070  2.2785 -0.1633
   67SAPC  H14C 5556   6.512   3.010   6.318 -0.3969  0.0195 -0.8412
   67SAPC   C15 5557   6.446   3.278   6.124 -0.1351 -0.9006  0.0462
   67SAPC  H15A 5558   6.477   3.352   6.196  2.5937 -0.1305 -1.8477
   67SAPC  H15B 5559   6.465   3.299   6.020 -0.6033  1.4342  0.3925
   67SAPC  H15C 5560   6.339   3.266   6.130  0.0451 -2.2001  0.8166
   67SAPC   C11 5561   6.735   3.247   6.212 -0.0858 -0.2618 -0.0091
   67SAPC  H11A 5562   6.682   3.343   6.194  0.3017 -0.0928 -0.2318
   67SAPC  H11B 5563   6.835   3.264   6.167 -0.5566  2.7110 -0.0544
   67SAPC     P 5564   6.833   3.108   6.409  0.0361  0.4157 -0.4646
   67SAPC   O13 5565   6.922   3.069   6.297  0.4184 -0.5967  0.0256
   67SAPC   O14 5566   6.898   3.174   6.525  0.2104  0.3432 -0.2825
   67SAPC   O12 5567   6.728   3.222   6.351  0.0624  0.6633 -0.1577
   67SAPC   O11 5568   6.742   2.983   6.447  0.3596 -0.3110  0.0924
   67SAPC    C1 5569   6.655   2.989   6.562  0.2010 -0.6971 -1.0237
   67SAPC    HA 5570   6.610   3.089   6.581  2.5058  0.0505  0.8578
   67SAPC    HB 5571   6.573   2.919   6.537  0.9345 -2.5086  1.3780
   67SAPC    C2 5572   6.722   2.914   6.684  0.6210 -0.1619  0.8265
   67SAPC    HS 5573   6.648   2.881   6.760  0.5074  0.6221  1.0514
   67SAPC   O21 5574   6.823   2.999   6.743  0.5263 -0.1524  0.2577
   67SAPC   C21 5575   6.781   3.083   6.840  0.4997  0.1085 -0.5888
   67SAPC   O22 5576   6.668   3.092   6.880 -0.3378  0.0113  0.5303
   67SAPC   C22 5577   6.900   3.153   6.903 -0.0940 -0.1817  0.6385
   67SAPC   H2R 5578   6.984   3.155   6.831 -0.6501 -1.1478 -0.0463
   67SAPC   H2S 5579   6.858   3.254   6.925 -1.8065 -0.6969 -0.1289
   67SAPC    C3 5580   6.778   2.780   6.628 -0.2272 -0.8785  0.4542
   67SAPC    HX 5581   6.861   2.800   6.557 -1.5518 -0.1651 -0.9206
   67SAPC    HY 5582   6.694   2.725   6.579 -1.6370 -0.9299  2.8156
   67SAPC   O31 5583   6.813   2.688   6.733  0.0070  0.1526 -0.6928
   67SAPC   C31 5584   6.940   2.676   6.766  0.5261  0.2712  0.5232
   67SAPC   O32 5585   7.032   2.724   6.705  0.6131  0.1753 -0.0345
   67SAPC   C32 5586   6.954   2.597   6.899 -0.2609  0.5593 -0.3419
   67SAPC   H2X 5587   7.053   2.548   6.889  0.3672  1.3452  1.6023
   67SAPC   H2Y 5588   6.868   2.528   6.887  0.2496  0.3416 -2.9923
   67SAPC   C23 5589   6.937   3.083   7.026 -0.0725  0.8091  0.4070
   67SAPC   H3R 5590   6.954   2.979   6.991 -2.0307  0.9842 -1.2190
   67SAPC   H3S 5591   6.846   3.085   7.089 -1.1224 -1.0058 -0.9744
   67SAPC   C24 5592   7.052   3.150   7.098 -0.3716 -0.0956 -0.2675
   67SAPC   H4R 5593   7.013   3.251   7.122 -1.1799 -0.5107  0.2084
   67SAPC   H4S 5594   7.135   3.146   7.025 -0.7161 -2.7786 -0.5513
   67SAPC   C25 5595   7.105   3.069   7.218  0.0349 -0.2270  0.0723
   67SAPC   H5R 5596   7.137   2.972   7.176  0.6833 -1.2005  2.6586
   67SAPC   C26 5597   7.111   3.101   7.350  0.2393  0.2283  0.4852
   67SAPC   H6R 5598   7.170   3.039   7.419  1.0895  1.5617  0.9862
   67SAPC   C27 5599   7.068   3.234   7.413 -0.4707 -0.2825  0.3346
   67SAPC   H7R 5600   7.004   3.291   7.342  0.3891  2.7068  1.8381
   67SAPC   H7S 5601   7.159   3.295   7.431 -0.0008  0.1874 -3.2941
   67SAPC   C28 5602   6.994   3.203   7.547 -0.1124 -0.4805 -0.3958
   67SAPC   H8R 5603   6.927   3.116   7.546 -1.6837  0.7245 -2.4130
   67SAPC   C29 5604   7.019   3.261   7.665  0.2026  0.0603  0.3428
   67SAPC   H9R 5605   6.975   3.220   7.757 -1.1986  2.4863  0.7990
   67SAPC  C210 5606   7.114   3.378   7.688  0.8811  0.5530  0.0652
   67SAPC  H10R 5607   7.134   3.452   7.607  1.0950  0.1242 -0.2758
   67SAPC  H10S 5608   7.214   3.346   7.725  0.0362  1.6583  3.4854
   67SAPC  C211 5609   7.045   3.461   7.796 -0.5627  0.1143  0.5404
   67SAPC  H11R 5610   6.940   3.488   7.775 -0.4792 -0.6548 -0.9333
   67SAPC  C212 5611   7.102   3.507   7.907  0.3595 -0.1493 -0.3065
   67SAPC  H12R 5612   7.033   3.553   7.980  0.2062  0.0887 -0.6001
   67SAPC  C213 5613   7.236   3.491   7.968 -0.1097 -0.2425  0.2060
   67SAPC  H13R 5614   7.272   3.583   8.020  1.5485 -0.4470 -0.5311
   67SAPC  H13S 5615   7.299   3.502   7.877  0.1713  2.8247  0.7268
   67SAPC  C214 5616   7.268   3.365   8.028  1.1203  0.7192  0.1337
   67SAPC  H14R 5617   7.202   3.288   7.984  1.8498  1.6220 -2.6667
   67SAPC  C215 5618   7.368   3.327   8.100  0.0904 -0.9125 -0.3631
   67SAPC  H15R 5619   7.375   3.221   8.127 -2.1062 -0.3750  2.6203
   67SAPC  C216 5620   7.483   3.419   8.148  1.1779  0.1489  0.1285
   67SAPC  H16R 5621   7.488   3.430   8.258 -1.6511  0.6531  0.2307
   67SAPC  H16S 5622   7.458   3.521   8.114 -1.3168 -1.2014 -2.3378
   67SAPC  C217 5623   7.618   3.406   8.091  0.2873 -0.1324  0.1415
   67SAPC  H17R 5624   7.673   3.490   8.138 -0.6360  0.5754 -0.0568
   67SAPC  H17S 5625   7.618   3.424   7.982  0.7882  1.0619  0.3262
   67SAPC  C218 5626   7.683   3.267   8.127  0.3321 -0.3743  0.3676
   67SAPC  H18R 5627   7.623   3.189   8.076 -2.7899 -0.1420  3.4547
   67SAPC  H18S 5628   7.679   3.270   8.238 -0.0941  0.3815  0.3338
   67SAPC  C219 5629   7.831   3.263   8.095 -0.1968 -0.0287  0.3119
   67SAPC  H19R 5630   7.877   3.358   8.132 -1.1323 -0.2947  2.2354
   67SAPC  H19S 5631   7.846   3.257   7.985  0.4002  1.7169  0.2795
   67SAPC  C220 5632   7.898   3.141   8.165 -0.1011  0.2437 -0.2260
   67SAPC  H20R 5633   7.840   3.047   8.153 -0.3020  0.1255  1.5456
   67SAPC  H20S 5634   7.899   3.151   8.276 -0.4991  1.1019 -0.2936
   67SAPC  H20T 5635   8.002   3.126   8.129  0.0004 -0.6244  0.4238
   67SAPC   C33 5636   6.944   2.688   7.020  0.0003 -0.1996  0.2676
   67SAPC   H3X 5637   7.013   2.775   7.015  1.1443 -1.1163 -0.0967
   67SAPC   H3Y 5638   6.970   2.635   7.114 -0.4773  1.9048  1.6280
   67SAPC   C34 5639   6.809   2.748   7.063  0.1649 -0.5762 -0.4739
   67SAPC   H4X 5640   6.720   2.681   7.056 -0.8467  0.7424 -0.4360
   67SAPC   H4Y 5641   6.778   2.827   6.990 -0.4734 -0.2805  0.1132
   67SAPC   C35 5642   6.825   2.806   7.202 -0.1866 -0.5351  0.2783
   67SAPC   H5X 5643   6.896   2.890   7.188 -1.0429  0.1513  0.0339
   67SAPC   H5Y 5644   6.874   2.731   7.269  1.9101  1.0022  0.4947
   67SAPC   C36 5645   6.697   2.861   7.253  0.5570  0.2729  0.5494
   67SAPC   H6X 5646   6.622   2.780   7.269  2.1269 -1.2435  0.4437
   67SAPC   H6Y 5647   6.656   2.924   7.171 -0.5040  1.0192  1.6485
   67SAPC   C37 5648   6.705   2.947   7.382  0.0343  0.9205 -0.2042
   67SAPC   H7X 5649   6.598   2.962   7.405 -0.4336 -2.1316 -0.2398
   67SAPC   H7Y 5650   6.762   3.037   7.350  0.8500  0.4036 -0.2286
   67SAPC   C38 5651   6.748   2.869   7.507 -0.1997 -0.2569 -0.1551
   67SAPC   H8X 5652   6.735   2.926   7.602 -0.1110 -1.1092  0.3709
   67SAPC   H8Y 5653   6.857   2.852   7.498 -0.0847  0.5784 -0.4131
   67SAPC   C39 5654   6.680   2.734   7.527 -0.3277  0.5150  0.4835
   67SAPC   H9X 5655   6.692   2.670   7.437 -0.2258  0.7145  0.3535
   67SAPC   H9Y 5656   6.570   2.747   7.535 -0.3950 -1.0764  2.6520
   67SAPC  C310 5657   6.738   2.635   7.639  0.1145 -0.7483 -0.7530
   67SAPC  H10X 5658   6.841   2.616   7.601  0.6410 -0.0142  0.2683
   67SAPC  H10Y 5659   6.671   2.548   7.657 -0.8055  0.2389  0.7688
   67SAPC  C311 5660   6.756   2.705   7.778 -0.1123  1.0685 -0.1277
   67SAPC  H11X 5661   6.655   2.706   7.824 -0.1143 -0.5106 -0.0642
   67SAPC  H11Y 5662   6.796   2.808   7.787  0.1776  0.8550  1.0762
   67SAPC  C312 5663   6.827   2.609   7.876 -0.2041 -0.5277  0.4343
   67SAPC  H12X 5664   6.926   2.574   7.839  0.0727 -0.0048  0.6622
   67SAPC  H12Y 5665   6.761   2.527   7.910  2.5066 -3.4452 -1.1133
   67SAPC  C313 5666   6.867   2.695   8.012  0.2721  0.5153  1.0281
   67SAPC  H13X 5667   6.910   2.792   7.981  0.3743  0.5590  1.3026
   67SAPC  H13Y 5668   6.951   2.650   8.069  0.5540  0.0212  0.2307
   67SAPC  C314 5669   6.751   2.712   8.116 -0.0553  0.3617  0.8645
   67SAPC  H14X 5670   6.706   2.612   8.136 -0.4650  1.0096  3.4436
   67SAPC  H14Y 5671   6.668   2.761   8.062  0.1267  0.7901  0.9736
   67SAPC  C315 5672   6.787   2.786   8.240 -0.8033 -0.5594  0.4531
   67SAPC  H15X 5673   6.831   2.886   8.219 -0.0042 -1.2519 -1.2948
   67SAPC  H15Y 5674   6.855   2.719   8.297 -2.2544 -1.9060  0.6488
   67SAPC  C316 5675   6.667   2.824   8.325 -0.3261  0.2594  0.5958
   67SAPC  H16X 5676   6.611   2.742   8.374  0.8640 -0.9885 -0.0855
   67SAPC  H16Y 5677   6.590   2.886   8.274 -3.2493 -1.6081  2.5940
   67SAPC  C317 5678   6.702   2.896   8.459 -0.2130  0.1786  0.5048
   67SAPC  H17X 5679   6.761   2.986   8.431  0.0016 -0.2814 -0.5562
   67SAPC  H17Y 5680   6.765   2.828   8.520 -1.0840 -0.8050  0.3361
   67SAPC  C318 5681   6.582   2.930   8.552 -0.8221  0.9852 -0.1344
   67SAPC  H18X 5682   6.615   2.972   8.649 -0.0689 -3.0516  1.4411
   67SAPC  H18Y 5683   6.521   2.838   8.566  2.7898 -1.7512 -1.3669
   67SAPC  H18Z 5684   6.525   3.016   8.511  0.5739  0.6511 -2.9194
   68SAPC     N 5685   4.958   1.936   6.130 -0.4693  0.1075  0.2093
   68SAPC   C12 5686   4.904   2.070   6.069  0.8797  0.2963 -0.5635
   68SAPC  H12A 5687   4.839   2.125   6.135  0.2158 -0.3521 -0.6642
   68SAPC  H12B 5688   4.830   2.047   5.993 -0.3137  2.2799 -0.0347
   68SAPC   C13 5689   4.838   1.865   6.173 -0.6867  0.1989  0.7343
   68SAPC  H13A 5690   4.766   1.859   6.093 -0.8310  2.5454  0.6576
   68SAPC  H13B 5691   4.871   1.766   6.203  3.1899  1.3535  0.5505
   68SAPC  H13C 5692   4.786   1.913   6.254 -0.7879 -0.3752  1.0137
   68SAPC   C14 5693   5.023   1.854   6.024  0.3894 -0.2011 -0.4870
   68SAPC  H14A 5694   4.964   1.822   5.940 -0.1213 -1.2823  0.2647
   68SAPC  H14B 5695   5.105   1.917   5.994 -0.7097  0.5172 -2.0429
   68SAPC  H14C 5696   5.063   1.762   6.065 -0.7148  0.0569  1.2013
   68SAPC   C15 5697   5.051   1.959   6.246 -0.2630 -0.3628 -0.9754
   68SAPC  H15A 5698   5.143   2.011   6.225 -0.1620  0.7952  1.9990
   68SAPC  H15B 5699   4.990   2.012   6.318  1.5511  0.8881 -0.3281
   68SAPC  H15C 5700   5.084   1.865   6.286  0.7930  1.1186  1.8572
   68SAPC   C11 5701   5.017   2.157   6.018 -0.3634  0.5986  0.0394
   68SAPC  H11A 5702   4.983   2.221   5.933  0.0231  1.0653  0.2328
   68SAPC  H11B 5703   5.085   2.093   5.957 -0.0821  0.1368  0.8435
   68SAPC     P 5704   4.993   2.342   6.213 -0.0675  0.3517 -0.1941
   68SAPC   O13 5705   5.026   2.479   6.168 -0.2907 -0.5184 -0.5214
   68SAPC   O14 5706   4.852   2.307   6.228  0.0859 -0.2289 -0.0386
   68SAPC   O12 5707   5.076   2.233   6.128 -0.4393  0.8339 -0.5878
   68SAPC   O11 5708   5.049   2.329   6.357  0.5142  0.1857 -0.1439
   68SAPC    C1 5709   5.184   2.300   6.391  0.4145  0.2905 -0.3345
   68SAPC    HA 5710   5.209   2.194   6.372 -0.8875 -0.0297 -0.2368
   68SAPC    HB 5711   5.247   2.364   6.325 -0.4557  2.4411  0.8764
   68SAPC    C2 5712   5.220   2.325   6.541  0.1113  0.4906 -0.3822
   68SAPC    HS 5713   5.326   2.292   6.550  0.2383  1.1347  0.5268
   68SAPC   O21 5714   5.139   2.247   6.631 -0.1886 -0.6122  0.4574
   68SAPC   C21 5715   5.156   2.113   6.633 -0.3457  0.6083 -0.6856
   68SAPC   O22 5716   5.250   2.054   6.575  0.1067  0.0148  0.2027
   68SAPC   C22 5717   5.053   2.049   6.720  0.4541  0.2913  0.0294
   68SAPC   H2R 5718   4.965   2.116   6.728  0.7459  0.5917  0.6998
   68SAPC   H2S 5719   5.025   1.965   6.652  2.7933  0.3079 -1.0011
   68SAPC    C3 5720   5.211   2.478   6.589 -0.3049  0.7449  0.5417
   68SAPC    HX 5721   5.110   2.522   6.580 -1.3494 -1.0225  2.8652
   68SAPC    HY 5722   5.257   2.541   6.510 -1.8580  0.8483 -0.2876
   68SAPC   O31 5723   5.268   2.487   6.723  0.2500  0.6132  0.1679
   68SAPC   C31 5724   5.171   2.493   6.821 -0.3906  0.2262  0.4703
   68SAPC   O32 5725   5.052   2.497   6.805 -0.3541 -0.0589  0.3287
   68SAPC   C32 5726   5.245   2.498   6.956  0.6721 -0.4863 -0.1886
   68SAPC   H2X 5727   5.343   2.548   6.940  0.5861 -0.4546 -0.6228
   68SAPC   H2Y 5728   5.243   2.391   6.988  0.5819 -0.1548  0.9245
   68SAPC   C23 5729   5.128   2.007   6.847  0.0208  0.1459  0.3449
   68SAPC   H3R 5730   5.189   2.087   6.893 -0.2097  1.6226 -1.8508
   68SAPC   H3S 5731   5.202   1.927   6.831 -1.0194 -0.2759 -2.6216
   68SAPC   C24 5732   5.021   1.949   6.946 -0.5571 -0.6526  0.1036
   68SAPC   H4R 5733   4.972   1.861   6.899 -0.6648 -0.2688 -0.5135
   68SAPC   H4S 5734   4.941   2.024   6.959 -2.1644 -2.5060  1.0398
   68SAPC   C25 5735   5.086   1.908   7.075  0.6845 -0.5665 -0.2998
   68SAPC   H5R 5736   5.104   1.800   7.073 -1.5809 -0.9624 -0.3615
   68SAPC   C26 5737   5.127   1.982   7.179 -0.1732 -0.0812 -0.5068
   68SAPC   H6R 5738   5.174   1.936   7.268  0.7799  0.8106 -0.5336
   68SAPC   C27 5739   5.123   2.136   7.187  0.5390  0.0409  0.6424
   68SAPC   H7R 5740   5.051   2.164   7.267  1.3624 -0.4634  1.5746
   68SAPC   H7S 5741   5.083   2.190   7.099 -1.1596 -1.9328  0.1662
   68SAPC   C28 5742   5.256   2.185   7.218  0.5483  0.2759  0.2096
   68SAPC   H8R 5743   5.332   2.178   7.139 -0.1315  2.1688 -0.6558
   68SAPC   C29 5744   5.300   2.197   7.347  0.2055 -0.1667 -0.4060
   68SAPC   H9R 5745   5.402   2.235   7.366  0.8568 -1.3190 -1.5458
   68SAPC  C210 5746   5.226   2.190   7.474  0.2347  0.3564 -1.1786
   68SAPC  H10R 5747   5.135   2.127   7.464  1.1713 -1.2882  0.3496
   68SAPC  H10S 5748   5.192   2.290   7.505  0.7575 -0.5139  2.3984
   68SAPC  C211 5749   5.309   2.136   7.589  0.0653 -0.0460 -0.4753
   68SAPC  H11R 5750   5.348   2.033   7.580  2.1205  0.6516  0.3348
   68SAPC  C212 5751   5.331   2.202   7.710  0.3909 -0.3567  0.3387
   68SAPC  H12R 5752   5.397   2.152   7.783  1.1177  0.0934 -0.0119
   68SAPC  C213 5753   5.295   2.348   7.744 -0.3811  0.2302 -0.1008
   68SAPC  H13R 5754   5.310   2.418   7.659  0.5218 -0.8773 -0.8598
   68SAPC  H13S 5755   5.381   2.375   7.808 -0.2844  2.7030 -1.2029
   68SAPC  C214 5756   5.161   2.365   7.806 -0.4303  0.2348 -0.4308
   68SAPC  H14R 5757   5.084   2.327   7.737 -1.7456  0.1876  1.0271
   68SAPC  C215 5758   5.122   2.411   7.930  0.0517  0.1792 -0.0874
   68SAPC  H15R 5759   5.015   2.415   7.952  0.3838 -0.4887  1.7423
   68SAPC  C216 5760   5.211   2.453   8.041 -0.1861 -0.1208  0.8853
   68SAPC  H16R 5761   5.305   2.497   7.999 -0.7937  2.1468  1.8437
   68SAPC  H16S 5762   5.228   2.362   8.102  1.1269  0.2164  1.0368
   68SAPC  C217 5763   5.155   2.565   8.133  0.1621  0.1962  0.3867
   68SAPC  H17R 5764   5.213   2.542   8.225  1.5758 -0.7067 -0.6951
   68SAPC  H17S 5765   5.046   2.560   8.149 -0.0224  3.2996  0.4856
   68SAPC  C218 5766   5.196   2.704   8.085  0.1641  0.0593  0.4712
   68SAPC  H18R 5767   5.145   2.719   7.988  1.1456  1.9309  0.2263
   68SAPC  H18S 5768   5.305   2.710   8.065 -0.0980  0.2236 -0.9010
   68SAPC  C219 5769   5.146   2.811   8.189  0.2415  0.5542  0.2410
   68SAPC  H19R 5770   5.173   2.783   8.294  1.3061 -2.2703 -0.7325
   68SAPC  H19S 5771   5.035   2.806   8.184  0.2236  1.5417 -0.4876
   68SAPC  C220 5772   5.188   2.954   8.157  0.2276 -0.3118 -0.1393
   68SAPC  H20R 5773   5.298   2.961   8.169  0.5674 -1.6523 -2.1859
   68SAPC  H20S 5774   5.142   3.034   8.219  0.8581  0.5530 -0.7680
   68SAPC  H20T 5775   5.165   2.968   8.049 -0.2542  0.8815  0.1095
   68SAPC   C33 5776   5.170   2.566   7.075 -0.1230 -0.2967  0.9235
   68SAPC   H3X 5777   5.077   2.514   7.105 -0.0187 -1.0020  0.0632
   68SAPC   H3Y 5778   5.143   2.671   7.052 -0.5768 -0.7146 -0.5538
   68SAPC   C34 5779   5.253   2.575   7.200  0.0694  0.6548  0.4552
   68SAPC   H4X 5780   5.337   2.646   7.184  1.3267 -0.4051  2.0850
   68SAPC   H4Y 5781   5.301   2.476   7.216 -0.4923 -0.0211 -1.8627
   68SAPC   C35 5782   5.186   2.635   7.326  0.2380  0.7774 -0.2438
   68SAPC   H5X 5783   5.099   2.575   7.359  0.8282 -0.6694 -1.2620
   68SAPC   H5Y 5784   5.139   2.730   7.292  0.8040  1.3057  0.4281
   68SAPC   C36 5785   5.288   2.660   7.437 -0.1925 -0.1169  0.0940
   68SAPC   H6X 5786   5.377   2.712   7.394  1.0606 -2.4986 -0.2761
   68SAPC   H6Y 5787   5.337   2.566   7.469 -1.0682 -0.9046 -0.8584
   68SAPC   C37 5788   5.229   2.745   7.548  0.2614 -0.4208 -0.2274
   68SAPC   H7X 5789   5.178   2.681   7.623  0.7465 -1.1773 -0.5379
   68SAPC   H7Y 5790   5.154   2.822   7.520 -1.2230 -1.8112 -0.1741
   68SAPC   C38 5791   5.333   2.810   7.634 -0.4364  0.4518  0.2336
   68SAPC   H8X 5792   5.384   2.879   7.564 -0.3055  0.0145 -0.1084
   68SAPC   H8Y 5793   5.405   2.730   7.663  0.0974  1.5277  1.9632
   68SAPC   C39 5794   5.266   2.878   7.752 -0.1322 -0.4701 -0.0459
   68SAPC   H9X 5795   5.228   2.805   7.826 -1.5798  1.0403  0.7362
   68SAPC   H9Y 5796   5.178   2.937   7.720  1.0568  0.1352 -2.3528
   68SAPC  C310 5797   5.351   2.991   7.819  0.0557 -0.1288 -0.7489
   68SAPC  H10X 5798   5.284   3.051   7.884  2.0741  0.1647  1.1057
   68SAPC  H10Y 5799   5.394   3.053   7.738 -1.9153 -1.9662 -3.2846
   68SAPC  C311 5800   5.472   2.936   7.898  0.1434 -0.0546 -0.4572
   68SAPC  H11X 5801   5.511   2.852   7.837  2.1041  0.4067  0.1578
   68SAPC  H11Y 5802   5.443   2.893   7.996  2.4880  1.9152  1.1324
   68SAPC  C312 5803   5.580   3.043   7.920  0.6125 -0.6345  0.2162
   68SAPC  H12X 5804   5.532   3.136   7.958  0.7941 -1.0457  1.4778
   68SAPC  H12Y 5805   5.615   3.063   7.817 -0.3310  0.4602  0.1018
   68SAPC  C313 5806   5.689   3.010   8.012 -0.2760  0.5052 -0.5589
   68SAPC  H13X 5807   5.725   2.905   8.001  0.3953  0.7490 -0.7222
   68SAPC  H13Y 5808   5.647   3.005   8.115 -0.3876 -0.0821 -0.6318
   68SAPC  C314 5809   5.813   3.107   7.994 -0.0231  0.2068 -0.1743
   68SAPC  H14X 5810   5.774   3.210   8.010 -2.7863 -0.4987 -2.1026
   68SAPC  H14Y 5811   5.853   3.094   7.891 -0.2368  1.6582 -0.4584
   68SAPC  C315 5812   5.918   3.082   8.099  0.1944  0.0323  0.7821
   68SAPC  H15X 5813   5.997   3.159   8.083  1.3551 -1.4488 -0.6615
   68SAPC  H15Y 5814   5.958   2.981   8.080  1.0099  0.4544  0.2324
   68SAPC  C316 5815   5.860   3.086   8.244 -0.2223 -0.2653  0.0030
   68SAPC  H16X 5816   5.942   3.074   8.318  0.3659  2.2346 -0.2228
   68SAPC  H16Y 5817   5.773   3.019   8.265 -0.6725  0.7793  1.6086
   68SAPC  C317 5818   5.799   3.221   8.272  0.1969  0.4500  0.7662
   68SAPC  H17X 5819   5.701   3.233   8.222 -1.0676  0.3811  3.1660
   68SAPC  H17Y 5820   5.872   3.293   8.228 -1.2711  0.4337 -1.7958
   68SAPC  C318 5821   5.791   3.267   8.420  0.7903 -0.3821  0.2132
   68SAPC  H18X 5822   5.706   3.207   8.460 -0.3906 -0.0359 -1.7130
   68SAPC  H18Y 5823   5.769   3.375   8.435 -1.9495 -0.7747 -0.7731
   68SAPC  H18Z 5824   5.884   3.240   8.475  0.2368 -0.5488  1.0802
   69SLPC     N 5825   2.116   1.260  11.132  0.4820  0.1259  0.5680
   69SLPC   C13 5826   2.124   1.158  11.247 -0.1790 -0.2454 -0.2742
   69SLPC  H13A 5827   2.221   1.142  11.291  0.1420 -1.1207 -1.2770
   69SLPC  H13B 5828   2.057   1.181  11.329 -1.3475 -1.3346 -0.9107
   69SLPC  H13C 5829   2.113   1.056  11.214 -0.2682 -0.6907  1.0927
   69SLPC   C14 5830   2.151   1.387  11.200  0.2836 -0.1874  0.0372
   69SLPC  H14A 5831   2.248   1.390  11.248  1.4816  0.7894 -2.3286
   69SLPC  H14B 5832   2.140   1.475  11.139  0.1652 -1.2796 -1.5447
   69SLPC  H14C 5833   2.084   1.397  11.284  1.2312 -1.1449  0.9313
   69SLPC   C15 5834   1.975   1.265  11.078 -0.2598 -0.5525 -0.5398
   69SLPC  H15A 5835   1.907   1.311  11.148  0.5278  0.1308 -0.2127
   69SLPC  H15B 5836   1.983   1.319  10.985  0.0612  0.5707  0.1270
   69SLPC  H15C 5837   1.943   1.162  11.070 -1.5385 -0.3729  1.7272
   69SLPC   C12 5838   2.214   1.229  11.021  0.4219 -0.3283 -0.2371
   69SLPC  H12A 5839   2.311   1.197  11.058 -0.1227 -3.4942 -1.3636
   69SLPC  H12B 5840   2.222   1.319  10.963 -2.5529  0.4235  0.4647
   69SLPC   C11 5841   2.176   1.123  10.922  0.8307  0.8856  0.2476
   69SLPC  H11A 5842   2.238   1.099  10.832 -0.1669  1.2174 -0.5424
   69SLPC  H11B 5843   2.075   1.143  10.880  0.5895  0.4241  0.5974
   69SLPC     P 5844   2.290   0.911  10.998  0.2996 -0.3404  0.0946
   69SLPC   O13 5845   2.402   1.007  10.987 -0.4623 -0.3136  0.1770
   69SLPC   O14 5846   2.280   0.832  11.124 -0.4118  0.2704  0.0503
   69SLPC   O12 5847   2.160   0.999  10.990  0.1588  0.1905  0.5264
   69SLPC   O11 5848   2.284   0.808  10.875 -0.1431 -0.2094 -0.4683
   69SLPC    C1 5849   2.193   0.822  10.770 -0.1227  0.1876  0.0326
   69SLPC    HA 5850   2.126   0.734  10.779  1.4378 -1.0881 -0.5643
   69SLPC    HB 5851   2.120   0.906  10.777  0.8847  1.2358 -1.5669
   69SLPC    C2 5852   2.260   0.807  10.628  0.4469 -0.0578 -0.3834
   69SLPC    HS 5853   2.314   0.710  10.636 -0.9988 -0.7428  1.4914
   69SLPC   O21 5854   2.350   0.919  10.611  0.0313  0.5083 -0.0241
   69SLPC   C21 5855   2.449   0.892  10.529  0.0036 -0.2642 -0.0071
   69SLPC   O22 5856   2.484   0.786  10.477  0.2057 -0.1729 -0.0221
   69SLPC   C22 5857   2.516   1.033  10.498 -0.2690 -0.2578  0.6588
   69SLPC   H2R 5858   2.437   1.101  10.460  0.9495  1.3655  1.0016
   69SLPC   H2S 5859   2.568   1.077  10.586 -0.0058 -0.0346  0.3906
   69SLPC    C3 5860   2.157   0.789  10.520 -0.2178  0.6070  0.2676
   69SLPC    HX 5861   2.120   0.893  10.509  0.0279  0.6299 -0.4045
   69SLPC    HY 5862   2.071   0.720  10.529 -0.4775  1.1136  1.7946
   69SLPC   O31 5863   2.223   0.755  10.397 -0.0934  0.0425  0.2730
   69SLPC   C31 5864   2.272   0.634  10.364  0.1673 -0.0807  0.0176
   69SLPC   O32 5865   2.251   0.541  10.432 -0.0172  0.1242  0.3279
   69SLPC   C32 5866   2.352   0.641  10.231 -0.0848  0.1605  0.0070
   69SLPC   H2X 5867   2.459   0.638  10.261 -0.3254 -3.6948  0.8304
   69SLPC   H2Y 5868   2.320   0.734  10.180 -0.2821  0.3872  0.5476
   69SLPC   C23 5869   2.627   1.035  10.388 -0.3760  0.0740 -0.2798
   69SLPC   H3R 5870   2.712   0.967  10.411  0.3936  1.0482 -0.2265
   69SLPC   H3S 5871   2.662   1.140  10.378 -1.1024  0.6111  2.5022
   69SLPC   C24 5872   2.574   1.012  10.243 -0.1749  0.2587 -0.5013
   69SLPC   H4R 5873   2.518   0.916  10.245 -1.4791  1.0028 -0.9969
   69SLPC   H4S 5874   2.664   0.993  10.179  0.4157  2.8122 -0.5074
   69SLPC   C25 5875   2.492   1.130  10.193 -0.3527  0.0390 -0.1851
   69SLPC   H5R 5876   2.531   1.229  10.224 -0.9927  0.7691 -1.6496
   69SLPC   H5S 5877   2.394   1.126  10.245  0.1222  0.7561  0.7813
   69SLPC   C26 5878   2.482   1.130  10.045 -0.4446  0.0790  0.4683
   69SLPC   H6R 5879   2.420   1.039  10.027 -1.2143  0.9781 -1.5280
   69SLPC   H6S 5880   2.579   1.117   9.994  0.0620  1.9518  0.9261
   69SLPC   C27 5881   2.406   1.242   9.982  0.2936  0.5116 -0.4162
   69SLPC   H7R 5882   2.442   1.341  10.018  1.1072 -0.3993  1.3607
   69SLPC   H7S 5883   2.301   1.242  10.018  0.7742 -0.0811  1.0382
   69SLPC   C28 5884   2.414   1.243   9.831  0.2466  1.1902 -0.4888
   69SLPC   H8R 5885   2.523   1.240   9.808 -0.0647  0.1105 -1.9082
   69SLPC   H8S 5886   2.377   1.342   9.797  0.3510  1.5828  0.5349
   69SLPC   C29 5887   2.336   1.135   9.764 -0.2698  0.4378  0.5192
   69SLPC   H9R 5888   2.357   1.037   9.810  0.1110 -0.2777 -1.1220
   69SLPC  C210 5889   2.246   1.137   9.660 -0.0492  0.1706 -0.4720
   69SLPC  H10R 5890   2.191   1.043   9.646 -1.6630  1.1252 -0.7300
   69SLPC  C211 5891   2.194   1.251   9.576  0.4863  0.0169  0.0520
   69SLPC  H11R 5892   2.267   1.334   9.569  0.8763 -0.4125 -1.1029
   69SLPC  H11S 5893   2.107   1.296   9.628 -0.3788 -1.6361  0.0849
   69SLPC  C212 5894   2.147   1.227   9.436 -0.0067 -0.1384 -0.0703
   69SLPC  H12R 5895   2.041   1.199   9.436 -0.2451  0.7550 -0.4180
   69SLPC  C213 5896   2.218   1.230   9.322 -0.1775 -0.2338 -0.3699
   69SLPC  H13R 5897   2.166   1.219   9.226 -0.1557  1.2529 -0.5566
   69SLPC  C214 5898   2.369   1.255   9.321 -0.3851 -0.4757  0.8246
   69SLPC  H14R 5899   2.424   1.213   9.407 -0.8986  1.7852  2.3082
   69SLPC  H14S 5900   2.387   1.365   9.321  2.9861 -0.9794  0.2902
   69SLPC  C215 5901   2.430   1.191   9.200  0.0207 -0.0770  0.1473
   69SLPC  H15R 5902   2.384   1.228   9.106  1.0295 -2.0167 -1.1440
   69SLPC  H15S 5903   2.431   1.081   9.186  0.8161  0.1598 -1.8219
   69SLPC  C216 5904   2.581   1.222   9.187 -0.6006  0.3189 -0.6334
   69SLPC  H16R 5905   2.594   1.325   9.148 -1.3438  0.1973 -1.2148
   69SLPC  H16S 5906   2.635   1.149   9.123 -1.6772 -0.4341 -0.7021
   69SLPC  C217 5907   2.664   1.216   9.314  0.5177  0.3060  0.3401
   69SLPC  H17R 5908   2.647   1.119   9.365  2.8209  0.1496  0.8624
   69SLPC  H17S 5909   2.652   1.295   9.391 -1.4188 -0.5890  0.9982
   69SLPC  C218 5910   2.812   1.224   9.272  0.5653 -0.2535 -0.0546
   69SLPC  H18R 5911   2.843   1.161   9.185  1.0194  0.8342 -0.6897
   69SLPC  H18S 5912   2.879   1.207   9.358  0.0012  3.8510  1.2902
   69SLPC  H18T 5913   2.822   1.326   9.231 -2.8113 -0.9151 -2.8387
   69SLPC   C33 5914   2.323   0.523  10.141  0.0947 -0.0549  0.1368
   69SLPC   H3X 5915   2.214   0.526  10.121  0.0328 -0.6255  0.3636
   69SLPC   H3Y 5916   2.348   0.432  10.200 -0.4043 -0.2983 -0.0294
   69SLPC   C34 5917   2.394   0.524   9.997  0.0845 -0.4321  0.2122
   69SLPC   H4X 5918   2.383   0.423   9.953  2.9070  0.1832 -2.0279
   69SLPC   H4Y 5919   2.501   0.553   9.992 -0.5767  1.8578 -0.8911
   69SLPC   C35 5920   2.325   0.620   9.899  0.5878  0.9881 -0.6147
   69SLPC   H5X 5921   2.346   0.721   9.939  0.6100  1.0850 -0.8720
   69SLPC   H5Y 5922   2.214   0.629   9.900  0.6243  1.4907 -1.0949
   69SLPC   C36 5923   2.370   0.570   9.761  0.2980 -0.3244 -0.1028
   69SLPC   H6X 5924   2.351   0.461   9.755 -1.8931  0.0764 -1.2097
   69SLPC   H6Y 5925   2.478   0.585   9.743  0.1055  0.6172 -0.5062
   69SLPC   C37 5926   2.288   0.624   9.637  0.2581 -0.1269  1.1212
   69SLPC   H7X 5927   2.179   0.622   9.658 -0.4083 -1.0548 -2.2226
   69SLPC   H7Y 5928   2.286   0.560   9.547 -0.1040  0.5245  0.6630
   69SLPC   C38 5929   2.323   0.769   9.598  0.4351  0.0066  0.1629
   69SLPC   H8X 5930   2.431   0.780   9.577  0.5028  0.0328  0.5132
   69SLPC   H8Y 5931   2.294   0.824   9.690  0.8300 -0.1591  0.3873
   69SLPC   C39 5932   2.238   0.818   9.483 -0.0924 -0.1955  0.1727
   69SLPC   H9X 5933   2.261   0.926   9.474 -2.9806  0.4423 -0.1794
   69SLPC   H9Y 5934   2.129   0.800   9.497 -0.2006  1.2070  1.3045
   69SLPC  C310 5935   2.284   0.761   9.352 -0.2261  0.2327 -0.3321
   69SLPC  H10X 5936   2.285   0.650   9.353  0.6946  0.2106  2.9259
   69SLPC  H10Y 5937   2.387   0.798   9.334 -1.1097  2.4284 -1.0437
   69SLPC  C311 5938   2.222   0.817   9.231  1.1442 -0.3822 -0.1446
   69SLPC  H11X 5939   2.253   0.924   9.226 -1.5094  0.4503  0.6182
   69SLPC  H11Y 5940   2.111   0.813   9.221  1.3241 -1.7365 -1.7757
   69SLPC  C312 5941   2.279   0.751   9.104  0.0284 -0.3045  0.7289
   69SLPC  H12X 5942   2.229   0.804   9.020  1.2751 -1.0853 -0.5431
   69SLPC  H12Y 5943   2.247   0.646   9.088 -1.1583  0.3997 -1.7248
   69SLPC  C313 5944   2.431   0.780   9.092  0.7679  0.1332 -0.1837
   69SLPC  H13X 5945   2.484   0.716   9.166 -1.4551 -0.5900  0.8304
   69SLPC  H13Y 5946   2.461   0.881   9.128  0.5961 -0.3429  1.3676
   69SLPC  C314 5947   2.460   0.767   8.946  1.0336  0.1874  0.8426
   69SLPC  H14X 5948   2.407   0.837   8.880 -0.7813 -3.6684 -1.9777
   69SLPC  H14Y 5949   2.435   0.665   8.909  0.0057 -0.1427  2.4124
   69SLPC  C315 5950   2.606   0.787   8.903 -0.1385 -0.0155 -0.2013
   69SLPC  H15X 5951   2.616   0.786   8.792  3.2439 -0.8051  0.0686
   69SLPC  H15Y 5952   2.669   0.703   8.936 -0.2760 -0.5950 -1.3621
   69SLPC  C316 5953   2.668   0.909   8.959  0.0761 -0.3801 -0.3073
   69SLPC  H16X 5954   2.693   0.887   9.065 -0.1725 -0.0869 -0.1865
   69SLPC  H16Y 5955   2.596   0.992   8.945  0.5013  0.2269  1.0586
   69SLPC  C317 5956   2.798   0.952   8.904  0.4548 -0.6263  0.1383
   69SLPC  H17X 5957   2.878   0.876   8.919  2.2810  1.1294 -0.4764
   69SLPC  H17Y 5958   2.817   1.048   8.956  0.2061 -0.5644  0.1134
   69SLPC  C318 5959   2.789   0.978   8.752  0.2011 -0.4205  0.7078
   69SLPC  H18X 5960   2.710   1.048   8.717  1.1952  1.2294  1.6882
   69SLPC  H18Y 5961   2.766   0.880   8.705  0.2208 -0.5116  0.8875
   69SLPC  H18Z 5962   2.891   1.002   8.715 -0.2179  0.0505 -0.1485
   70SLPC     N 5963   2.982   6.147  10.810  0.0531 -0.3667 -0.3668
   70SLPC   C13 5964   2.975   6.249  10.916  0.2092 -0.0971 -0.6157
   70SLPC  H13A 5965   3.016   6.195  11.000 -1.6842  0.3780  0.6537
   70SLPC  H13B 5966   3.036   6.334  10.893 -0.4176  0.1413 -1.4160
   70SLPC  H13C 5967   2.873   6.275  10.943  0.0933 -1.0047 -0.1448
   70SLPC   C14 5968   2.904   6.199  10.695  0.5361  0.3224 -0.4700
   70SLPC  H14A 5969   2.884   6.115  10.630  0.5128 -0.9912  1.2202
   70SLPC  H14B 5970   2.809   6.233  10.731  0.4349  1.7820 -2.0195
   70SLPC  H14C 5971   2.948   6.290  10.655 -0.4300  0.7004 -0.6861
   70SLPC   C15 5972   2.924   6.019  10.866  0.1102  0.0720 -0.2679
   70SLPC  H15A 5973   2.817   6.019  10.854  0.2898 -1.1567 -2.0208
   70SLPC  H15B 5974   2.972   5.937  10.813 -1.4419 -0.9057 -0.2084
   70SLPC  H15C 5975   2.951   6.004  10.970 -2.2493  2.1027  0.6684
   70SLPC   C12 5976   3.125   6.118  10.784 -0.0054 -0.0067  0.0917
   70SLPC  H12A 5977   3.175   6.093  10.877 -1.5956 -0.6382  0.7983
   70SLPC  H12B 5978   3.166   6.199  10.726  0.1393 -0.6922 -0.7758
   70SLPC   C11 5979   3.150   6.002  10.684 -0.5394 -0.6848 -0.3277
   70SLPC  H11A 5980   3.257   6.011  10.655 -1.0728  0.7651 -1.9553
   70SLPC  H11B 5981   3.098   6.024  10.588 -0.2637 -0.9176 -0.5323
   70SLPC     P 5982   3.211   5.790  10.827 -0.3531 -0.1355  0.1770
   70SLPC   O13 5983   3.254   5.874  10.943  0.2259  0.4925  0.5235
   70SLPC   O14 5984   3.147   5.657  10.846 -0.7758  0.0023 -0.0329
   70SLPC   O12 5985   3.117   5.873  10.731 -0.5392 -0.1785  0.5336
   70SLPC   O11 5986   3.340   5.783  10.729  0.4507  0.5395 -0.3407
   70SLPC    C1 5987   3.330   5.755  10.589  0.0717 -0.1488 -0.1645
   70SLPC    HA 5988   3.236   5.799  10.548 -0.5386 -1.0186  0.2725
   70SLPC    HB 5989   3.402   5.811  10.527 -0.8647 -0.2200 -1.3331
   70SLPC    C2 5990   3.349   5.610  10.552 -0.1285  0.2469 -0.6698
   70SLPC    HS 5991   3.274   5.549  10.607  0.6293 -1.6638 -1.7349
   70SLPC   O21 5992   3.484   5.570  10.588 -0.2248  0.7359  0.0786
   70SLPC   C21 5993   3.504   5.445  10.617 -0.2851 -0.2926  0.2179
   70SLPC   O22 5994   3.425   5.351  10.611  0.0702 -0.2901 -0.2244
   70SLPC   C22 5995   3.644   5.432  10.687  0.0113 -0.2328 -0.7271
   70SLPC   H2R 5996   3.683   5.535  10.699  0.0538 -0.1709 -1.3744
   70SLPC   H2S 5997   3.636   5.374  10.782 -2.4270  1.4668  0.1683
   70SLPC    C3 5998   3.337   5.581  10.399  0.2042  0.3386 -0.6638
   70SLPC    HX 5999   3.403   5.643  10.335 -0.6324  0.8138 -1.0752
   70SLPC    HY 6000   3.239   5.628  10.376  0.8424  0.5341 -3.1242
   70SLPC   O31 6001   3.345   5.441  10.374  0.3654  0.4195  0.2081
   70SLPC   C31 6002   3.231   5.376  10.377  0.5032 -1.3325  0.0659
   70SLPC   O32 6003   3.123   5.424  10.382  1.0381 -0.4065 -0.5565
   70SLPC   C32 6004   3.264   5.234  10.349  0.4605 -0.4825  0.2913
   70SLPC   H2X 6005   3.202   5.183  10.426  0.2090  1.2246  1.2308
   70SLPC   H2Y 6006   3.370   5.215  10.379  1.4801  1.7989 -1.6941
   70SLPC   C23 6007   3.738   5.353  10.592 -1.0656  0.7674  0.7286
   70SLPC   H3R 6008   3.685   5.264  10.553  0.5172  0.8005 -1.5429
   70SLPC   H3S 6009   3.829   5.329  10.652 -0.7744 -1.2157 -0.4710
   70SLPC   C24 6010   3.789   5.442  10.468  0.0780 -0.4770  0.8339
   70SLPC   H4R 6011   3.819   5.536  10.519  0.0171  0.5497 -0.9798
   70SLPC   H4S 6012   3.702   5.463  10.402 -0.6918 -2.7382  1.0902
   70SLPC   C25 6013   3.902   5.387  10.382  0.7530 -0.5843  0.5156
   70SLPC   H5R 6014   3.871   5.292  10.334  0.0013  0.0400 -0.2563
   70SLPC   H5S 6015   3.991   5.343  10.432  1.7047  1.1429  0.3734
   70SLPC   C26 6016   3.944   5.498  10.280 -0.4787  0.3881  0.3042
   70SLPC   H6R 6017   4.042   5.471  10.233 -1.2581  0.5334 -1.4481
   70SLPC   H6S 6018   3.937   5.598  10.326  2.5099 -0.1197  2.0280
   70SLPC   C27 6019   3.845   5.492  10.156  0.0619  0.1788 -0.1826
   70SLPC   H7R 6020   3.857   5.587  10.099 -0.5669  0.6482  0.4716
   70SLPC   H7S 6021   3.741   5.494  10.193  0.9576  1.8627  2.3636
   70SLPC   C28 6022   3.849   5.360  10.067 -0.5340  0.3342  0.1253
   70SLPC   H8R 6023   3.771   5.363   9.989 -0.6930 -1.3293  0.1983
   70SLPC   H8S 6024   3.823   5.275  10.133 -0.6485  0.6524  0.4897
   70SLPC   C29 6025   3.984   5.332  10.009 -0.3354  0.1983 -0.2401
   70SLPC   H9R 6026   4.064   5.309  10.080  1.4476  1.5643 -1.7596
   70SLPC  C210 6027   4.011   5.339   9.878 -0.3629  0.1096  0.3629
   70SLPC  H10R 6028   4.115   5.315   9.851 -0.4515  0.6078 -0.4413
   70SLPC  C211 6029   3.917   5.370   9.766 -0.0910 -0.3479 -0.4857
   70SLPC  H11R 6030   3.979   5.432   9.697  1.4170  1.1089  2.1298
   70SLPC  H11S 6031   3.844   5.446   9.801  2.1847  0.1705  3.3024
   70SLPC  C212 6032   3.850   5.248   9.699  0.5163 -0.2608 -0.4849
   70SLPC  H12R 6033   3.836   5.159   9.762 -1.6285 -1.1021 -2.0759
   70SLPC  C213 6034   3.819   5.239   9.565 -0.0624  0.2798  0.2616
   70SLPC  H13R 6035   3.774   5.150   9.520  1.2979  0.1800 -0.9354
   70SLPC  C214 6036   3.848   5.358   9.469 -0.1698 -0.2571 -0.2785
   70SLPC  H14R 6037   3.913   5.430   9.524 -2.0016  0.5190  0.8999
   70SLPC  H14S 6038   3.759   5.419   9.445  0.4474  1.1626  0.9756
   70SLPC  C215 6039   3.924   5.310   9.339 -0.2209 -0.1322 -0.1299
   70SLPC  H15R 6040   4.014   5.249   9.359  1.1017  0.9123 -2.6518
   70SLPC  H15S 6041   3.963   5.401   9.288 -0.4682 -0.1805 -0.4101
   70SLPC  C216 6042   3.833   5.247   9.238  0.7006  0.3877 -0.2857
   70SLPC  H16R 6043   3.743   5.312   9.233  1.7070  1.8945  0.7417
   70SLPC  H16S 6044   3.803   5.142   9.258 -0.5886  0.3137 -2.3856
   70SLPC  C217 6045   3.897   5.233   9.095 -0.0855  0.9904 -0.8022
   70SLPC  H17R 6046   3.851   5.139   9.058 -2.8041  1.7714  0.4078
   70SLPC  H17S 6047   4.006   5.217   9.102 -0.4130 -0.0735  2.5761
   70SLPC  C218 6048   3.866   5.339   8.990 -0.2659 -0.9516  0.2758
   70SLPC  H18R 6049   3.764   5.333   8.947  0.1927 -1.7541 -0.7255
   70SLPC  H18S 6050   3.944   5.337   8.911 -0.0867  0.2494  0.4171
   70SLPC  H18T 6051   3.875   5.433   9.050 -0.0948 -1.6585  1.3768
   70SLPC   C33 6052   3.226   5.189  10.210  0.5199  0.4217 -0.0502
   70SLPC   H3X 6053   3.122   5.214  10.180  0.1325 -0.8687  0.2010
   70SLPC   H3Y 6054   3.226   5.078  10.218  0.1549  0.6753  4.8577
   70SLPC   C34 6055   3.322   5.242  10.105 -0.0768  0.4696  0.3562
   70SLPC   H4X 6056   3.420   5.271  10.148  0.2049 -0.7483  0.5612
   70SLPC   H4Y 6057   3.299   5.343  10.065  1.3211  0.2936 -0.9362
   70SLPC   C35 6058   3.345   5.138   9.992 -0.0059  0.2693 -0.7948
   70SLPC   H5X 6059   3.243   5.113   9.957  1.0614 -2.3368 -2.1950
   70SLPC   H5Y 6060   3.387   5.049  10.044  0.3670 -0.3805 -2.1866
   70SLPC   C36 6061   3.427   5.193   9.879 -0.4125 -0.4260 -0.5848
   70SLPC   H6X 6062   3.421   5.110   9.806  0.0471  1.0474 -2.3554
   70SLPC   H6Y 6063   3.531   5.212   9.913 -0.7239 -1.2702  0.8568
   70SLPC   C37 6064   3.375   5.329   9.810 -0.8203  0.3231 -0.6812
   70SLPC   H7X 6065   3.390   5.421   9.869 -0.6624  0.5003 -0.9978
   70SLPC   H7Y 6066   3.264   5.323   9.799 -0.8518  2.5454 -1.6908
   70SLPC   C38 6067   3.436   5.352   9.672 -0.4667  0.0284  0.2338
   70SLPC   H8X 6068   3.543   5.322   9.673  0.6942  3.8142  2.6111
   70SLPC   H8Y 6069   3.439   5.462   9.658  1.7797 -0.1207 -0.5473
   70SLPC   C39 6070   3.360   5.290   9.551  0.5966  1.3432  0.1124
   70SLPC   H9X 6071   3.258   5.333   9.557  0.3443  0.5010  2.7028
   70SLPC   H9Y 6072   3.355   5.179   9.555  1.6021  1.3144  0.7327
   70SLPC  C310 6073   3.428   5.325   9.412  0.6873  0.5847 -0.5185
   70SLPC  H10X 6074   3.530   5.280   9.409  0.5100  0.2590 -1.9762
   70SLPC  H10Y 6075   3.431   5.436   9.411 -1.8848  0.6724 -0.3287
   70SLPC  C311 6076   3.344   5.281   9.295 -0.0750  0.1331  0.0469
   70SLPC  H11X 6077   3.382   5.343   9.211  2.1212 -1.1753  0.0049
   70SLPC  H11Y 6078   3.236   5.303   9.304 -0.2992 -0.4365 -1.1512
   70SLPC  C312 6079   3.371   5.132   9.255  0.7737 -0.4228  0.2572
   70SLPC  H12X 6080   3.302   5.068   9.314 -1.2158  1.8427  0.4752
   70SLPC  H12Y 6081   3.469   5.102   9.297  0.9069  0.6434  0.7395
   70SLPC  C313 6082   3.358   5.095   9.108  0.6470 -0.1029  0.1316
   70SLPC  H13X 6083   3.271   5.152   9.068  1.2927  1.3015  0.6740
   70SLPC  H13Y 6084   3.335   4.987   9.100  3.6652 -0.6846 -0.9663
   70SLPC  C314 6085   3.498   5.109   9.035  0.1185  0.0349  0.5696
   70SLPC  H14X 6086   3.569   5.056   9.102 -2.4828 -0.3252  3.1486
   70SLPC  H14Y 6087   3.532   5.214   9.032 -1.3769  0.5753  1.8515
   70SLPC  C315 6088   3.496   5.061   8.889 -0.5242  0.9491 -0.0228
   70SLPC  H15X 6089   3.494   4.950   8.882  1.7680  0.8469  0.5285
   70SLPC  H15Y 6090   3.594   5.087   8.844  0.9420 -1.5486  1.5183
   70SLPC  C316 6091   3.384   5.123   8.799 -0.2160 -0.1868  0.3434
   70SLPC  H16X 6092   3.391   5.232   8.819 -1.7837  0.0993 -0.5352
   70SLPC  H16Y 6093   3.285   5.077   8.819 -1.9994  2.8653 -1.0064
   70SLPC  C317 6094   3.416   5.093   8.648  0.3270  0.6493  0.2025
   70SLPC  H17X 6095   3.390   4.985   8.637  0.1335  0.3237  3.4054
   70SLPC  H17Y 6096   3.522   5.104   8.616 -0.1662 -0.6163 -1.9426
   70SLPC  C318 6097   3.328   5.175   8.560  0.5833  0.0702  0.4259
   70SLPC  H18X 6098   3.355   5.283   8.569  0.2213  0.2456 -0.4674
   70SLPC  H18Y 6099   3.223   5.161   8.595  0.6317  1.4308  1.1533
   70SLPC  H18Z 6100   3.319   5.147   8.452  0.7798  1.9043 -0.0875
   71SLPC     N 6101   3.352   3.324  10.500 -0.5684 -0.3377  0.5008
   71SLPC   C13 6102   3.362   3.177  10.536  0.2534  0.1890 -0.0773
   71SLPC  H13A 6103   3.305   3.160  10.626 -1.3659 -2.0883 -1.4696
   71SLPC  H13B 6104   3.321   3.117  10.455 -2.3280  1.5547  0.1694
   71SLPC  H13C 6105   3.460   3.148  10.571 -0.1128 -1.1420 -0.1184
   71SLPC   C14 6106   3.414   3.353  10.363 -0.6709  0.4882 -0.1513
   71SLPC  H14A 6107   3.339   3.327  10.290  0.3531 -0.9029 -0.7321
   71SLPC  H14B 6108   3.436   3.457  10.346 -0.2892  0.5459  0.6618
   71SLPC  H14C 6109   3.507   3.299  10.347 -0.0692  1.0115  1.4454
   71SLPC   C15 6110   3.437   3.398  10.606 -0.2467  0.0684 -0.1207
   71SLPC  H15A 6111   3.455   3.501  10.581 -0.0026  0.4521  1.5448
   71SLPC  H15B 6112   3.398   3.396  10.707 -1.4561  1.6950 -0.5439
   71SLPC  H15C 6113   3.537   3.358  10.618 -0.5357 -0.4026  0.7972
   71SLPC   C12 6114   3.205   3.354  10.503 -0.3289  0.0126 -0.0769
   71SLPC  H12A 6115   3.163   3.282  10.435  1.2653 -1.6914  0.6960
   71SLPC  H12B 6116   3.197   3.451  10.456 -0.3323  0.8788  1.6563
   71SLPC   C11 6117   3.133   3.364  10.637 -0.0209 -1.0568 -0.4948
   71SLPC  H11A 6118   3.157   3.272  10.695 -0.5942 -1.3648 -0.7475
   71SLPC  H11B 6119   3.024   3.352  10.621  0.2577  0.0352 -3.4379
   71SLPC     P 6120   3.104   3.622  10.685  0.4165 -0.1659  0.1952
   71SLPC   O13 6121   2.975   3.649  10.757  0.3608 -0.0290  0.1214
   71SLPC   O14 6122   3.213   3.724  10.699  0.0111 -0.0716 -0.1274
   71SLPC   O12 6123   3.162   3.481  10.717 -0.1737 -0.1153  0.3881
   71SLPC   O11 6124   3.062   3.611  10.535  0.1220 -0.0461  0.5750
   71SLPC    C1 6125   2.926   3.605  10.483  0.9176 -0.2108 -0.4411
   71SLPC    HA 6126   2.905   3.519  10.416 -0.6705  0.6420 -1.0779
   71SLPC    HB 6127   2.850   3.575  10.558 -0.7793 -2.0924 -2.7929
   71SLPC    C2 6128   2.876   3.739  10.418  0.5008  0.6101 -0.1433
   71SLPC    HS 6129   2.765   3.729  10.418  0.6272 -0.9543 -0.7051
   71SLPC   O21 6130   2.927   3.743  10.281 -0.0115  0.2215  0.2529
   71SLPC   C21 6131   2.873   3.652  10.199  0.0037 -1.2292 -0.0161
   71SLPC   O22 6132   2.777   3.582  10.229 -0.2553 -0.8602 -0.9481
   71SLPC   C22 6133   2.935   3.651  10.067  0.1735  0.7217 -0.2085
   71SLPC   H2R 6134   2.978   3.752  10.051  0.7879  0.3538 -0.9300
   71SLPC   H2S 6135   3.021   3.581  10.061 -1.9496 -1.9255 -0.5489
   71SLPC    C3 6136   2.912   3.861  10.495  0.3327 -0.2403 -0.6240
   71SLPC    HX 6137   3.013   3.849  10.539  0.8913  1.9634 -1.2816
   71SLPC    HY 6138   2.830   3.862  10.570  0.2675  0.0408 -0.6983
   71SLPC   O31 6139   2.905   3.981  10.413  0.2953  0.0292  0.1739
   71SLPC   C31 6140   2.987   4.076  10.457  0.4955 -0.4352  0.3860
   71SLPC   O32 6141   3.050   4.076  10.561 -0.4479  0.0533  0.3744
   71SLPC   C32 6142   2.977   4.187  10.343  0.7881 -0.0499 -0.7703
   71SLPC   H2X 6143   3.027   4.283  10.368  0.3179  1.3229 -4.6208
   71SLPC   H2Y 6144   2.869   4.206  10.324  1.0092  2.8721  0.7180
   71SLPC   C23 6145   2.829   3.624   9.962  0.5485  0.0353 -0.2704
   71SLPC   H3R 6146   2.752   3.703   9.978  0.7980  0.4257 -0.9872
   71SLPC   H3S 6147   2.779   3.526   9.977 -0.8442  0.5411 -1.5453
   71SLPC   C24 6148   2.890   3.621   9.826 -0.5828  0.5285  1.2197
   71SLPC   H4R 6149   2.982   3.559   9.827 -1.5746 -0.9578  2.0843
   71SLPC   H4S 6150   2.914   3.723   9.790 -0.0317  0.0832  0.2843
   71SLPC   C25 6151   2.784   3.564   9.730 -0.1240 -0.1426 -0.6848
   71SLPC   H5R 6152   2.708   3.644   9.716 -1.1199 -0.8074  0.8845
   71SLPC   H5S 6153   2.753   3.466   9.769 -1.2077 -0.4458 -2.2435
   71SLPC   C26 6154   2.847   3.551   9.591 -0.2135 -0.1027 -0.0291
   71SLPC   H6R 6155   2.784   3.497   9.517  1.5118 -0.8824 -0.9412
   71SLPC   H6S 6156   2.937   3.490   9.612  0.9670  1.5679 -0.1708
   71SLPC   C27 6157   2.877   3.675   9.515  0.0338 -0.7991 -0.0642
   71SLPC   H7R 6158   2.956   3.654   9.441 -0.7313  0.0552 -1.1439
   71SLPC   H7S 6159   2.927   3.745   9.586  2.6355 -0.2497 -2.3649
   71SLPC   C28 6160   2.759   3.754   9.445 -0.7503  0.5277 -0.3214
   71SLPC   H8R 6161   2.667   3.760   9.509  0.7381  1.6038  1.7938
   71SLPC   H8S 6162   2.716   3.690   9.366 -0.8180 -0.8494  0.8086
   71SLPC   C29 6163   2.814   3.881   9.378 -0.3201 -0.2010 -0.1756
   71SLPC   H9R 6164   2.860   3.946   9.453 -1.6886 -0.1170  0.6201
   71SLPC  C210 6165   2.804   3.924   9.257  0.2528 -0.6458  0.0413
   71SLPC  H10R 6166   2.839   4.025   9.229 -0.9575 -0.1985  0.1422
   71SLPC  C211 6167   2.743   3.856   9.137  0.2505 -0.3136 -0.4225
   71SLPC  H11R 6168   2.688   3.937   9.085 -0.1890 -1.0287 -1.0827
   71SLPC  H11S 6169   2.666   3.783   9.170  3.9403 -3.2188  2.1509
   71SLPC  C212 6170   2.839   3.795   9.038 -0.1445  0.2805 -0.3921
   71SLPC  H12R 6171   2.909   3.870   8.999  0.5174 -0.5608 -0.8354
   71SLPC  C213 6172   2.842   3.664   8.999  0.2508  0.1703  0.1053
   71SLPC  H13R 6173   2.909   3.642   8.915 -1.5471  1.2158 -1.6535
   71SLPC  C214 6174   2.757   3.554   9.037  0.2587  0.2474 -0.0190
   71SLPC  H14R 6175   2.677   3.596   9.101  1.3506  2.4110 -0.0164
   71SLPC  H14S 6176   2.829   3.495   9.097 -1.1064  0.5566  1.9435
   71SLPC  C215 6177   2.717   3.471   8.914 -0.2553 -0.3677  0.6733
   71SLPC  H15R 6178   2.668   3.380   8.955 -2.8085  0.4126 -0.5297
   71SLPC  H15S 6179   2.806   3.431   8.862 -0.7352  0.9294 -1.2082
   71SLPC  C216 6180   2.609   3.539   8.825  0.5632  0.1118 -0.7197
   71SLPC  H16R 6181   2.589   3.467   8.742  0.9882 -2.9088  1.7377
   71SLPC  H16S 6182   2.653   3.630   8.777 -1.5538  1.9768  0.7763
   71SLPC  C217 6183   2.469   3.560   8.891  0.4418  0.0566  0.1772
   71SLPC  H17R 6184   2.479   3.622   8.983  1.0435  3.6986 -2.2119
   71SLPC  H17S 6185   2.421   3.465   8.922 -2.1981  0.2546 -3.0559
   71SLPC  C218 6186   2.372   3.618   8.795 -0.6924 -0.1235 -0.1823
   71SLPC  H18R 6187   2.354   3.546   8.712 -1.0278 -0.2970  0.0432
   71SLPC  H18S 6188   2.414   3.710   8.749  0.5594 -0.4265  0.3404
   71SLPC  H18T 6189   2.277   3.645   8.845 -0.1954  1.6516 -0.1557
   71SLPC   C33 6190   3.034   4.157  10.209 -0.1379 -0.6502 -0.0393
   71SLPC   H3X 6191   3.140   4.123  10.212 -0.3143 -1.2774 -0.8260
   71SLPC   H3Y 6192   3.043   4.253  10.154  2.9079 -0.6761  0.3191
   71SLPC   C34 6193   2.945   4.069  10.117  0.5070  0.0066 -0.1932
   71SLPC   H4X 6194   2.849   4.121  10.100 -0.7519 -2.1652  0.0265
   71SLPC   H4Y 6195   2.912   3.975  10.167 -0.8080 -0.6534 -2.2509
   71SLPC   C35 6196   3.010   4.028   9.991  0.6491 -0.3221 -0.1547
   71SLPC   H5X 6197   2.940   3.955   9.946 -1.2662  1.5303 -0.2634
   71SLPC   H5Y 6198   3.115   3.994  10.002 -0.1093 -3.2749 -1.5491
   71SLPC   C36 6199   3.007   4.157   9.905  0.3684  0.2140 -0.1871
   71SLPC   H6X 6200   3.077   4.236   9.941 -0.0201  1.2541 -1.6995
   71SLPC   H6Y 6201   2.901   4.192   9.905  0.8821  1.8819  1.7105
   71SLPC   C37 6202   3.055   4.124   9.759  0.0781  0.1893 -0.1778
   71SLPC   H7X 6203   3.095   4.217   9.714 -0.8525  0.6806  0.0210
   71SLPC   H7Y 6204   2.968   4.095   9.696  1.4136  0.7936 -2.3751
   71SLPC   C38 6205   3.170   4.020   9.741  0.1157  0.6556 -0.1035
   71SLPC   H8X 6206   3.121   3.921   9.749  1.2883  0.1364  0.9129
   71SLPC   H8Y 6207   3.256   4.035   9.810 -0.3347 -3.1094  1.4140
   71SLPC   C39 6208   3.236   4.014   9.606  0.1437  0.1903  1.5956
   71SLPC   H9X 6209   3.296   3.921   9.616 -2.1670 -1.3292  1.7651
   71SLPC   H9Y 6210   3.313   4.093   9.593  0.6122 -0.5343 -0.1848
   71SLPC  C310 6211   3.142   3.995   9.485  0.3439 -0.1766  0.6213
   71SLPC  H10X 6212   3.077   4.085   9.482  1.8421  0.9206  0.3758
   71SLPC  H10Y 6213   3.083   3.903   9.504  0.6077 -0.6172 -0.6507
   71SLPC  C311 6214   3.218   3.967   9.351 -0.1132  0.1639 -0.8977
   71SLPC  H11X 6215   3.283   4.057   9.343 -0.1163  0.1615 -0.9493
   71SLPC  H11Y 6216   3.134   3.970   9.279 -1.9404 -0.2674  1.1585
   71SLPC  C312 6217   3.294   3.833   9.348 -0.0385 -0.3271  0.0411
   71SLPC  H12X 6218   3.232   3.748   9.380 -0.4004 -0.2992 -0.5756
   71SLPC  H12Y 6219   3.383   3.845   9.415 -1.2919 -1.3392  1.9258
   71SLPC  C313 6220   3.363   3.805   9.215 -0.1310 -0.2090 -0.3453
   71SLPC  H13X 6221   3.440   3.727   9.233 -0.4225 -0.4956 -0.3483
   71SLPC  H13Y 6222   3.409   3.901   9.182 -2.1460  1.5039  1.6644
   71SLPC  C314 6223   3.258   3.787   9.102  0.2735 -0.0061 -0.4726
   71SLPC  H14X 6224   3.182   3.866   9.088 -1.2189 -1.3301 -0.0785
   71SLPC  H14Y 6225   3.196   3.699   9.132  1.5363 -0.2277  1.5802
   71SLPC  C315 6226   3.312   3.751   8.963 -1.1752  0.1795  0.5130
   71SLPC  H15X 6227   3.380   3.663   8.970 -1.0852  0.1764 -0.3795
   71SLPC  H15Y 6228   3.374   3.834   8.925 -0.3128 -0.0353  1.4447
   71SLPC  C316 6229   3.200   3.721   8.862 -0.5078 -0.0601  0.0763
   71SLPC  H16X 6230   3.142   3.814   8.841 -2.3833 -1.4629 -1.1377
   71SLPC  H16Y 6231   3.128   3.652   8.911 -1.1185  0.4067 -0.1529
   71SLPC  C317 6232   3.245   3.659   8.731  0.0580 -0.1276  0.9171
   71SLPC  H17X 6233   3.302   3.564   8.740 -0.9428 -1.0492 -1.7871
   71SLPC  H17Y 6234   3.313   3.732   8.682  0.9927 -2.0194 -0.7117
   71SLPC  C318 6235   3.122   3.643   8.636  0.3886  0.7408  0.0084
   71SLPC  H18X 6236   3.084   3.745   8.614 -1.2534 -0.0135 -0.7148
   71SLPC  H18Y 6237   3.039   3.583   8.679  0.3250 -0.5671 -1.8916
   71SLPC  H18Z 6238   3.143   3.589   8.542 -0.1710  0.5389  0.0003
   72SLPC     N 6239   4.227   2.203  11.241  0.5621 -0.4363 -0.1515
   72SLPC   C13 6240   4.274   2.095  11.344  0.3037  0.0467  0.3821
   72SLPC  H13A 6241   4.358   2.045  11.299  0.6193  0.0402  0.9807
   72SLPC  H13B 6242   4.299   2.149  11.433  0.8604  0.0581  0.2174
   72SLPC  H13C 6243   4.191   2.027  11.354 -2.0029  2.1994 -2.7422
   72SLPC   C14 6244   4.344   2.279  11.203 -0.7272 -0.4927  0.4098
   72SLPC  H14A 6245   4.410   2.304  11.285 -1.0296 -0.4629  0.6464
   72SLPC  H14B 6246   4.409   2.220  11.139 -2.3163 -0.4201 -1.3264
   72SLPC  H14C 6247   4.320   2.367  11.145  2.6227 -1.0053 -1.9118
   72SLPC   C15 6248   4.126   2.287  11.306 -0.1196 -0.5080  0.0718
   72SLPC  H15A 6249   4.104   2.380  11.257  0.8348  1.3418  3.0288
   72SLPC  H15B 6250   4.033   2.236  11.329 -0.0490 -1.2151 -1.1999
   72SLPC  H15C 6251   4.144   2.313  11.409 -1.6742  1.1582 -0.0454
   72SLPC   C12 6252   4.169   2.136  11.120  0.6044  0.4758 -0.6908
   72SLPC  H12A 6253   4.090   2.069  11.149  0.8872 -0.2264 -1.5551
   72SLPC  H12B 6254   4.246   2.082  11.066  0.5787  1.0722 -1.3431
   72SLPC   C11 6255   4.105   2.217  11.002  0.2589 -0.2080  0.1736
   72SLPC  H11A 6256   4.028   2.286  11.042  0.6025 -0.6827  1.7041
   72SLPC  H11B 6257   4.056   2.150  10.929  2.5609 -0.1332 -1.4954
   72SLPC     P 6258   4.294   2.215  10.825  0.1785 -0.2158 -0.1654
   72SLPC   O13 6259   4.406   2.152  10.901  0.3631  0.7221 -0.4383
   72SLPC   O14 6260   4.214   2.124  10.742 -0.4568 -0.4661  0.0651
   72SLPC   O12 6261   4.200   2.295  10.928 -0.1087  0.2913  0.3377
   72SLPC   O11 6262   4.366   2.327  10.738 -0.2834  0.6696  0.5250
   72SLPC    C1 6263   4.294   2.407  10.642  0.0262  0.3645  0.1301
   72SLPC    HA 6264   4.185   2.408  10.666 -0.0566  2.3745 -0.2303
   72SLPC    HB 6265   4.335   2.510  10.644  0.3466  0.2615 -0.6802
   72SLPC    C2 6266   4.316   2.349  10.501 -0.2740 -0.4120  0.6172
   72SLPC    HS 6267   4.266   2.250  10.499  1.0545 -1.0917 -0.1020
   72SLPC   O21 6268   4.455   2.329  10.468  0.4979 -0.7990  0.5157
   72SLPC   C21 6269   4.497   2.207  10.429  0.0295 -0.0725 -0.1914
   72SLPC   O22 6270   4.432   2.104  10.428 -0.4650 -0.5164  0.1441
   72SLPC   C22 6271   4.640   2.212  10.381 -0.1077 -0.0530 -0.1652
   72SLPC   H2R 6272   4.687   2.305  10.419  1.0249  0.1123 -1.8937
   72SLPC   H2S 6273   4.689   2.120  10.420  3.7221  0.9262 -2.3727
   72SLPC    C3 6274   4.245   2.429  10.380 -0.4452 -0.1601  0.2535
   72SLPC    HX 6275   4.312   2.518  10.372  0.8204 -1.2793 -1.7981
   72SLPC    HY 6276   4.140   2.464  10.389 -0.8105 -0.8344 -1.3893
   72SLPC   O31 6277   4.262   2.351  10.254  0.4996 -0.2570 -0.0063
   72SLPC   C31 6278   4.187   2.242  10.269 -0.8292 -0.2634  0.1182
   72SLPC   O32 6279   4.096   2.220  10.353  0.6607 -0.2039 -0.1424
   72SLPC   C32 6280   4.227   2.148  10.154  0.1720 -0.0685  0.0743
   72SLPC   H2X 6281   4.180   2.049  10.173  0.8994 -0.4325 -0.0112
   72SLPC   H2Y 6282   4.338   2.143  10.146  0.0719 -0.2928 -1.2154
   72SLPC   C23 6283   4.657   2.200  10.228  0.1559 -0.5264 -0.1441
   72SLPC   H3R 6284   4.599   2.113  10.190  0.3480  0.1907 -2.1448
   72SLPC   H3S 6285   4.764   2.174  10.217  0.0588 -0.9636 -0.0478
   72SLPC   C24 6286   4.608   2.326  10.161  0.0444 -0.4744  0.0059
   72SLPC   H4R 6287   4.697   2.392  10.157 -1.4053  1.5998  1.1891
   72SLPC   H4S 6288   4.532   2.372  10.228 -0.1016  0.8978 -1.0928
   72SLPC   C25 6289   4.564   2.309  10.012  0.1335  0.0623 -0.2952
   72SLPC   H5R 6290   4.532   2.405   9.966  1.0654  0.1097 -0.8443
   72SLPC   H5S 6291   4.473   2.245  10.020 -0.1133  0.6743  2.6535
   72SLPC   C26 6292   4.665   2.243   9.917  0.0887 -1.0395  0.1449
   72SLPC   H6R 6293   4.624   2.260   9.815  0.0671  0.9648  0.4576
   72SLPC   H6S 6294   4.676   2.136   9.944 -1.9059 -0.9222  1.5608
   72SLPC   C27 6295   4.802   2.302   9.933  0.4722 -0.3709 -0.2086
   72SLPC   H7R 6296   4.835   2.278  10.036 -1.0322 -2.7800 -0.2693
   72SLPC   H7S 6297   4.787   2.412   9.927 -2.4504 -0.6014  1.7666
   72SLPC   C28 6298   4.906   2.245   9.838 -0.1858  0.0161  0.3076
   72SLPC   H8R 6299   5.010   2.262   9.872  0.7082 -2.9079 -0.7475
   72SLPC   H8S 6300   4.874   2.305   9.751  1.2967  0.3038 -0.0501
   72SLPC   C29 6301   4.905   2.100   9.801  0.1231 -0.1349  0.6648
   72SLPC   H9R 6302   4.926   2.035   9.887  0.9491 -0.3830  0.2851
   72SLPC  C210 6303   4.867   2.043   9.687  0.2639 -0.2601 -0.5298
   72SLPC  H10R 6304   4.877   1.934   9.674 -0.4223 -0.3355 -0.4606
   72SLPC  C211 6305   4.819   2.120   9.563  0.2967 -0.3439  0.4375
   72SLPC  H11R 6306   4.740   2.193   9.594 -0.7859 -0.4533 -1.9457
   72SLPC  H11S 6307   4.769   2.046   9.497  1.8224 -0.3454 -0.7347
   72SLPC  C212 6308   4.932   2.197   9.497  0.4496  0.9865 -0.3934
   72SLPC  H12R 6309   4.988   2.271   9.556  0.9159  0.3947 -0.0968
   72SLPC  C213 6310   4.967   2.185   9.366  0.0026  0.4688  0.0605
   72SLPC  H13R 6311   5.061   2.225   9.325 -0.4699  1.6431  0.1251
   72SLPC  C214 6312   4.899   2.092   9.271 -0.1974  0.5873  0.4022
   72SLPC  H14R 6313   4.789   2.083   9.288 -0.4911  1.8981 -0.6777
   72SLPC  H14S 6314   4.950   1.998   9.299 -0.0612  0.5409  0.0042
   72SLPC  C215 6315   4.930   2.129   9.126 -0.6592 -0.0195  0.7633
   72SLPC  H15R 6316   5.036   2.154   9.106 -0.9757 -0.3500 -1.4137
   72SLPC  H15S 6317   4.873   2.223   9.109  1.5034  1.2816  0.5548
   72SLPC  C216 6318   4.886   2.027   9.027  0.6414  0.3064  0.5321
   72SLPC  H16R 6319   4.786   1.996   9.065  0.4804 -1.4372 -1.1957
   72SLPC  H16S 6320   4.954   1.939   9.030 -1.4736 -1.4307 -0.6296
   72SLPC  C217 6321   4.852   2.074   8.886  0.2222  0.8037  0.6142
   72SLPC  H17R 6322   4.947   2.118   8.850  0.5765 -0.5633 -0.1589
   72SLPC  H17S 6323   4.769   2.147   8.878  2.1021  2.9978  0.5651
   72SLPC  C218 6324   4.814   1.936   8.818 -0.3145  0.2220 -0.7787
   72SLPC  H18R 6325   4.739   1.891   8.887 -0.6132  1.1306 -0.5033
   72SLPC  H18S 6326   4.905   1.873   8.829 -0.9644 -0.6400 -0.1556
   72SLPC  H18T 6327   4.775   1.937   8.714 -1.8458  1.3495 -0.2129
   72SLPC   C33 6328   4.173   2.204  10.017  0.0432  0.0934  0.3100
   72SLPC   H3X 6329   4.220   2.304  10.008  1.5976 -0.6911 -0.4645
   72SLPC   H3Y 6330   4.063   2.219  10.024  0.0653  0.1739  0.4897
   72SLPC   C34 6331   4.209   2.103   9.900  0.1036 -0.8513 -0.2431
   72SLPC   H4X 6332   4.180   1.996   9.911  2.1736 -1.3945  0.1951
   72SLPC   H4Y 6333   4.320   2.111   9.893  0.2311  0.2700  2.3976
   72SLPC   C35 6334   4.143   2.149   9.768  0.5878 -0.4613 -0.0082
   72SLPC   H5X 6335   4.119   2.256   9.788  2.2716 -0.0648 -0.0308
   72SLPC   H5Y 6336   4.051   2.087   9.761 -0.2666  0.8717 -0.8189
   72SLPC   C36 6337   4.213   2.114   9.628  0.2877  0.1029 -0.3275
   72SLPC   H6X 6338   4.144   2.109   9.542 -0.5583 -0.6512  0.3829
   72SLPC   H6Y 6339   4.254   2.012   9.641  2.3736  1.1257  1.5337
   72SLPC   C37 6340   4.325   2.208   9.584  0.2382 -0.0710 -0.5427
   72SLPC   H7X 6341   4.410   2.183   9.652 -0.5246  1.0038  0.8364
   72SLPC   H7Y 6342   4.297   2.314   9.599  3.1942  0.9273 -1.7311
   72SLPC   C38 6343   4.365   2.190   9.434  0.2037 -1.2003  0.5299
   72SLPC   H8X 6344   4.270   2.205   9.379  0.4753  1.1667  0.6427
   72SLPC   H8Y 6345   4.393   2.083   9.423 -1.7329 -1.4882 -1.9195
   72SLPC   C39 6346   4.482   2.279   9.388 -0.1666  0.1813  0.0791
   72SLPC   H9X 6347   4.570   2.266   9.454 -1.2302 -1.1141  1.2702
   72SLPC   H9Y 6348   4.455   2.386   9.402 -0.4170 -0.1031  1.8757
   72SLPC  C310 6349   4.551   2.247   9.250 -0.2557 -0.3245  0.0645
   72SLPC  H10X 6350   4.540   2.136   9.249 -2.2376 -0.1674  1.1968
   72SLPC  H10Y 6351   4.659   2.272   9.257 -0.7232  2.1550 -1.2888
   72SLPC  C311 6352   4.498   2.317   9.128  0.1101 -0.0071  0.5237
   72SLPC  H11X 6353   4.494   2.426   9.147 -0.7320 -0.3755  2.5852
   72SLPC  H11Y 6354   4.396   2.274   9.113  0.2354 -0.3488  0.6362
   72SLPC  C312 6355   4.567   2.301   8.994  0.1457 -0.1093 -0.3290
   72SLPC  H12X 6356   4.606   2.199   8.974 -0.2195 -0.0245 -1.4957
   72SLPC  H12Y 6357   4.650   2.374   8.993  0.7650 -0.6414  3.6852
   72SLPC  C313 6358   4.479   2.339   8.877 -0.2151  0.3134 -0.0713
   72SLPC  H13X 6359   4.418   2.431   8.896 -1.2901  0.2227 -2.8311
   72SLPC  H13Y 6360   4.397   2.265   8.866  0.0117  0.3661 -2.2905
   72SLPC  C314 6361   4.562   2.359   8.743 -0.2886 -0.5545  0.2646
   72SLPC  H14X 6362   4.484   2.392   8.670 -0.8483 -0.0446  1.0781
   72SLPC  H14Y 6363   4.613   2.270   8.701  0.7704  0.1613  0.0119
   72SLPC  C315 6364   4.687   2.456   8.742  0.1314 -0.4610 -0.1529
   72SLPC  H15X 6365   4.779   2.405   8.776 -0.8958 -1.1678  1.6346
   72SLPC  H15Y 6366   4.661   2.534   8.817 -0.0733 -2.6478  2.1099
   72SLPC  C316 6367   4.703   2.519   8.600  0.0909 -0.3322 -0.3996
   72SLPC  H16X 6368   4.603   2.561   8.577  0.4861 -1.1803 -3.8636
   72SLPC  H16Y 6369   4.724   2.439   8.525 -2.0690 -0.2459 -1.1288
   72SLPC  C317 6370   4.808   2.631   8.585  0.2815 -0.0310  0.4768
   72SLPC  H17X 6371   4.901   2.598   8.635  0.5846 -0.4257 -0.3472
   72SLPC  H17Y 6372   4.767   2.722   8.634 -2.3090 -0.6959 -0.3688
   72SLPC  C318 6373   4.821   2.656   8.440 -0.4473  0.6118  0.2392
   72SLPC  H18X 6374   4.865   2.752   8.404  1.7673 -0.6597 -0.5450
   72SLPC  H18Y 6375   4.718   2.666   8.401 -0.4827  3.9983  1.0617
   72SLPC  H18Z 6376   4.868   2.566   8.395 -1.8844  1.1069 -2.3025
   73SLPC     N 6377   4.805   0.153  10.957 -0.0750 -0.3731 -0.3591
   73SLPC   C13 6378   4.741   0.112  11.083  0.0770 -0.0380 -0.4472
   73SLPC  H13A 6379   4.670   0.034  11.058 -1.7847  1.4304  0.2145
   73SLPC  H13B 6380   4.818   0.073  11.148  1.2126  0.4149 -1.5049
   73SLPC  H13C 6381   4.682   0.187  11.132 -1.5345 -2.6594  1.8228
   73SLPC   C14 6382   4.896   0.045  10.900  0.6594  0.4470  0.7789
   73SLPC  H14A 6383   4.982   0.013  10.956  1.1791 -1.5164 -1.0594
   73SLPC  H14B 6384   4.826  -0.033  10.871  1.8540 -1.1043  1.9791
   73SLPC  H14C 6385   4.935   0.075  10.804 -0.5263  0.4360  0.2785
   73SLPC   C15 6386   4.888   0.270  10.995  0.2075 -0.1215 -0.3563
   73SLPC  H15A 6387   4.829   0.351  11.035  0.9852  0.8927 -1.2398
   73SLPC  H15B 6388   4.965   0.238  11.064  0.3660  0.6708 -0.1609
   73SLPC  H15C 6389   4.935   0.324  10.915 -0.8254  0.5071 -0.5506
   73SLPC   C12 6390   4.708   0.209  10.851  0.2229  0.1226  0.4799
   73SLPC  H12A 6391   4.653   0.127  10.808 -3.3646  2.8947 -0.5021
   73SLPC  H12B 6392   4.764   0.244  10.766 -0.4173 -0.3232 -0.1255
   73SLPC   C11 6393   4.607   0.321  10.893  0.8206 -0.1792 -0.4248
   73SLPC  H11A 6394   4.580   0.310  11.000  1.8572  0.5424 -0.0781
   73SLPC  H11B 6395   4.509   0.295  10.849 -0.6882 -1.1796  3.3138
   73SLPC     P 6396   4.572   0.584  10.857  0.1058  0.0245 -0.0711
   73SLPC   O13 6397   4.478   0.570  10.969  0.3026 -0.3419 -0.0598
   73SLPC   O14 6398   4.657   0.702  10.852 -0.3291 -0.1610 -0.3734
   73SLPC   O12 6399   4.659   0.450  10.856 -0.0472 -0.0687  0.2921
   73SLPC   O11 6400   4.494   0.567  10.720 -0.5919  0.6541  0.1388
   73SLPC    C1 6401   4.549   0.612  10.591 -0.1497  0.4709  0.4185
   73SLPC    HA 6402   4.509   0.713  10.566 -1.9726 -0.7689 -1.9441
   73SLPC    HB 6403   4.657   0.635  10.600 -0.2379  0.5573  1.3197
   73SLPC    C2 6404   4.520   0.525  10.467 -0.1386 -0.3661 -0.5018
   73SLPC    HS 6405   4.565   0.569  10.376 -0.5998  0.3317 -0.3977
   73SLPC   O21 6406   4.381   0.502  10.444  0.5085 -0.0321 -0.0960
   73SLPC   C21 6407   4.311   0.597  10.381  0.7468  0.5830 -0.0956
   73SLPC   O22 6408   4.370   0.693  10.334  0.0155 -0.2788  0.0804
   73SLPC   C22 6409   4.169   0.550  10.353 -0.1117  0.6273  0.2689
   73SLPC   H2R 6410   4.167   0.492  10.259 -2.2334  2.7910 -1.1030
   73SLPC   H2S 6411   4.130   0.485  10.434 -0.9947 -3.0360 -2.9571
   73SLPC    C3 6412   4.585   0.385  10.483 -0.1205  0.2216  0.8519
   73SLPC    HX 6413   4.527   0.326  10.558 -2.2372 -0.4548 -1.2299
   73SLPC    HY 6414   4.693   0.392  10.509 -0.4367  2.2364  1.6847
   73SLPC   O31 6415   4.580   0.309  10.354 -0.3189 -0.1415 -0.0879
   73SLPC   C31 6416   4.470   0.238  10.326  0.4378  0.4276  0.3092
   73SLPC   O32 6417   4.378   0.223  10.405 -0.7577 -0.0236 -0.0192
   73SLPC   C32 6418   4.475   0.200  10.176  0.3635  0.2127  0.2442
   73SLPC   H2X 6419   4.578   0.214  10.136  0.8161  1.6968  1.8588
   73SLPC   H2Y 6420   4.405   0.266  10.122 -1.0309 -2.0995 -0.8436
   73SLPC   C23 6421   4.069   0.658  10.329  0.5168  0.3554  0.3331
   73SLPC   H3R 6422   4.111   0.713  10.242  1.5556  0.0616  0.6311
   73SLPC   H3S 6423   4.082   0.727  10.415  2.8401 -2.0457  2.0059
   73SLPC   C24 6424   3.924   0.602  10.327  0.4118 -0.2299 -0.1844
   73SLPC   H4R 6425   3.852   0.685  10.311  1.6597  1.3486  2.0768
   73SLPC   H4S 6426   3.906   0.558  10.427  2.9126 -0.8911 -0.0109
   73SLPC   C25 6427   3.887   0.490  10.227  0.5287 -0.6087  0.2001
   73SLPC   H5R 6428   3.781   0.466  10.249 -0.2909  3.1906  0.8640
   73SLPC   H5S 6429   3.945   0.397  10.244 -0.2146 -1.4072 -1.6114
   73SLPC   C26 6430   3.905   0.537  10.082 -0.1934 -0.1228 -0.8122
   73SLPC   H6R 6431   4.000   0.594  10.072 -0.6960  0.7441 -0.7645
   73SLPC   H6S 6432   3.817   0.605  10.071  0.9415  1.8627  1.9610
   73SLPC   C27 6433   3.916   0.429   9.971  0.4466  0.4587  0.6856
   73SLPC   H7R 6434   3.880   0.335  10.018  0.5797 -0.9646 -1.9478
   73SLPC   H7S 6435   4.025   0.421   9.954  0.5995  1.3225  1.2486
   73SLPC   C28 6436   3.853   0.462   9.835  0.5198  0.9687  0.4678
   73SLPC   H8R 6437   3.858   0.380   9.759  1.5951 -0.8302  2.4292
   73SLPC   H8S 6438   3.911   0.547   9.793 -1.0303  2.2429  0.8648
   73SLPC   C29 6439   3.701   0.494   9.847  0.2196  0.3880  0.2057
   73SLPC   H9R 6440   3.635   0.410   9.874  1.2997 -0.6145 -0.2279
   73SLPC  C210 6441   3.641   0.618   9.850 -0.0676 -0.3144 -0.6585
   73SLPC  H10R 6442   3.532   0.629   9.841 -0.4134 -2.5861  0.5966
   73SLPC  C211 6443   3.702   0.755   9.838  0.1443 -0.4583  0.4941
   73SLPC  H11R 6444   3.813   0.748   9.848  0.1727 -1.3147 -0.3279
   73SLPC  H11S 6445   3.667   0.812   9.927  0.0708  2.5364 -1.3974
   73SLPC  C212 6446   3.666   0.838   9.722 -0.4209 -0.3756  0.3465
   73SLPC  H12R 6447   3.751   0.838   9.651  1.4204 -0.2781  2.5047
   73SLPC  C213 6448   3.563   0.917   9.704 -0.3782  0.5293 -0.0086
   73SLPC  H13R 6449   3.555   0.970   9.608  1.8497 -0.0350 -0.5284
   73SLPC  C214 6450   3.457   0.935   9.802  0.9730 -0.4657 -0.2085
   73SLPC  H14R 6451   3.455   0.861   9.886  0.2618 -0.7730 -0.4886
   73SLPC  H14S 6452   3.362   0.906   9.753 -0.4785  2.6183  0.6336
   73SLPC  C215 6453   3.450   1.085   9.846 -0.2625 -0.0722  0.7657
   73SLPC  H15R 6454   3.451   1.160   9.764 -2.0606  0.2092  0.9849
   73SLPC  H15S 6455   3.545   1.096   9.902 -0.8925  2.8603  1.3479
   73SLPC  C216 6456   3.340   1.115   9.948  0.2058  0.0697  0.3797
   73SLPC  H16R 6457   3.252   1.051   9.929  0.3030 -0.4581  1.6650
   73SLPC  H16S 6458   3.297   1.215   9.922 -1.9147 -1.2604 -1.4106
   73SLPC  C217 6459   3.360   1.114  10.104  0.6953 -0.1842  0.7375
   73SLPC  H17R 6460   3.434   1.194  10.126 -0.0468  0.3518  1.3073
   73SLPC  H17S 6461   3.415   1.020  10.127  0.7837 -0.6120 -1.1634
   73SLPC  C218 6462   3.237   1.142  10.189 -0.9977  0.4886  0.0020
   73SLPC  H18R 6463   3.204   1.244  10.160 -1.3665  0.3183 -0.1757
   73SLPC  H18S 6464   3.238   1.136  10.300  0.8233  0.9152  0.0265
   73SLPC  H18T 6465   3.163   1.069  10.152  0.1613 -1.1646  0.9102
   73SLPC   C33 6466   4.425   0.051  10.149 -0.5939 -0.1525 -0.3396
   73SLPC   H3X 6467   4.346   0.029  10.224 -1.3857  0.2891 -1.0263
   73SLPC   H3Y 6468   4.502  -0.024  10.175 -1.1659 -0.5373  0.2936
   73SLPC   C34 6469   4.379   0.029  10.007  0.2284  0.5996 -0.0215
   73SLPC   H4X 6470   4.303   0.107   9.984 -2.1916 -1.0795  1.9966
   73SLPC   H4Y 6471   4.326  -0.068   9.997  1.7093 -0.1981 -0.2991
   73SLPC   C35 6472   4.493   0.032   9.896  0.1536  0.0200 -0.7002
   73SLPC   H5X 6473   4.554  -0.061   9.905  1.2596  0.6269 -1.7852
   73SLPC   H5Y 6474   4.554   0.124   9.902 -1.4816  1.2102 -1.9449
   73SLPC   C36 6475   4.435   0.042   9.747 -0.1246 -0.6226  0.4516
   73SLPC   H6X 6476   4.383   0.140   9.737 -0.6347 -0.8479  0.8991
   73SLPC   H6Y 6477   4.353  -0.031   9.734 -1.1634  0.6039 -0.0521
   73SLPC   C37 6478   4.544   0.024   9.641  0.4045 -0.0820  0.3062
   73SLPC   H7X 6479   4.607  -0.066   9.656  0.7266  0.5211  2.8462
   73SLPC   H7Y 6480   4.611   0.112   9.653  0.0807  0.5367 -2.1816
   73SLPC   C38 6481   4.491   0.037   9.503  0.0241  0.0311  0.2517
   73SLPC   H8X 6482   4.411   0.115   9.497 -1.2453 -1.3699 -1.5700
   73SLPC   H8Y 6483   4.443  -0.060   9.482 -0.7191 -0.0125  2.0705
   73SLPC   C39 6484   4.602   0.059   9.399  0.8588  0.6089 -0.0708
   73SLPC   H9X 6485   4.704   0.038   9.439  0.7622  3.5229  1.8060
   73SLPC   H9Y 6486   4.603   0.170   9.388  0.7928  0.7001  0.8411
   73SLPC  C310 6487   4.581  -0.005   9.263  0.0706 -0.2857  0.7641
   73SLPC  H10X 6488   4.488   0.046   9.228  0.3374  0.3905  1.0470
   73SLPC  H10Y 6489   4.550  -0.111   9.277 -1.6179 -0.0007 -0.6390
   73SLPC  C311 6490   4.701   0.022   9.176 -0.1786 -0.3012  0.7142
   73SLPC  H11X 6491   4.796   0.024   9.234  0.0842 -0.3339  0.2898
   73SLPC  H11Y 6492   4.700   0.128   9.142  0.2579 -0.5544 -0.0975
   73SLPC  C312 6493   4.713  -0.057   9.049  0.4006 -0.2119  0.3535
   73SLPC  H12X 6494   4.606  -0.054   9.020 -0.0052 -1.4982  1.6509
   73SLPC  H12Y 6495   4.737  -0.164   9.068  0.2627  0.1222  2.5929
   73SLPC  C313 6496   4.813  -0.013   8.938 -0.3820  0.5251  0.1627
   73SLPC  H13X 6497   4.914  -0.029   8.982 -1.2412 -0.7384  1.7372
   73SLPC  H13Y 6498   4.789   0.091   8.910  0.2271  0.9425  1.1619
   73SLPC  C314 6499   4.799  -0.092   8.802  0.4186 -0.7339 -0.2882
   73SLPC  H14X 6500   4.693  -0.085   8.770  0.0599 -1.3765  0.7494
   73SLPC  H14Y 6501   4.826  -0.200   8.805  0.9152 -0.5815  1.1372
   73SLPC  C315 6502   4.879  -0.021   8.694  0.6860 -0.2428 -0.1505
   73SLPC  H15X 6503   4.985  -0.052   8.707 -0.2022 -2.7793  1.3823
   73SLPC  H15Y 6504   4.884   0.090   8.699 -0.1643 -0.2648  1.8670
   73SLPC  C316 6505   4.842  -0.076   8.553  0.5059 -0.1448 -0.8022
   73SLPC  H16X 6506   4.872  -0.182   8.537  0.6068  0.1817 -3.0157
   73SLPC  H16Y 6507   4.904  -0.016   8.482 -0.7857 -0.0090 -1.8259
   73SLPC  C317 6508   4.697  -0.084   8.516 -0.2289  0.5098 -0.2937
   73SLPC  H17X 6509   4.636   0.001   8.553  1.5989  0.8983  2.0206
   73SLPC  H17Y 6510   4.658  -0.170   8.574 -1.8273  1.1027 -0.4799
   73SLPC  C318 6511   4.665  -0.110   8.370 -0.1031 -0.2856 -0.1698
   73SLPC  H18X 6512   4.558  -0.130   8.345  0.3747 -1.9395 -0.9219
   73SLPC  H18Y 6513   4.708  -0.206   8.337  0.0610  0.2631 -1.6066
   73SLPC  H18Z 6514   4.706  -0.030   8.304  0.6621 -1.8639 -1.6531
   74SLPC     N 6515   5.149   2.186  10.810  0.0175  0.4479  0.1885
   74SLPC   C13 6516   5.054   2.218  10.923  0.1598  0.3334 -0.2457
   74SLPC  H13A 6517   4.959   2.213  10.872 -0.4188  1.5247  0.7061
   74SLPC  H13B 6518   5.065   2.140  10.998 -0.2107  1.0726  0.5866
   74SLPC  H13C 6519   5.072   2.318  10.960  3.2415  0.8270 -2.8691
   74SLPC   C14 6520   5.121   2.040  10.773 -0.4249 -0.3526  0.4683
   74SLPC  H14A 6521   5.187   2.002  10.696 -0.2319  1.9889 -0.5477
   74SLPC  H14B 6522   5.129   1.977  10.861 -2.6697 -0.4916  0.5857
   74SLPC  H14C 6523   5.021   2.031  10.733 -0.2350 -0.7079  0.0679
   74SLPC   C15 6524   5.285   2.195  10.865  0.6847 -0.2060 -0.0551
   74SLPC  H15A 6525   5.358   2.168  10.790 -0.1434  2.1649 -1.8036
   74SLPC  H15B 6526   5.309   2.297  10.894 -0.4395  0.2353 -0.6444
   74SLPC  H15C 6527   5.308   2.123  10.941 -0.2805 -1.5101 -0.9835
   74SLPC   C12 6528   5.132   2.275  10.685  0.9836  0.0067 -0.5155
   74SLPC  H12A 6529   5.148   2.377  10.714  0.1652 -0.3716  1.3267
   74SLPC  H12B 6530   5.027   2.265  10.660  0.3322  2.6009  1.0226
   74SLPC   C11 6531   5.225   2.249  10.561  0.0325 -0.4094  0.6294
   74SLPC  H11A 6532   5.199   2.309  10.471  3.6661 -1.0622 -0.8979
   74SLPC  H11B 6533   5.207   2.145  10.526 -0.5782  0.3301 -1.3006
   74SLPC     P 6534   5.429   2.402  10.583  0.2809 -0.1258  0.1227
   74SLPC   O13 6535   5.345   2.493  10.664  0.0449  0.5905  0.3342
   74SLPC   O14 6536   5.577   2.405  10.615  0.5786 -0.0866 -0.0704
   74SLPC   O12 6537   5.362   2.258  10.591 -0.2535 -0.4718 -0.2846
   74SLPC   O11 6538   5.403   2.437  10.425  0.0916  0.2116 -0.0712
   74SLPC    C1 6539   5.511   2.450  10.337  0.3599 -0.2235 -0.7264
   74SLPC    HA 6540   5.492   2.522  10.255 -0.4025 -1.3841 -1.5975
   74SLPC    HB 6541   5.602   2.487  10.388  0.9005 -1.4485 -0.7721
   74SLPC    C2 6542   5.555   2.318  10.277  0.5932  0.0475  0.0472
   74SLPC    HS 6543   5.582   2.242  10.353  3.2487  1.0154  0.1000
   74SLPC   O21 6544   5.664   2.339  10.181  0.0543  0.1263 -0.5708
   74SLPC   C21 6545   5.751   2.243  10.170  0.1793  1.0311 -0.0226
   74SLPC   O22 6546   5.747   2.137  10.234 -0.2177  0.3276 -0.1928
   74SLPC   C22 6547   5.840   2.272  10.050  0.1374 -0.1665 -0.0037
   74SLPC   H2R 6548   5.923   2.337  10.087  1.7072 -0.5531 -2.7125
   74SLPC   H2S 6549   5.873   2.170  10.020 -0.5760 -0.4952  0.3250
   74SLPC    C3 6550   5.432   2.258  10.204 -0.0011  0.1137  0.7993
   74SLPC    HX 6551   5.345   2.259  10.273 -1.0191 -2.0499 -0.3919
   74SLPC    HY 6552   5.455   2.149  10.193 -4.2584 -0.6210 -1.7188
   74SLPC   O31 6553   5.413   2.326  10.084  0.1380  0.5856 -0.8767
   74SLPC   C31 6554   5.284   2.318  10.044  0.8744  0.0788 -0.3235
   74SLPC   O32 6555   5.197   2.242  10.089 -0.0261 -0.3941 -0.3972
   74SLPC   C32 6556   5.276   2.405   9.919 -0.0864  0.0963 -0.1314
   74SLPC   H2X 6557   5.325   2.503   9.937  2.2528 -0.6133 -2.3192
   74SLPC   H2Y 6558   5.168   2.416   9.898 -0.3769 -3.5372 -0.9251
   74SLPC   C23 6559   5.757   2.338   9.936  0.3175 -0.1118  0.4767
   74SLPC   H3R 6560   5.715   2.438   9.959  0.5197 -0.2898  1.6837
   74SLPC   H3S 6561   5.664   2.278   9.927  0.7368 -0.9439  1.5626
   74SLPC   C24 6562   5.827   2.351   9.799 -1.3630 -0.3723  0.9361
   74SLPC   H4R 6563   5.765   2.420   9.737 -2.2259  0.5908  2.8133
   74SLPC   H4S 6564   5.807   2.263   9.735  0.1251  0.4005 -0.6119
   74SLPC   C25 6565   5.977   2.393   9.801 -0.3093  0.7949  0.4168
   74SLPC   H5R 6566   6.037   2.301   9.816 -0.1888  0.2490 -3.1115
   74SLPC   H5S 6567   5.990   2.466   9.884 -0.6938 -0.7847  1.9058
   74SLPC   C26 6568   6.015   2.444   9.661  0.3252 -0.1253  0.1840
   74SLPC   H6R 6569   6.121   2.474   9.670  0.2979 -0.1984  0.7889
   74SLPC   H6S 6570   5.966   2.540   9.634 -0.7977 -0.9057 -0.6067
   74SLPC   C27 6571   5.982   2.344   9.552 -0.7516  0.3101  0.5627
   74SLPC   H7R 6572   5.873   2.329   9.535 -0.2874 -0.2455 -2.1187
   74SLPC   H7S 6573   6.022   2.245   9.583 -0.0621  0.4530  0.1483
   74SLPC   C28 6574   6.045   2.384   9.419  0.3870  0.4426  0.6104
   74SLPC   H8R 6575   6.013   2.297   9.359 -0.4446 -0.4328  2.2766
   74SLPC   H8S 6576   6.156   2.382   9.426  0.3756 -0.3694  0.6469
   74SLPC   C29 6577   5.995   2.517   9.372 -0.1112  0.2892  0.2949
   74SLPC   H9R 6578   6.008   2.602   9.442 -1.0373  0.6769  0.0110
   74SLPC  C210 6579   5.931   2.531   9.253 -0.0839 -0.4270 -0.4641
   74SLPC  H10R 6580   5.900   2.632   9.225 -0.1641 -0.7519 -1.5820
   74SLPC  C211 6581   5.904   2.423   9.154  0.2694  0.3654 -0.5311
   74SLPC  H11R 6582   5.987   2.349   9.162 -1.2678 -1.3411 -0.0596
   74SLPC  H11S 6583   5.926   2.467   9.054  0.4690  1.9981  0.2108
   74SLPC  C212 6584   5.762   2.369   9.169 -0.7437  0.1390 -0.0524
   74SLPC  H12R 6585   5.738   2.318   9.263 -0.6002 -0.0800 -0.1359
   74SLPC  C213 6586   5.670   2.374   9.071  0.4318  0.5630  0.2378
   74SLPC  H13R 6587   5.572   2.332   9.099  0.2403  1.1515  0.4585
   74SLPC  C214 6588   5.681   2.426   8.933 -0.0818  0.3716  0.6346
   74SLPC  H14R 6589   5.729   2.525   8.943 -1.1722  0.8506  1.1320
   74SLPC  H14S 6590   5.577   2.441   8.897 -0.1066 -0.7917  0.2049
   74SLPC  C215 6591   5.768   2.330   8.843 -0.4052  0.2184 -0.2107
   74SLPC  H15R 6592   5.731   2.226   8.850  2.1434 -0.5908  1.8445
   74SLPC  H15S 6593   5.873   2.320   8.877 -0.8306  1.4102  1.5317
   74SLPC  C216 6594   5.757   2.376   8.701  0.0145 -0.1493 -0.1369
   74SLPC  H16R 6595   5.784   2.480   8.674  2.7956 -0.8511 -0.2361
   74SLPC  H16S 6596   5.649   2.370   8.675 -0.1765 -2.1457  0.9513
   74SLPC  C217 6597   5.819   2.275   8.600 -0.0929 -0.2134  0.6676
   74SLPC  H17R 6598   5.771   2.175   8.607 -0.3713  0.0508  2.9613
   74SLPC  H17S 6599   5.924   2.259   8.633  0.6301  1.8224 -0.5386
   74SLPC  C218 6600   5.812   2.321   8.452 -0.1225  0.4214 -0.4389
   74SLPC  H18R 6601   5.838   2.239   8.381 -0.0075  1.3239 -1.4498
   74SLPC  H18S 6602   5.890   2.399   8.442  0.3408  0.1338  0.7884
   74SLPC  H18T 6603   5.714   2.369   8.431  0.4898  1.2006 -1.5723
   74SLPC   C33 6604   5.349   2.341   9.795 -0.2476 -0.3118  0.0071
   74SLPC   H3X 6605   5.446   2.295   9.824 -0.6075  0.0625  1.8787
   74SLPC   H3Y 6606   5.373   2.432   9.737  1.0413 -0.9612 -0.4940
   74SLPC   C34 6607   5.284   2.236   9.715  0.2156 -0.4671 -0.4276
   74SLPC   H4X 6608   5.190   2.274   9.670 -0.6844 -0.5662  1.3165
   74SLPC   H4Y 6609   5.257   2.146   9.775  0.4465  0.0532  0.4730
   74SLPC   C35 6610   5.369   2.172   9.602 -0.5526 -0.1302 -0.1938
   74SLPC   H5X 6611   5.473   2.156   9.639 -0.7202  0.9189  0.7605
   74SLPC   H5Y 6612   5.372   2.261   9.535 -0.4701  0.6552  0.8330
   74SLPC   C36 6613   5.302   2.053   9.539 -0.3802  0.0733  0.2491
   74SLPC   H6X 6614   5.192   2.046   9.549 -0.4300 -2.0528 -1.4658
   74SLPC   H6Y 6615   5.334   1.958   9.588  1.3174  0.0968 -0.7681
   74SLPC   C37 6616   5.315   2.053   9.386  0.3251  0.1478 -0.0975
   74SLPC   H7X 6617   5.309   2.155   9.342  1.3230  0.1401 -0.2588
   74SLPC   H7Y 6618   5.231   1.990   9.349 -0.7504  0.2008  2.1851
   74SLPC   C38 6619   5.444   1.990   9.338 -0.0710 -0.4224 -0.3121
   74SLPC   H8X 6620   5.449   1.889   9.385 -1.2822 -1.2582 -1.9338
   74SLPC   H8Y 6621   5.529   2.049   9.379 -0.5417  0.1977 -0.2184
   74SLPC   C39 6622   5.460   1.981   9.184  0.6566  0.3914 -0.0669
   74SLPC   H9X 6623   5.558   1.939   9.153 -0.2931 -1.9595  0.0201
   74SLPC   H9Y 6624   5.456   2.088   9.155 -2.5878  0.1265 -0.8677
   74SLPC  C310 6625   5.348   1.896   9.108  1.0195 -0.2051  0.4045
   74SLPC  H10X 6626   5.245   1.935   9.117  0.2394 -1.7482 -1.6031
   74SLPC  H10Y 6627   5.348   1.791   9.144  0.3782  0.1191  1.3682
   74SLPC  C311 6628   5.375   1.895   8.950  0.0423 -0.1659 -0.7284
   74SLPC  H11X 6629   5.326   1.808   8.901 -0.0188  0.7076 -2.2499
   74SLPC  H11Y 6630   5.483   1.871   8.940  0.4345  1.1993  0.2118
   74SLPC  C312 6631   5.340   2.025   8.886 -0.6296  0.1370 -0.4966
   74SLPC  H12X 6632   5.398   2.105   8.937  0.9209 -1.1149 -0.2438
   74SLPC  H12Y 6633   5.235   2.055   8.907  0.1188  1.2723  1.7880
   74SLPC  C313 6634   5.367   2.024   8.738  0.3049 -0.5054  0.1141
   74SLPC  H13X 6635   5.310   2.113   8.703  3.3609  0.6369 -2.1830
   74SLPC  H13Y 6636   5.317   1.939   8.687  1.2383 -0.5358 -0.7666
   74SLPC  C314 6637   5.517   2.032   8.686 -0.0568  0.1270 -0.2401
   74SLPC  H14X 6638   5.566   1.938   8.720  1.9944  0.4171 -2.3092
   74SLPC  H14Y 6639   5.580   2.114   8.725  1.2950 -0.8211 -0.4001
   74SLPC  C315 6640   5.528   2.041   8.536 -0.1452 -0.5464 -0.2223
   74SLPC  H15X 6641   5.462   1.962   8.495  2.6737 -1.9664 -2.2221
   74SLPC  H15Y 6642   5.629   2.032   8.489 -0.1129 -1.5359  0.0127
   74SLPC  C316 6643   5.489   2.178   8.478  0.3050  0.6848 -1.0028
   74SLPC  H16X 6644   5.538   2.261   8.534  0.1472 -0.9416  1.6638
   74SLPC  H16Y 6645   5.380   2.195   8.492  0.4043  0.5820 -0.0954
   74SLPC  C317 6646   5.510   2.188   8.323 -0.6231  0.1396 -0.4742
   74SLPC  H17X 6647   5.450   2.103   8.285 -3.8226  1.8376  0.5657
   74SLPC  H17Y 6648   5.614   2.155   8.303 -0.0182  2.2990 -1.0487
   74SLPC  C318 6649   5.465   2.318   8.256  0.1224  0.8919  0.5437
   74SLPC  H18X 6650   5.522   2.412   8.274  0.6546  0.6810  0.0192
   74SLPC  H18Y 6651   5.357   2.338   8.269  0.1677  1.5661 -0.0503
   74SLPC  H18Z 6652   5.483   2.293   8.149  0.0588 -0.6965  0.8839
   75SLPC     N 6653   2.712   4.886   6.502  0.2112 -0.2011 -0.3041
   75SLPC   C13 6654   2.716   5.011   6.431  0.3768  0.1349 -0.2554
   75SLPC  H13A 6655   2.661   5.013   6.339  2.0846  0.6205 -1.2862
   75SLPC  H13B 6656   2.676   5.092   6.490  0.9559  0.8014 -0.7727
   75SLPC  H13C 6657   2.818   5.044   6.417  0.2813  0.2547 -0.6762
   75SLPC   C14 6658   2.569   4.849   6.495 -0.0108  0.5113 -0.1710
   75SLPC  H14A 6659   2.556   4.778   6.575 -1.2338 -0.7122 -1.4197
   75SLPC  H14B 6660   2.505   4.933   6.520 -0.9480 -0.0402 -0.6753
   75SLPC  H14C 6661   2.544   4.808   6.398  2.6675 -0.8764 -0.3263
   75SLPC   C15 6662   2.744   4.930   6.641  0.1598 -0.0955  0.1173
   75SLPC  H15A 6663   2.843   4.973   6.641 -0.2832  0.9658  0.7819
   75SLPC  H15B 6664   2.684   5.009   6.684 -1.8722 -1.7194  0.3612
   75SLPC  H15C 6665   2.749   4.847   6.709 -0.2475  0.3412  0.6872
   75SLPC   C12 6666   2.810   4.781   6.457 -0.2333 -0.3465  0.1976
   75SLPC  H12A 6667   2.800   4.776   6.350 -2.7654  1.2555  0.3220
   75SLPC  H12B 6668   2.781   4.683   6.493  0.3874 -0.1919  1.1369
   75SLPC   C11 6669   2.963   4.813   6.491  0.3776 -0.3686  0.3455
   75SLPC  H11A 6670   3.028   4.732   6.451  1.2279  0.4492  0.0550
   75SLPC  H11B 6671   2.982   4.816   6.600 -1.5540  2.4460  0.6470
   75SLPC     P 6672   3.148   4.995   6.489  0.3551  0.1497  0.1110
   75SLPC   O13 6673   3.261   4.923   6.430 -0.0475  0.9080 -0.4296
   75SLPC   O14 6674   3.142   5.142   6.456  0.6258  0.1622 -0.2701
   75SLPC   O12 6675   3.019   4.937   6.436  0.1433 -0.3365  0.0828
   75SLPC   O11 6676   3.146   4.981   6.643 -0.0222 -0.3349  0.2958
   75SLPC    C1 6677   3.269   5.001   6.711  0.2895  0.4331 -0.3021
   75SLPC    HA 6678   3.361   4.980   6.652  0.6592 -0.8022  0.6988
   75SLPC    HB 6679   3.276   5.106   6.748  0.4198  0.0893  0.6523
   75SLPC    C2 6680   3.267   4.905   6.833  0.5597  0.2819 -1.1152
   75SLPC    HS 6681   3.176   4.929   6.892  0.6390  1.8889 -1.5977
   75SLPC   O21 6682   3.391   4.932   6.899  0.6675 -0.9629 -0.4351
   75SLPC   C21 6683   3.384   4.907   7.032  0.8142  0.3971  0.5911
   75SLPC   O22 6684   3.292   4.855   7.090 -0.2207 -0.0784 -0.5726
   75SLPC   C22 6685   3.505   4.963   7.105 -0.0082  0.4344  0.5122
   75SLPC   H2R 6686   3.587   4.896   7.070 -0.7412 -0.4819  0.5128
   75SLPC   H2S 6687   3.531   5.064   7.066 -1.9079  1.2115  1.2034
   75SLPC    C3 6688   3.266   4.755   6.777  0.4082 -0.3079  0.8629
   75SLPC    HX 6689   3.369   4.734   6.741  0.6939  2.5318 -0.1132
   75SLPC    HY 6690   3.212   4.754   6.680  0.5833 -0.0758  0.7624
   75SLPC   O31 6691   3.239   4.653   6.873  0.2786  0.2120  0.1816
   75SLPC   C31 6692   3.110   4.652   6.912 -0.7283  0.7351  0.3726
   75SLPC   O32 6693   3.025   4.727   6.870  0.0933 -0.5124  1.0194
   75SLPC   C32 6694   3.082   4.542   7.023 -0.0445 -0.0599  0.3188
   75SLPC   H2X 6695   3.130   4.587   7.113  0.4095 -0.0124  0.0565
   75SLPC   H2Y 6696   3.126   4.443   6.996  0.5881  0.9741 -2.5550
   75SLPC   C23 6697   3.491   4.977   7.262  0.2514  0.2137  0.5353
   75SLPC   H3R 6698   3.483   4.877   7.309 -1.7220  0.7923  1.5000
   75SLPC   H3S 6699   3.393   5.028   7.272 -0.7410 -1.5775  0.2732
   75SLPC   C24 6700   3.608   5.046   7.330 -0.6731 -0.5760  0.8353
   75SLPC   H4R 6701   3.645   5.125   7.262 -3.3122 -1.3108 -1.5648
   75SLPC   H4S 6702   3.694   4.978   7.351 -0.0289 -0.4701 -1.3258
   75SLPC   C25 6703   3.563   5.128   7.458 -0.8385 -0.2820  0.8017
   75SLPC   H5R 6704   3.476   5.196   7.445 -0.1414  0.2237 -1.3620
   75SLPC   H5S 6705   3.653   5.187   7.481  0.0182 -1.5209  0.6775
   75SLPC   C26 6706   3.517   5.039   7.579  0.2103  0.4828 -0.3000
   75SLPC   H6R 6707   3.592   4.964   7.612 -0.1202  0.4322  0.3465
   75SLPC   H6S 6708   3.417   4.998   7.557  1.3840 -2.0921 -1.0224
   75SLPC   C27 6709   3.510   5.131   7.701 -0.0513 -0.6324  0.5117
   75SLPC   H7R 6710   3.429   5.204   7.678 -0.0886 -1.3777 -1.8548
   75SLPC   H7S 6711   3.607   5.184   7.708  0.5718 -1.5851 -0.8022
   75SLPC   C28 6712   3.481   5.066   7.838 -1.1733  0.1803  0.0721
   75SLPC   H8R 6713   3.549   4.978   7.842  0.8274  1.7310  0.9019
   75SLPC   H8S 6714   3.375   5.034   7.845 -0.4426 -2.2587  0.4957
   75SLPC   C29 6715   3.524   5.159   7.950  0.2325  0.2531  0.1595
   75SLPC   H9R 6716   3.575   5.248   7.911 -0.3590  0.0801 -1.0441
   75SLPC  C210 6717   3.485   5.150   8.080  1.1818 -0.7132 -0.4215
   75SLPC  H10R 6718   3.523   5.224   8.151 -0.0779  0.4598 -0.9329
   75SLPC  C211 6719   3.402   5.039   8.138  0.1495 -0.4351 -0.7063
   75SLPC  H11R 6720   3.377   4.961   8.064  0.2957 -1.1409 -0.0124
   75SLPC  H11S 6721   3.305   5.076   8.178  1.3317 -0.1718  2.0663
   75SLPC  C212 6722   3.474   4.973   8.258 -0.6790 -0.0178 -0.3879
   75SLPC  H12R 6723   3.467   5.018   8.358 -1.6827 -0.9005 -0.0532
   75SLPC  C213 6724   3.556   4.869   8.249  0.2515  0.2911  0.7176
   75SLPC  H13R 6725   3.616   4.836   8.335 -0.0794  0.7211  1.1108
   75SLPC  C214 6726   3.583   4.789   8.122  0.0845 -0.5711  0.1442
   75SLPC  H14R 6727   3.497   4.780   8.052 -1.2184  0.3312  1.5919
   75SLPC  H14S 6728   3.594   4.681   8.145  2.2059 -1.0850 -3.0097
   75SLPC  C215 6729   3.708   4.834   8.044 -0.2571  0.2517 -0.5505
   75SLPC  H15R 6730   3.804   4.815   8.098 -0.0567  3.1871  0.2055
   75SLPC  H15S 6731   3.697   4.942   8.020 -0.5416  0.0180 -1.5267
   75SLPC  C216 6732   3.718   4.756   7.909  0.2015  0.4276  0.0801
   75SLPC  H16R 6733   3.624   4.774   7.852 -0.6478  0.5162  1.4697
   75SLPC  H16S 6734   3.727   4.647   7.929  0.4513  0.3359 -0.5271
   75SLPC  C217 6735   3.835   4.813   7.827 -0.0480 -0.2617 -1.2805
   75SLPC  H17R 6736   3.931   4.786   7.876 -1.3530 -2.5531  0.1085
   75SLPC  H17S 6737   3.822   4.923   7.836  0.8414 -0.2908  0.4756
   75SLPC  C218 6738   3.828   4.781   7.682 -0.0430  0.0509  0.1423
   75SLPC  H18R 6739   3.893   4.847   7.620  0.3994  0.3563  0.9275
   75SLPC  H18S 6740   3.728   4.784   7.634  0.5708  2.2663 -1.0469
   75SLPC  H18T 6741   3.878   4.683   7.670 -0.2497  0.3206 -3.4380
   75SLPC   C33 6742   2.932   4.533   7.047  0.7662  0.9222  0.1641
   75SLPC   H3X 6743   2.886   4.630   7.077 -1.2952  1.0622 -3.1850
   75SLPC   H3Y 6744   2.885   4.499   6.952 -0.6824 -2.4115  1.9704
   75SLPC   C34 6745   2.894   4.420   7.140 -0.5175  0.1553 -0.0713
   75SLPC   H4X 6746   2.927   4.321   7.102 -1.5401  0.3823 -1.5871
   75SLPC   H4Y 6747   2.783   4.418   7.147 -0.4121 -3.1047  1.3943
   75SLPC   C35 6748   2.955   4.436   7.283  0.6360 -0.1416  0.3062
   75SLPC   H5X 6749   2.918   4.537   7.310  3.8058  1.1388 -0.0241
   75SLPC   H5Y 6750   3.066   4.440   7.279  0.6739 -0.3794  1.0367
   75SLPC   C36 6751   2.907   4.328   7.384  0.1317 -0.2368 -0.0284
   75SLPC   H6X 6752   2.939   4.225   7.356 -0.3385 -0.0063 -1.4123
   75SLPC   H6Y 6753   2.797   4.338   7.390  0.1665  0.4421 -0.5208
   75SLPC   C37 6754   2.942   4.354   7.533 -0.9904 -0.0381 -0.2576
   75SLPC   H7X 6755   2.890   4.446   7.565  0.4648  0.4579  0.7675
   75SLPC   H7Y 6756   3.050   4.376   7.551 -1.1951  1.0432 -0.3304
   75SLPC   C38 6757   2.898   4.234   7.620 -0.1214  0.3312  0.1738
   75SLPC   H8X 6758   2.958   4.144   7.597  1.2700  1.3869 -0.4018
   75SLPC   H8Y 6759   2.794   4.219   7.584 -0.4486  0.5442  1.0187
   75SLPC   C39 6760   2.915   4.255   7.769  0.3223 -0.4389  0.1524
   75SLPC   H9X 6761   2.844   4.339   7.784 -0.7382 -1.1320 -0.9291
   75SLPC   H9Y 6762   3.012   4.296   7.806 -0.4434  0.1273  1.5734
   75SLPC  C310 6763   2.888   4.122   7.845  0.1352 -0.9632 -0.2285
   75SLPC  H10X 6764   2.957   4.037   7.827 -2.4167 -3.2152  0.2695
   75SLPC  H10Y 6765   2.793   4.084   7.802  0.3358 -2.2903  0.4806
   75SLPC  C311 6766   2.846   4.148   7.995 -0.2016  0.0160 -0.1011
   75SLPC  H11X 6767   2.746   4.197   7.989 -1.1044 -1.2351  3.4492
   75SLPC  H11Y 6768   2.932   4.206   8.035 -0.1386  0.7237 -1.2670
   75SLPC  C312 6769   2.847   4.022   8.084  0.5023 -0.2912  0.5890
   75SLPC  H12X 6770   2.932   3.958   8.051 -0.4598 -1.5765  0.5984
   75SLPC  H12Y 6771   2.752   3.969   8.062 -0.9577  1.4661  2.4987
   75SLPC  C313 6772   2.836   4.059   8.236 -0.1471 -0.5404  0.0483
   75SLPC  H13X 6773   2.738   4.110   8.247 -1.1999 -2.2803 -1.0288
   75SLPC  H13Y 6774   2.917   4.133   8.254 -0.3438 -0.2539 -0.2407
   75SLPC  C314 6775   2.857   3.937   8.329  0.3364 -0.2536 -0.2084
   75SLPC  H14X 6776   2.957   3.889   8.321 -1.0690 -3.5520  1.1764
   75SLPC  H14Y 6777   2.780   3.867   8.292  1.0690 -0.5195 -1.2473
   75SLPC  C315 6778   2.841   3.955   8.481  0.3028 -0.3513  0.6537
   75SLPC  H15X 6779   2.903   4.042   8.510 -1.2407  0.4138  1.7483
   75SLPC  H15Y 6780   2.887   3.867   8.529 -2.1527 -2.3888 -0.6007
   75SLPC  C316 6781   2.693   3.973   8.524  0.3764  0.0917 -0.5446
   75SLPC  H16X 6782   2.655   3.871   8.550 -0.4286  0.3019 -0.8812
   75SLPC  H16Y 6783   2.633   4.023   8.444 -1.1569  0.6379  0.9266
   75SLPC  C317 6784   2.676   4.065   8.644  0.1756 -0.3820  0.1442
   75SLPC  H17X 6785   2.575   4.113   8.643 -0.7777 -2.2626  2.1264
   75SLPC  H17Y 6786   2.757   4.141   8.646  0.9326 -1.1962  0.7152
   75SLPC  C318 6787   2.696   3.991   8.780 -0.0170  0.0781 -0.3805
   75SLPC  H18X 6788   2.780   3.919   8.770  0.5565  0.3333  2.3127
   75SLPC  H18Y 6789   2.602   3.942   8.813  0.9612  0.6999  3.6239
   75SLPC  H18Z 6790   2.714   4.070   8.856  0.5372 -0.5777  0.1787
   76SLPC     N 6791   4.573   3.323   6.034  0.1779  0.0648 -0.0435
   76SLPC   C13 6792   4.475   3.366   6.138 -0.2249 -0.0197 -0.1465
   76SLPC  H13A 6793   4.376   3.337   6.108 -0.1913  1.0856 -1.3368
   76SLPC  H13B 6794   4.504   3.315   6.229  1.1969 -1.9458 -1.6430
   76SLPC  H13C 6795   4.470   3.473   6.156 -0.6731 -0.0835  0.1150
   76SLPC   C14 6796   4.540   3.405   5.912 -0.0971  0.0839 -0.0916
   76SLPC  H14A 6797   4.602   3.378   5.828  0.4727  1.3978 -0.1097
   76SLPC  H14B 6798   4.435   3.396   5.889 -0.1102  2.2768 -1.0423
   76SLPC  H14C 6799   4.553   3.511   5.931 -0.4667  0.4693 -1.9445
   76SLPC   C15 6800   4.555   3.174   6.006  0.1129  0.7735  0.4282
   76SLPC  H15A 6801   4.450   3.150   6.001  0.6089 -1.1069 -3.3196
   76SLPC  H15B 6802   4.591   3.146   5.908 -0.1051 -1.2979  0.8970
   76SLPC  H15C 6803   4.598   3.111   6.083  0.2225  0.3770  0.0515
   76SLPC   C12 6804   4.714   3.358   6.071 -0.7630  0.1255 -0.3041
   76SLPC  H12A 6805   4.726   3.465   6.077 -2.0552  0.2884 -0.6356
   76SLPC  H12B 6806   4.777   3.328   5.988 -0.3581  1.3581 -0.4517
   76SLPC   C11 6807   4.769   3.287   6.193 -0.9346  0.2836 -0.4311
   76SLPC  H11A 6808   4.686   3.273   6.266 -1.2847 -0.1635 -0.9121
   76SLPC  H11B 6809   4.854   3.344   6.236 -1.4103  1.8470 -1.5204
   76SLPC     P 6810   4.799   3.030   6.243 -0.0076 -0.0971  0.9168
   76SLPC   O13 6811   4.659   2.983   6.230 -0.3951  0.8025 -0.7836
   76SLPC   O14 6812   4.898   2.926   6.221 -0.3015 -0.3586 -0.1309
   76SLPC   O12 6813   4.821   3.162   6.160  0.1887 -0.2544  0.9701
   76SLPC   O11 6814   4.820   3.085   6.389 -0.0551 -0.8113  0.0786
   76SLPC    C1 6815   4.946   3.136   6.433  0.5434 -0.4772 -0.1080
   76SLPC    HA 6816   5.020   3.055   6.417  1.1565 -0.6314  3.3008
   76SLPC    HB 6817   4.978   3.215   6.362  1.5929 -0.0947  0.7739
   76SLPC    C2 6818   4.952   3.184   6.577 -0.4783 -0.2897 -0.3599
   76SLPC    HS 6819   5.050   3.231   6.599  0.3986 -2.5636  0.7559
   76SLPC   O21 6820   4.921   3.078   6.670 -0.2009  0.3952  0.0383
   76SLPC   C21 6821   5.026   2.994   6.691 -0.2815  0.0777 -0.1058
   76SLPC   O22 6822   5.130   2.992   6.631 -0.6050  0.8873 -0.0822
   76SLPC   C22 6823   5.006   2.907   6.814 -0.1112  0.4023  0.4011
   76SLPC   H2R 6824   4.898   2.913   6.838 -0.4715  1.9507 -1.4281
   76SLPC   H2S 6825   5.030   2.807   6.772  0.3354  1.6010 -2.3455
   76SLPC    C3 6826   4.848   3.297   6.580 -0.6211 -0.3953 -0.1382
   76SLPC    HX 6827   4.750   3.249   6.560  0.9547 -2.7468 -2.3486
   76SLPC    HY 6828   4.863   3.373   6.500 -0.7545  0.4030  0.5741
   76SLPC   O31 6829   4.835   3.372   6.706  0.8910 -0.4060  0.6468
   76SLPC   C31 6830   4.911   3.478   6.717 -1.0044  0.4727 -1.2906
   76SLPC   O32 6831   4.997   3.507   6.630 -0.7404  0.5674 -0.7451
   76SLPC   C32 6832   4.910   3.540   6.851 -0.4550 -0.2138  1.1907
   76SLPC   H2X 6833   4.805   3.538   6.888 -0.8647 -2.5032  0.0296
   76SLPC   H2Y 6834   4.929   3.649   6.847 -2.1104  0.1735  2.9417
   76SLPC   C23 6835   5.095   2.945   6.941  0.0328  0.4756  0.3914
   76SLPC   H3R 6836   5.053   2.879   7.020  0.8573 -2.2473 -1.3893
   76SLPC   H3S 6837   5.078   3.049   6.977  0.4971  0.8718 -0.5345
   76SLPC   C24 6838   5.249   2.921   6.937 -0.0382  0.6616  0.4464
   76SLPC   H4R 6839   5.311   2.989   6.874 -0.6284  1.3448  0.6007
   76SLPC   H4S 6840   5.278   2.818   6.908 -1.1624  0.7725 -1.1092
   76SLPC   C25 6841   5.300   2.939   7.079  0.1711  0.5654  0.0709
   76SLPC   H5R 6842   5.238   2.877   7.148  1.0581  0.8005  1.1031
   76SLPC   H5S 6843   5.303   3.046   7.108 -0.3094  1.2081 -2.2145
   76SLPC   C26 6844   5.447   2.903   7.092 -0.4822  0.6573 -0.4949
   76SLPC   H6R 6845   5.507   2.942   7.007  1.1015 -1.4154 -0.3593
   76SLPC   H6S 6846   5.445   2.793   7.074  1.2474  0.4866  0.2866
   76SLPC   C27 6847   5.506   2.941   7.225  0.2248 -0.5518 -0.2255
   76SLPC   H7R 6848   5.437   2.905   7.305 -0.0324 -0.3421 -0.3535
   76SLPC   H7S 6849   5.502   3.051   7.243 -1.1943 -0.3915 -1.4000
   76SLPC   C28 6850   5.654   2.895   7.240  0.1980  0.9560 -0.2958
   76SLPC   H8R 6851   5.639   2.785   7.245 -0.0874  1.0944  2.5153
   76SLPC   H8S 6852   5.707   2.933   7.149 -1.3197  1.8628 -0.8164
   76SLPC   C29 6853   5.724   2.936   7.366 -0.0858  0.4164 -0.6976
   76SLPC   H9R 6854   5.684   2.889   7.456  4.0124 -1.6873  0.1570
   76SLPC  C210 6855   5.824   3.026   7.380  0.2164  0.5619  0.2373
   76SLPC  H10R 6856   5.848   3.060   7.482  2.5135  2.5244 -0.9121
   76SLPC  C211 6857   5.888   3.102   7.261 -0.0827  0.1736  0.5166
   76SLPC  H11R 6858   5.881   3.034   7.174 -0.5569 -1.2804  1.6627
   76SLPC  H11S 6859   5.994   3.117   7.291  0.3077  1.3062 -1.3888
   76SLPC  C212 6860   5.814   3.232   7.239 -0.7386 -0.2709  0.6127
   76SLPC  H12R 6861   5.777   3.289   7.325  0.5944  2.8515 -0.7900
   76SLPC  C213 6862   5.794   3.285   7.117  0.3884  0.2754  0.2084
   76SLPC  H13R 6863   5.750   3.385   7.114  0.4483  0.2944  0.0092
   76SLPC  C214 6864   5.833   3.226   6.981 -0.1769  0.3111  0.1843
   76SLPC  H14R 6865   5.873   3.124   6.995 -0.0959  0.5794  1.9522
   76SLPC  H14S 6866   5.914   3.282   6.929 -0.3899  0.1072 -0.3686
   76SLPC  C215 6867   5.713   3.217   6.893 -0.6080 -0.7808 -0.6060
   76SLPC  H15R 6868   5.646   3.154   6.956  0.8436 -3.5469 -1.7188
   76SLPC  H15S 6869   5.736   3.155   6.803  0.2503 -1.3573 -0.0038
   76SLPC  C216 6870   5.654   3.355   6.859  0.1326 -0.7194  0.4008
   76SLPC  H16R 6871   5.735   3.414   6.811  0.9840 -1.2862  1.1334
   76SLPC  H16S 6872   5.623   3.406   6.953 -1.3079  0.1120 -0.4981
   76SLPC  C217 6873   5.545   3.357   6.754  0.6489 -0.5537 -0.0349
   76SLPC  H17R 6874   5.476   3.278   6.792 -1.6948  1.6192  0.3542
   76SLPC  H17S 6875   5.578   3.325   6.653 -0.5131 -0.4487 -0.4543
   76SLPC  C218 6876   5.492   3.498   6.728  0.3504  0.6211  0.2018
   76SLPC  H18R 6877   5.573   3.556   6.680 -0.2979  1.6363  0.3162
   76SLPC  H18S 6878   5.469   3.545   6.826  2.0143  2.0887 -0.0825
   76SLPC  H18T 6879   5.398   3.485   6.669 -0.1209  0.3872  0.9977
   76SLPC   C33 6880   4.997   3.470   6.955  0.1031  0.0002 -0.2499
   76SLPC   H3X 6881   4.953   3.370   6.979 -0.9560 -0.1592 -2.7276
   76SLPC   H3Y 6882   4.992   3.533   7.047  0.4027  0.4194 -0.5238
   76SLPC   C34 6883   5.141   3.445   6.913  0.3142  0.0919 -0.2070
   76SLPC   H4X 6884   5.176   3.540   6.867  0.0496  0.1973 -0.1891
   76SLPC   H4Y 6885   5.143   3.358   6.844  2.0534 -2.8090  3.3265
   76SLPC   C35 6886   5.222   3.417   7.039 -0.2754 -0.4393 -0.4608
   76SLPC   H5X 6887   5.322   3.379   7.009  0.4617  0.4983  0.7587
   76SLPC   H5Y 6888   5.178   3.335   7.100 -1.0967  1.0194  0.9380
   76SLPC   C36 6889   5.247   3.536   7.132  0.6389 -0.6124  0.1520
   76SLPC   H6X 6890   5.162   3.602   7.159  0.0769 -1.9946  1.9043
   76SLPC   H6Y 6891   5.313   3.601   7.071 -2.3544  1.9043 -0.5448
   76SLPC   C37 6892   5.309   3.491   7.265  0.1197 -0.1686  0.5358
   76SLPC   H7X 6893   5.235   3.421   7.309  0.2722 -2.2363 -2.4160
   76SLPC   H7Y 6894   5.316   3.577   7.335 -3.5707  1.0956 -0.5245
   76SLPC   C38 6895   5.450   3.436   7.263 -0.8388 -0.0868  0.7920
   76SLPC   H8X 6896   5.513   3.502   7.199 -2.1337 -0.2587 -0.6921
   76SLPC   H8Y 6897   5.449   3.335   7.215 -1.9031  0.2064  0.1751
   76SLPC   C39 6898   5.520   3.441   7.399  0.5886  0.4806 -0.5785
   76SLPC   H9X 6899   5.519   3.546   7.436 -0.4471 -0.0611  0.9467
   76SLPC   H9Y 6900   5.626   3.413   7.382  0.7700  0.3850  0.6519
   76SLPC  C310 6901   5.465   3.359   7.515 -0.8399 -0.2086 -0.0756
   76SLPC  H10X 6902   5.490   3.251   7.502  2.4720  0.7309 -2.0996
   76SLPC  H10Y 6903   5.355   3.377   7.513 -1.0101 -0.7933  2.6894
   76SLPC  C311 6904   5.524   3.411   7.652  0.3040 -0.0361 -0.5721
   76SLPC  H11X 6905   5.517   3.522   7.656 -2.1236 -0.1724 -0.0582
   76SLPC  H11Y 6906   5.626   3.373   7.674 -0.8852 -2.0529  1.8376
   76SLPC  C312 6907   5.447   3.369   7.777 -0.1570 -0.3064 -0.6953
   76SLPC  H12X 6908   5.445   3.258   7.786 -0.2891 -0.1992  0.7835
   76SLPC  H12Y 6909   5.342   3.397   7.753 -0.3326  0.4150  0.8633
   76SLPC  C313 6910   5.495   3.426   7.918 -0.2667 -0.7037  0.9866
   76SLPC  H13X 6911   5.504   3.535   7.899  2.0953 -1.0810 -0.2084
   76SLPC  H13Y 6912   5.594   3.388   7.952 -0.2047 -0.4713  1.0632
   76SLPC  C314 6913   5.391   3.386   8.021 -0.0911  0.4698 -0.4125
   76SLPC  H14X 6914   5.374   3.276   8.025 -0.4346  0.4772 -1.4212
   76SLPC  H14Y 6915   5.299   3.435   7.981  0.5988  0.0942 -2.5654
   76SLPC  C315 6916   5.419   3.430   8.159  0.5566 -0.4092 -0.2197
   76SLPC  H15X 6917   5.442   3.539   8.152 -0.5367 -0.2096 -0.8250
   76SLPC  H15Y 6918   5.505   3.376   8.204 -0.6088 -1.5619  0.6168
   76SLPC  C316 6919   5.305   3.410   8.253  0.8730  0.0622  0.1729
   76SLPC  H16X 6920   5.277   3.302   8.253 -0.0697  0.3071  0.4306
   76SLPC  H16Y 6921   5.222   3.461   8.199  0.9375  0.3372  0.3335
   76SLPC  C317 6922   5.323   3.457   8.400 -0.0871  0.9045  0.2824
   76SLPC  H17X 6923   5.417   3.406   8.430 -0.0031 -0.1644 -1.7276
   76SLPC  H17Y 6924   5.238   3.415   8.459 -1.2556  4.0023  0.9019
   76SLPC  C318 6925   5.328   3.611   8.414  0.1240  1.2841  0.2959
   76SLPC  H18X 6926   5.239   3.666   8.376  1.2939  1.5445 -2.1635
   76SLPC  H18Y 6927   5.421   3.645   8.365  0.0079 -1.3106 -1.8527
   76SLPC  H18Z 6928   5.345   3.642   8.519  2.6808 -0.5283  0.4601
   77SLPC     N 6929   0.483   2.780   6.380 -0.3509  0.7212  0.1342
   77SLPC   C13 6930   0.590   2.710   6.293  0.2874  0.3228 -0.3225
   77SLPC  H13A 6931   0.640   2.782   6.230 -1.1509  2.4679  0.9043
   77SLPC  H13B 6932   0.672   2.677   6.354 -0.1443  1.3525  0.8324
   77SLPC  H13C 6933   0.543   2.634   6.232 -0.2560 -1.5008  2.2941
   77SLPC   C14 6934   0.383   2.858   6.299 -0.5176 -0.0526  0.5099
   77SLPC  H14A 6935   0.428   2.928   6.230 -0.2584  0.1646  0.8993
   77SLPC  H14B 6936   0.313   2.796   6.246 -2.7589  3.0280 -0.2994
   77SLPC  H14C 6937   0.318   2.917   6.362  0.5216  0.6488  0.9383
   77SLPC   C15 6938   0.558   2.870   6.472 -0.5854 -0.0163 -0.3022
   77SLPC  H15A 6939   0.482   2.918   6.531  0.2516  0.9143  0.0411
   77SLPC  H15B 6940   0.620   2.799   6.524  1.0098  0.4704 -1.5006
   77SLPC  H15C 6941   0.617   2.948   6.425 -1.1040  1.6529  1.7311
   77SLPC   C12 6942   0.413   2.680   6.474  0.6541 -0.4201  0.1112
   77SLPC  H12A 6943   0.355   2.739   6.544  0.7951  3.2357 -2.7235
   77SLPC  H12B 6944   0.490   2.622   6.524  1.3078 -0.1808 -0.6236
   77SLPC   C11 6945   0.313   2.580   6.409 -0.4183  0.6117 -0.1303
   77SLPC  H11A 6946   0.241   2.646   6.357  1.4685  2.7613 -0.0685
   77SLPC  H11B 6947   0.264   2.522   6.491 -0.6969 -0.2397 -0.8818
   77SLPC     P 6948   0.454   2.359   6.364  0.0297  0.0401 -0.1116
   77SLPC   O13 6949   0.345   2.260   6.396  0.1267  0.1084  0.3381
   77SLPC   O14 6950   0.540   2.334   6.251  0.7737 -0.7783  0.5125
   77SLPC   O12 6951   0.389   2.493   6.329  0.1422 -0.1265  0.4044
   77SLPC   O11 6952   0.544   2.395   6.494  0.3484 -0.3390  0.2343
   77SLPC    C1 6953   0.689   2.415   6.493  0.1937 -0.6069 -0.4220
   77SLPC    HA 6954   0.745   2.320   6.479 -0.0822 -1.2849  2.8403
   77SLPC    HB 6955   0.708   2.488   6.411 -2.7280  1.4341  0.6314
   77SLPC    C2 6956   0.734   2.471   6.634  0.1635  0.7473  0.7222
   77SLPC    HS 6957   0.709   2.388   6.703  1.2379  0.9313  1.3294
   77SLPC   O21 6958   0.662   2.593   6.654 -0.4127 -0.2120 -0.1265
   77SLPC   C21 6959   0.643   2.626   6.779 -0.2064 -0.3739  1.0276
   77SLPC   O22 6960   0.655   2.545   6.871 -0.1395  0.0660  0.0935
   77SLPC   C22 6961   0.595   2.762   6.788  0.1901 -0.2488  0.3808
   77SLPC   H2R 6962   0.674   2.825   6.742 -0.4022  0.1896 -0.0392
   77SLPC   H2S 6963   0.495   2.763   6.740  0.7614  0.0102 -0.8139
   77SLPC    C3 6964   0.885   2.501   6.635  0.0138 -0.3925 -0.3884
   77SLPC    HX 6965   0.915   2.570   6.553  0.5088  0.3480  0.3994
   77SLPC    HY 6966   0.933   2.404   6.615  0.0263 -0.4714  0.0260
   77SLPC   O31 6967   0.930   2.557   6.767  0.4353 -0.0664  0.2458
   77SLPC   C31 6968   1.064   2.562   6.768  0.5968 -0.2174  0.0750
   77SLPC   O32 6969   1.135   2.524   6.680  0.1353  0.5040  0.3779
   77SLPC   C32 6970   1.115   2.609   6.905 -0.2278 -0.0205  0.0023
   77SLPC   H2X 6971   1.045   2.564   6.980 -1.0902  3.1013  1.1726
   77SLPC   H2Y 6972   1.109   2.720   6.916 -0.3300 -0.0061 -0.2081
   77SLPC   C23 6973   0.572   2.806   6.936  0.8826  0.0499  0.7760
   77SLPC   H3R 6974   0.526   2.724   6.995  2.8290 -2.0820 -0.5864
   77SLPC   H3S 6975   0.502   2.892   6.931  0.1047 -0.6727 -1.8396
   77SLPC   C24 6976   0.703   2.851   7.000  0.1486  0.0598  0.2358
   77SLPC   H4R 6977   0.765   2.902   6.923 -0.9614 -1.0668 -1.4413
   77SLPC   H4S 6978   0.769   2.771   7.038  0.7300  0.7089  0.6063
   77SLPC   C25 6979   0.679   2.952   7.120 -0.3567  0.3873 -0.1750
   77SLPC   H5R 6980   0.604   2.911   7.191 -1.4188  0.6912 -1.0932
   77SLPC   H5S 6981   0.639   3.045   7.074  0.1772 -0.2803 -2.0363
   77SLPC   C26 6982   0.808   2.987   7.184  0.4166  0.0804  0.1082
   77SLPC   H6R 6983   0.793   3.076   7.249 -0.1781 -0.8758  1.2766
   77SLPC   H6S 6984   0.888   3.011   7.110 -0.3498 -1.4730 -1.2439
   77SLPC   C27 6985   0.853   2.890   7.292  0.0753  0.2519 -0.6062
   77SLPC   H7R 6986   0.850   2.785   7.256 -3.0819 -0.4209  1.3838
   77SLPC   H7S 6987   0.775   2.885   7.371  0.7633  1.9264  0.1949
   77SLPC   C28 6988   0.992   2.921   7.351 -0.0446  0.1680 -0.8875
   77SLPC   H8R 6989   0.999   2.883   7.455 -1.3710 -1.3109 -1.3258
   77SLPC   H8S 6990   0.997   3.032   7.354  0.8695  0.1541 -1.6110
   77SLPC   C29 6991   1.112   2.879   7.271 -0.2191  0.2895  0.1425
   77SLPC   H9R 6992   1.089   2.889   7.164  1.2357  0.7129 -0.1436
   77SLPC  C210 6993   1.227   2.818   7.315 -0.5837  0.4481  0.0943
   77SLPC  H10R 6994   1.316   2.788   7.258 -0.3178  2.2993 -0.5103
   77SLPC  C211 6995   1.255   2.786   7.462 -0.2829 -0.0020 -1.0616
   77SLPC  H11R 6996   1.172   2.811   7.532  0.5630 -0.6503  0.2001
   77SLPC  H11S 6997   1.331   2.863   7.488  0.7223 -0.9804 -1.0967
   77SLPC  C212 6998   1.295   2.639   7.488  0.0365  0.6483  0.3087
   77SLPC  H12R 6999   1.304   2.569   7.404  1.6342 -0.9970  1.8063
   77SLPC  C213 7000   1.296   2.583   7.615  0.2558 -0.2239 -0.1251
   77SLPC  H13R 7001   1.309   2.474   7.614 -3.2934 -0.7060 -0.5863
   77SLPC  C214 7002   1.266   2.650   7.753 -0.6450 -0.4015 -0.7390
   77SLPC  H14R 7003   1.184   2.602   7.810  0.8929 -0.5296  1.4073
   77SLPC  H14S 7004   1.227   2.752   7.731 -2.1982 -1.2781 -2.2314
   77SLPC  C215 7005   1.385   2.655   7.845 -0.6379  0.2306  0.2276
   77SLPC  H15R 7006   1.484   2.658   7.796 -0.2084 -1.6565  0.9406
   77SLPC  H15S 7007   1.385   2.569   7.915  2.8927 -1.6292 -1.9479
   77SLPC  C216 7008   1.381   2.766   7.949 -0.1477 -0.8675 -0.2024
   77SLPC  H16R 7009   1.285   2.752   8.003  0.5381 -2.9647  0.5237
   77SLPC  H16S 7010   1.399   2.860   7.893  1.0490 -1.2184 -0.4134
   77SLPC  C217 7011   1.494   2.767   8.055 -0.8264 -0.6684 -0.7460
   77SLPC  H17R 7012   1.501   2.673   8.114 -1.5222 -0.7294 -0.7572
   77SLPC  H17S 7013   1.480   2.862   8.111  1.5854 -2.1830  2.5611
   77SLPC  C218 7014   1.633   2.773   7.993  0.4279  0.5011 -0.2840
   77SLPC  H18R 7015   1.652   2.685   7.928  0.4466 -0.8201  1.4433
   77SLPC  H18S 7016   1.712   2.789   8.070  3.0822  1.5748 -3.1410
   77SLPC  H18T 7017   1.633   2.860   7.925  2.4708  0.3000 -0.5720
   77SLPC   C33 7018   1.265   2.574   6.937 -0.0581 -0.0007 -0.2072
   77SLPC   H3X 7019   1.292   2.617   7.036  0.2599 -1.1548  0.2154
   77SLPC   H3Y 7020   1.333   2.609   6.856 -0.8471  0.3273 -0.7307
   77SLPC   C34 7021   1.289   2.427   6.955  0.3727  0.2629 -0.4718
   77SLPC   H4X 7022   1.296   2.379   6.855  3.7252  1.8518 -1.0894
   77SLPC   H4Y 7023   1.200   2.387   7.008  1.3944  0.2320  1.2455
   77SLPC   C35 7024   1.389   2.398   7.068 -1.3755 -0.0483  0.1420
   77SLPC   H5X 7025   1.341   2.414   7.167 -1.3984  0.0427  0.1156
   77SLPC   H5Y 7026   1.483   2.456   7.056 -1.6327 -0.0154 -1.7706
   77SLPC   C36 7027   1.440   2.249   7.077  1.1516  0.3427 -0.2790
   77SLPC   H6X 7028   1.534   2.225   7.024  2.5761 -0.0219  2.3370
   77SLPC   H6Y 7029   1.369   2.179   7.028 -0.1972  0.8548  0.9019
   77SLPC   C37 7030   1.465   2.208   7.231  0.1659  0.2577  1.5127
   77SLPC   H7X 7031   1.516   2.288   7.288  1.1821  0.0730  0.8774
   77SLPC   H7Y 7032   1.526   2.115   7.236 -1.8848 -1.1208  1.8166
   77SLPC   C38 7033   1.329   2.161   7.294  0.1587 -0.3210  0.3215
   77SLPC   H8X 7034   1.264   2.093   7.235  2.0480 -0.3496 -1.7999
   77SLPC   H8Y 7035   1.262   2.248   7.305  0.1643 -0.3597  0.6558
   77SLPC   C39 7036   1.340   2.090   7.430  0.1766  1.2260 -0.2640
   77SLPC   H9X 7037   1.379   1.987   7.416  0.0770  1.3881 -1.8522
   77SLPC   H9Y 7038   1.239   2.069   7.471  1.4322 -1.6636  1.4972
   77SLPC  C310 7039   1.426   2.173   7.522 -0.4280  0.2668 -0.5507
   77SLPC  H10X 7040   1.398   2.280   7.504 -2.1394 -0.2121 -0.8334
   77SLPC  H10Y 7041   1.532   2.168   7.488 -0.8898 -1.1292 -1.8124
   77SLPC  C311 7042   1.412   2.140   7.677 -0.1069  0.8987  0.0920
   77SLPC  H11X 7043   1.438   2.033   7.694 -2.4181  0.6378  2.2135
   77SLPC  H11Y 7044   1.304   2.134   7.705  1.0093  0.4731  4.6668
   77SLPC  C312 7045   1.517   2.222   7.758  0.3747  0.6560 -0.6739
   77SLPC  H12X 7046   1.474   2.325   7.755 -1.5218 -0.1087 -0.7805
   77SLPC  H12Y 7047   1.611   2.213   7.700 -0.1240  2.9286 -1.8848
   77SLPC  C313 7048   1.538   2.155   7.895  0.1651  0.1979  0.4403
   77SLPC  H13X 7049   1.577   2.051   7.886  0.2482  0.2128  0.6199
   77SLPC  H13Y 7050   1.442   2.138   7.948  0.2877  0.3830  0.7185
   77SLPC  C314 7051   1.627   2.233   7.989 -0.3752 -1.0010 -0.1997
   77SLPC  H14X 7052   1.725   2.256   7.941  0.2457  1.0320  1.9066
   77SLPC  H14Y 7053   1.660   2.166   8.071 -0.5813 -2.2729 -1.1567
   77SLPC  C315 7054   1.583   2.365   8.061  0.1815 -0.4573  0.0877
   77SLPC  H15X 7055   1.497   2.354   8.131  0.7303  1.5818  1.1233
   77SLPC  H15Y 7056   1.550   2.431   7.977  0.0832 -2.2951 -1.3517
   77SLPC  C316 7057   1.686   2.431   8.146 -0.3688  0.7248 -0.3282
   77SLPC  H16X 7058   1.651   2.526   8.192  2.2706  1.5081  0.1406
   77SLPC  H16Y 7059   1.775   2.434   8.078  1.2765 -0.8941  1.6795
   77SLPC  C317 7060   1.710   2.354   8.277 -0.1651 -0.3603 -0.1449
   77SLPC  H17X 7061   1.759   2.256   8.261 -0.1213 -0.9172  3.0689
   77SLPC  H17Y 7062   1.610   2.341   8.323 -0.3194 -0.0790 -0.3965
   77SLPC  C318 7063   1.816   2.415   8.369 -0.2371 -0.0909 -0.2354
   77SLPC  H18X 7064   1.784   2.514   8.410  2.3862  0.5918  0.2742
   77SLPC  H18Y 7065   1.914   2.417   8.318 -0.0071  1.6990  0.2532
   77SLPC  H18Z 7066   1.822   2.352   8.460  0.1715 -0.3898 -0.4677
   78SLPC     N 7067   3.658   3.939   6.092  0.0174 -0.1889 -0.0372
   78SLPC   C13 7068   3.632   4.089   6.079 -0.1671  0.1031  0.6773
   78SLPC  H13A 7069   3.676   4.150   6.156  1.6857 -0.1132 -0.1965
   78SLPC  H13B 7070   3.686   4.123   5.992  0.4958 -2.4043  0.0659
   78SLPC  H13C 7071   3.527   4.114   6.071 -0.1059  0.7700  1.7731
   78SLPC   C14 7072   3.804   3.900   6.103  0.5860 -0.5875 -0.0029
   78SLPC  H14A 7073   3.845   3.954   6.186 -2.8882  0.5623  1.0840
   78SLPC  H14B 7074   3.801   3.793   6.118  1.9709 -0.1676  3.6218
   78SLPC  H14C 7075   3.856   3.935   6.015 -2.9750  1.2553 -1.5010
   78SLPC   C15 7076   3.603   3.867   5.969  0.7621 -0.4295 -0.3038
   78SLPC  H15A 7077   3.497   3.888   5.961  0.4817 -1.7608 -0.1095
   78SLPC  H15B 7078   3.646   3.904   5.877 -1.2457  1.7975 -0.4257
   78SLPC  H15C 7079   3.620   3.762   5.983  0.8953 -0.3103  0.4541
   78SLPC   C12 7080   3.588   3.884   6.216  0.2630 -0.0574  0.3843
   78SLPC  H12A 7081   3.616   3.957   6.290 -2.0705 -0.1925  1.4382
   78SLPC  H12B 7082   3.623   3.784   6.241 -0.4162 -0.5074 -0.4451
   78SLPC   C11 7083   3.434   3.888   6.220 -0.2364 -1.0608  0.3818
   78SLPC  H11A 7084   3.407   3.832   6.312  0.0646 -2.4664 -0.3666
   78SLPC  H11B 7085   3.408   3.828   6.130 -1.1737 -1.5582  0.9708
   78SLPC     P 7086   3.224   4.030   6.159 -0.0685 -0.2563  0.3954
   78SLPC   O13 7087   3.235   4.146   6.068 -0.3349 -0.5471 -0.2699
   78SLPC   O14 7088   3.169   3.899   6.107 -0.8003  0.6217 -0.3958
   78SLPC   O12 7089   3.367   4.018   6.218  0.3282 -0.5789 -0.7454
   78SLPC   O11 7090   3.141   4.061   6.292 -0.2116  0.4200  0.3084
   78SLPC    C1 7091   3.192   4.141   6.395 -0.1940 -0.2185  0.0685
   78SLPC    HA 7092   3.277   4.203   6.358  1.0080 -0.5259  2.2166
   78SLPC    HB 7093   3.124   4.222   6.428  0.4275  0.4013 -0.1556
   78SLPC    C2 7094   3.236   4.059   6.526 -0.7230  0.2438  0.4031
   78SLPC    HS 7095   3.209   4.124   6.611 -1.4295 -0.0001  0.3686
   78SLPC   O21 7096   3.372   4.019   6.523 -0.2199  0.5679  0.2391
   78SLPC   C21 7097   3.459   4.116   6.548  0.2580 -0.4344 -0.8747
   78SLPC   O22 7098   3.423   4.231   6.571  0.0891  0.2463 -0.5245
   78SLPC   C22 7099   3.605   4.079   6.539 -0.3410 -0.4648  0.4694
   78SLPC   H2R 7100   3.611   3.976   6.498  0.3630  0.0045 -0.6352
   78SLPC   H2S 7101   3.649   4.143   6.459  0.8033 -2.6345 -0.7145
   78SLPC    C3 7102   3.144   3.939   6.533 -0.9006 -0.5249 -0.3462
   78SLPC    HX 7103   3.158   3.873   6.445 -1.0942  0.0400 -0.7993
   78SLPC    HY 7104   3.037   3.966   6.527 -0.4845  2.5376  3.7247
   78SLPC   O31 7105   3.156   3.863   6.664 -0.3470  0.4735  0.2559
   78SLPC   C31 7106   3.239   3.756   6.653 -0.0651  0.1790  0.4312
   78SLPC   O32 7107   3.278   3.708   6.551 -0.5425  0.1500 -0.4429
   78SLPC   C32 7108   3.290   3.711   6.802  0.2682 -0.3950  0.0759
   78SLPC   H2X 7109   3.385   3.768   6.814  0.6354 -0.4472 -2.4274
   78SLPC   H2Y 7110   3.305   3.601   6.797 -1.3866 -0.6084 -0.6582
   78SLPC   C23 7111   3.664   4.087   6.679  0.8602 -0.4234 -0.5629
   78SLPC   H3R 7112   3.653   4.183   6.734 -0.4685 -0.2393 -1.1315
   78SLPC   H3S 7113   3.771   4.056   6.679  0.8970 -0.4896  3.2355
   78SLPC   C24 7114   3.604   3.983   6.773  0.1388 -0.9320  0.2026
   78SLPC   H4R 7115   3.601   3.890   6.712  1.4448  0.7932 -2.6178
   78SLPC   H4S 7116   3.498   4.012   6.790 -0.0141 -0.0573 -2.0282
   78SLPC   C25 7117   3.689   3.967   6.902  0.0141 -0.7265 -0.0878
   78SLPC   H5R 7118   3.690   4.060   6.962 -1.5459  0.3837 -1.7515
   78SLPC   H5S 7119   3.788   3.947   6.857 -0.7205  0.8257 -2.4624
   78SLPC   C26 7120   3.658   3.847   6.997  0.4740  0.7491  0.7368
   78SLPC   H6R 7121   3.743   3.776   6.994 -1.6754 -2.1305  4.2169
   78SLPC   H6S 7122   3.573   3.794   6.948  2.2853 -0.0507 -1.6316
   78SLPC   C27 7123   3.594   3.876   7.135 -0.5412 -0.0436  0.5959
   78SLPC   H7R 7124   3.554   3.784   7.182 -1.2101  0.6528  1.4034
   78SLPC   H7S 7125   3.519   3.955   7.115  1.1986  1.1388 -1.4132
   78SLPC   C28 7126   3.700   3.934   7.229  0.4301  0.2449  0.4706
   78SLPC   H8R 7127   3.755   4.020   7.184  0.3416  0.3668  0.5965
   78SLPC   H8S 7128   3.779   3.856   7.223 -1.0689 -1.1487 -2.2532
   78SLPC   C29 7129   3.669   3.985   7.368 -0.2976 -0.0522  0.2607
   78SLPC   H9R 7130   3.618   4.082   7.376 -0.8704 -0.2781 -0.5448
   78SLPC  C210 7131   3.696   3.915   7.477 -0.1361 -1.1198 -1.1948
   78SLPC  H10R 7132   3.658   3.947   7.575 -0.0203  1.1184 -1.8354
   78SLPC  C211 7133   3.763   3.783   7.468 -0.5735  0.5093  0.0522
   78SLPC  H11R 7134   3.729   3.712   7.390  1.1656  0.5483 -0.7547
   78SLPC  H11S 7135   3.734   3.730   7.561 -2.5819  1.5502  0.0463
   78SLPC  C212 7136   3.911   3.802   7.464 -0.0462 -0.1223 -0.3442
   78SLPC  H12R 7137   3.951   3.839   7.369 -2.1190  0.7055 -0.9089
   78SLPC  C213 7138   3.995   3.792   7.566  0.4741  0.3155 -0.2081
   78SLPC  H13R 7139   4.103   3.789   7.548  0.5612  0.6329  0.2433
   78SLPC  C214 7140   3.963   3.765   7.710  0.1407  0.8442 -0.2860
   78SLPC  H14R 7141   3.855   3.746   7.725  0.8211 -2.4816  0.8123
   78SLPC  H14S 7142   3.992   3.849   7.776 -0.8752 -0.5748  2.0429
   78SLPC  C215 7143   4.031   3.628   7.734  0.2820 -0.0638  0.1236
   78SLPC  H15R 7144   4.141   3.646   7.728  0.4403  0.0990  2.8253
   78SLPC  H15S 7145   4.002   3.564   7.648 -0.1279  1.9014 -1.2346
   78SLPC  C216 7146   4.008   3.568   7.873  0.3152  0.3133 -0.4673
   78SLPC  H16R 7147   3.899   3.569   7.893  0.6751 -1.4402  1.7265
   78SLPC  H16S 7148   4.052   3.640   7.946 -0.6078  1.2184 -0.7888
   78SLPC  C217 7149   4.070   3.436   7.896  0.1821  0.4518  0.1824
   78SLPC  H17R 7150   4.036   3.365   7.818  2.0649 -0.3373  0.0708
   78SLPC  H17S 7151   4.028   3.384   7.984  1.6202  0.8140  1.1036
   78SLPC  C218 7152   4.223   3.436   7.910 -0.4608 -0.3734 -0.4925
   78SLPC  H18R 7153   4.261   3.341   7.953 -0.0392 -0.3997 -0.9097
   78SLPC  H18S 7154   4.255   3.532   7.957  1.3163 -1.8226  1.3193
   78SLPC  H18T 7155   4.259   3.435   7.804 -1.5646 -0.7666 -0.8652
   78SLPC   C33 7156   3.190   3.739   6.917  0.4751 -0.5693 -0.7434
   78SLPC   H3X 7157   3.089   3.695   6.905 -0.5348  1.5058 -0.1863
   78SLPC   H3Y 7158   3.179   3.848   6.938 -0.9601 -0.4201 -2.1426
   78SLPC   C34 7159   3.256   3.682   7.044  0.0091 -0.6597 -0.0669
   78SLPC   H4X 7160   3.366   3.697   7.046  0.1469 -1.5727 -0.3297
   78SLPC   H4Y 7161   3.247   3.573   7.062  0.3897 -0.5604  0.7482
   78SLPC   C35 7162   3.182   3.724   7.168  0.7296 -0.3414 -0.1557
   78SLPC   H5X 7163   3.073   3.701   7.169  0.2312  1.8534  1.7353
   78SLPC   H5Y 7164   3.184   3.835   7.159 -0.6074 -0.5249 -3.2906
   78SLPC   C36 7165   3.234   3.665   7.296 -0.4700 -0.6457 -0.1024
   78SLPC   H6X 7166   3.330   3.717   7.320 -0.2815 -0.5577 -1.0300
   78SLPC   H6Y 7167   3.247   3.557   7.276  0.7729  0.0425 -3.2925
   78SLPC   C37 7168   3.132   3.682   7.405 -0.8960  0.1856 -0.1144
   78SLPC   H7X 7169   3.034   3.639   7.376 -0.8348 -0.5247  0.7037
   78SLPC   H7Y 7170   3.107   3.786   7.436 -0.1086 -0.5072  3.0107
   78SLPC   C38 7171   3.168   3.609   7.541 -0.2688  0.6744  0.1276
   78SLPC   H8X 7172   3.272   3.623   7.577  0.1972 -2.0495 -0.0064
   78SLPC   H8Y 7173   3.158   3.501   7.516  0.6566  0.8874 -1.2202
   78SLPC   C39 7174   3.070   3.637   7.655 -0.0088 -0.1323 -1.1316
   78SLPC   H9X 7175   2.979   3.577   7.635 -0.2432 -0.3054  0.4323
   78SLPC   H9Y 7176   3.056   3.747   7.665  0.1843  0.0091 -2.3543
   78SLPC  C310 7177   3.139   3.578   7.786 -0.0564 -0.8334 -0.4814
   78SLPC  H10X 7178   3.244   3.614   7.794 -0.6227  0.7358  0.0005
   78SLPC  H10Y 7179   3.135   3.469   7.763 -2.8791 -0.9960  0.6398
   78SLPC  C311 7180   3.058   3.593   7.918  0.3192  0.0735 -0.2753
   78SLPC  H11X 7181   2.960   3.541   7.907 -0.6126  2.1820 -2.3285
   78SLPC  H11Y 7182   3.029   3.699   7.930 -2.3599 -0.6645  0.2046
   78SLPC  C312 7183   3.139   3.551   8.038 -0.0167  0.1887  0.3215
   78SLPC  H12X 7184   3.240   3.598   8.031  0.4872 -0.9838 -0.4890
   78SLPC  H12Y 7185   3.156   3.442   8.026  0.8179  0.3539 -0.0439
   78SLPC  C313 7186   3.077   3.582   8.172  0.2844 -0.4333  0.0912
   78SLPC  H13X 7187   3.033   3.684   8.170  0.0175 -0.5590 -0.6217
   78SLPC  H13Y 7188   3.148   3.571   8.256 -0.4621  0.7071  0.9013
   78SLPC  C314 7189   2.953   3.492   8.205 -0.3190  0.2762 -0.0168
   78SLPC  H14X 7190   2.964   3.389   8.166  1.1172  0.8316 -1.1188
   78SLPC  H14Y 7191   2.865   3.538   8.155  2.2323  2.1511 -2.9372
   78SLPC  C315 7192   2.924   3.462   8.356  0.6318  0.1679  0.1788
   78SLPC  H15X 7193   2.913   3.556   8.414 -1.2240  0.6387 -0.9007
   78SLPC  H15Y 7194   3.016   3.418   8.401 -0.5916 -0.9939  1.6055
   78SLPC  C316 7195   2.812   3.359   8.384 -0.5309  0.1242 -0.4306
   78SLPC  H16X 7196   2.827   3.325   8.489 -1.4870 -1.0012 -0.6409
   78SLPC  H16Y 7197   2.825   3.262   8.331  1.5106  0.8422 -1.2779
   78SLPC  C317 7198   2.671   3.422   8.374  0.5378  0.4815  0.2628
   78SLPC  H17X 7199   2.649   3.446   8.267  0.4312  3.4728  0.9150
   78SLPC  H17Y 7200   2.669   3.514   8.436 -1.1987  0.5219  0.1733
   78SLPC  C318 7201   2.562   3.333   8.417  0.3979 -0.6032 -0.1496
   78SLPC  H18X 7202   2.556   3.255   8.338 -1.4842 -0.6779  0.0505
   78SLPC  H18Y 7203   2.469   3.393   8.432 -1.0870 -2.0185 -3.1564
   78SLPC  H18Z 7204   2.597   3.288   8.512 -0.4787  0.4949  0.7138
   79SLPC     N 7205   0.793   5.658   6.524 -0.0623  0.7308 -0.3151
   79SLPC   C13 7206   0.915   5.569   6.528  1.2311  0.5789  0.1329
   79SLPC  H13A 7207   0.961   5.568   6.431  0.2788  0.5655 -0.3205
   79SLPC  H13B 7208   0.990   5.612   6.593  1.0148 -0.0078  0.7738
   79SLPC  H13C 7209   0.890   5.466   6.547  2.9601 -0.1234 -1.2893
   79SLPC   C14 7210   0.724   5.654   6.651 -0.7520  0.6148 -0.5595
   79SLPC  H14A 7211   0.696   5.551   6.668 -0.5315  0.7924  0.9411
   79SLPC  H14B 7212   0.791   5.680   6.731 -1.9444 -0.0470  0.6644
   79SLPC  H14C 7213   0.647   5.730   6.654  0.3867  1.8672 -2.3509
   79SLPC   C15 7214   0.701   5.604   6.424 -0.1184  0.3280  0.2159
   79SLPC  H15A 7215   0.737   5.606   6.322 -0.3043 -0.3207  0.1370
   79SLPC  H15B 7216   0.679   5.500   6.442 -1.2878  0.6042  0.4137
   79SLPC  H15C 7217   0.612   5.665   6.425 -0.3351  0.0363 -0.8399
   79SLPC   C12 7218   0.825   5.797   6.481  0.1315  0.8269 -0.9812
   79SLPC  H12A 7219   0.894   5.837   6.554 -2.4880  0.5859  1.7240
   79SLPC  H12B 7220   0.732   5.851   6.487 -0.7822 -0.7816 -0.1707
   79SLPC   C11 7221   0.876   5.808   6.330 -0.6909 -0.1789  0.3047
   79SLPC  H11A 7222   0.895   5.914   6.304 -0.3396 -0.9997 -3.0398
   79SLPC  H11B 7223   0.795   5.770   6.264  0.6381 -2.5719 -0.0017
   79SLPC     P 7224   1.139   5.786   6.343  0.0142 -0.2113 -0.2890
   79SLPC   O13 7225   1.236   5.678   6.321 -0.0500 -0.4797  0.2062
   79SLPC   O14 7226   1.166   5.911   6.264  0.4211  0.3799  0.8536
   79SLPC   O12 7227   0.995   5.728   6.297 -0.2073  0.2842 -0.2854
   79SLPC   O11 7228   1.129   5.817   6.494  0.8669  0.6621  0.2150
   79SLPC    C1 7229   1.165   5.950   6.545 -0.7182  0.3581  0.2564
   79SLPC    HA 7230   1.267   5.977   6.513 -0.2489 -0.2362  1.2172
   79SLPC    HB 7231   1.095   6.030   6.513  0.6183  1.6080  0.4077
   79SLPC    C2 7232   1.163   5.932   6.703  0.1328  0.5762 -1.3696
   79SLPC    HS 7233   1.242   5.997   6.746 -0.0433  0.5256 -0.9649
   79SLPC   O21 7234   1.190   5.796   6.743 -0.4018 -0.0991 -0.1729
   79SLPC   C21 7235   1.302   5.735   6.712 -0.5138 -0.7891  0.2533
   79SLPC   O22 7236   1.415   5.785   6.684  0.1625  0.5656 -0.2808
   79SLPC   C22 7237   1.271   5.581   6.719 -0.1731  0.5230 -0.3503
   79SLPC   H2R 7238   1.208   5.539   6.638  0.2456 -0.0194 -0.3985
   79SLPC   H2S 7239   1.372   5.540   6.700 -0.0608  0.6387  0.0036
   79SLPC    C3 7240   1.030   5.979   6.761  0.3508  0.4096  0.4787
   79SLPC    HX 7241   0.942   5.927   6.716  0.8580 -0.2644  0.2626
   79SLPC    HY 7242   1.000   6.083   6.736 -2.3414 -0.8040 -1.6025
   79SLPC   O31 7243   1.021   5.948   6.901  0.1094  0.1187  0.0594
   79SLPC   C31 7244   0.974   5.830   6.941  0.1926 -0.1246  0.2661
   79SLPC   O32 7245   0.907   5.752   6.875  0.3809  0.0886 -0.0139
   79SLPC   C32 7246   1.015   5.810   7.087  0.7835 -0.3675  0.4886
   79SLPC   H2X 7247   0.985   5.907   7.133  1.0787  0.3010 -0.7262
   79SLPC   H2Y 7248   1.124   5.795   7.100  0.6886  0.9718  3.2810
   79SLPC   C23 7249   1.222   5.536   6.858  0.8572  0.2068 -0.5142
   79SLPC   H3R 7250   1.174   5.438   6.835 -0.0315  0.5709 -0.2198
   79SLPC   H3S 7251   1.148   5.608   6.898  1.9270  0.3927  1.1664
   79SLPC   C24 7252   1.330   5.516   6.959 -0.8178 -1.0499  0.1849
   79SLPC   H4R 7253   1.369   5.612   6.998 -2.7563 -0.4084  0.5803
   79SLPC   H4S 7254   1.411   5.459   6.909  1.0275 -1.2804  3.2988
   79SLPC   C25 7255   1.279   5.438   7.082 -0.6693  0.0785  0.4083
   79SLPC   H5R 7256   1.241   5.339   7.051 -0.8687  0.6406 -1.1602
   79SLPC   H5S 7257   1.199   5.492   7.138 -0.0758  1.4368 -0.0214
   79SLPC   C26 7258   1.392   5.414   7.187 -0.1707  0.6278  0.0629
   79SLPC   H6R 7259   1.422   5.516   7.218 -0.1207  1.1582 -1.6754
   79SLPC   H6S 7260   1.478   5.362   7.140 -0.2436 -0.4539  1.0968
   79SLPC   C27 7261   1.337   5.340   7.308 -0.0233  0.6059 -0.3369
   79SLPC   H7R 7262   1.314   5.234   7.288 -1.2820  0.8104 -0.0156
   79SLPC   H7S 7263   1.245   5.380   7.355  0.0985  0.6272 -0.1164
   79SLPC   C28 7264   1.440   5.346   7.417 -0.0051 -0.5675 -0.5487
   79SLPC   H8R 7265   1.445   5.454   7.441 -0.5336 -0.3810 -1.2687
   79SLPC   H8S 7266   1.541   5.313   7.383 -1.0181 -1.6692 -2.5596
   79SLPC   C29 7267   1.407   5.265   7.546  0.5584  0.3782 -0.0610
   79SLPC   H9R 7268   1.382   5.160   7.529 -0.7889  0.4659  1.2885
   79SLPC  C210 7269   1.386   5.297   7.673 -0.5546  0.1381 -0.1838
   79SLPC  H10R 7270   1.388   5.212   7.743  1.4611  0.7157  0.4799
   79SLPC  C211 7271   1.405   5.423   7.738 -1.2524  0.0331 -0.0914
   79SLPC  H11R 7272   1.327   5.428   7.816 -1.7319  1.0935 -0.6316
   79SLPC  H11S 7273   1.380   5.505   7.668  0.2500 -0.3273 -1.0903
   79SLPC  C212 7274   1.547   5.429   7.787 -0.6834 -0.0143 -0.9428
   79SLPC  H12R 7275   1.629   5.403   7.719 -1.3452 -3.6160 -0.4539
   79SLPC  C213 7276   1.579   5.473   7.913  0.1060 -0.1684 -1.1103
   79SLPC  H13R 7277   1.685   5.464   7.941  0.1448  1.9412 -0.5057
   79SLPC  C214 7278   1.477   5.519   8.019  0.2740  1.1513  0.3856
   79SLPC  H14R 7279   1.421   5.437   8.067  1.3789 -0.4179 -0.9186
   79SLPC  H14S 7280   1.404   5.592   7.978  0.5438 -0.5467 -3.3549
   79SLPC  C215 7281   1.554   5.607   8.126 -0.3491  0.6346  0.6138
   79SLPC  H15R 7282   1.475   5.656   8.187 -0.6571  0.9801 -0.0546
   79SLPC  H15S 7283   1.604   5.690   8.072 -0.6466 -1.7618 -3.5744
   79SLPC  C216 7284   1.640   5.526   8.220  0.8742  0.1521  1.4224
   79SLPC  H16R 7285   1.732   5.488   8.172  0.5985 -0.8984  1.7254
   79SLPC  H16S 7286   1.592   5.438   8.268  3.7338 -2.1673  0.1484
   79SLPC  C217 7287   1.696   5.622   8.328 -0.5774  0.0296 -1.1741
   79SLPC  H17R 7288   1.613   5.621   8.403  1.9645  0.6172  1.7584
   79SLPC  H17S 7289   1.713   5.728   8.299 -0.1422  0.6920  1.3631
   79SLPC  C218 7290   1.828   5.567   8.394 -0.0136 -0.7137 -0.5562
   79SLPC  H18R 7291   1.853   5.640   8.474  0.4772 -1.5372  0.0528
   79SLPC  H18S 7292   1.912   5.576   8.323  1.6314  1.8211  1.6379
   79SLPC  H18T 7293   1.813   5.470   8.447 -0.3635  0.7718  2.1858
   79SLPC   C33 7294   0.930   5.696   7.154 -0.7980  0.5753 -0.0670
   79SLPC   H3X 7295   0.982   5.600   7.130 -0.5021  0.6884  0.1248
   79SLPC   H3Y 7296   0.832   5.678   7.105 -1.9265  0.6586  2.0937
   79SLPC   C34 7297   0.908   5.706   7.304 -0.1556 -0.5550 -0.6557
   79SLPC   H4X 7298   1.006   5.731   7.350  0.0386  3.3264 -2.9212
   79SLPC   H4Y 7299   0.857   5.615   7.339  0.8850 -0.7158  0.4627
   79SLPC   C35 7300   0.803   5.813   7.341  0.6021 -0.1380 -0.0894
   79SLPC   H5X 7301   0.714   5.796   7.277  2.3459 -1.7088 -2.2070
   79SLPC   H5Y 7302   0.846   5.915   7.330 -0.2172  0.0118 -2.2463
   79SLPC   C36 7303   0.768   5.787   7.493  0.2304  0.8790  0.2592
   79SLPC   H6X 7304   0.853   5.843   7.537  0.3740  1.1724 -0.3805
   79SLPC   H6Y 7305   0.753   5.683   7.529 -1.7016 -0.1166 -3.1374
   79SLPC   C37 7306   0.636   5.858   7.540  0.1192 -0.3566  0.6331
   79SLPC   H7X 7307   0.548   5.814   7.489 -0.2557  0.8516  0.2324
   79SLPC   H7Y 7308   0.638   5.966   7.516 -0.7270 -0.4834 -0.0133
   79SLPC   C38 7309   0.631   5.840   7.691  0.0579 -0.1107 -0.3478
   79SLPC   H8X 7310   0.670   5.740   7.722 -0.2554 -0.1235  0.0087
   79SLPC   H8Y 7311   0.524   5.842   7.719 -0.1722  0.6540 -1.2782
   79SLPC   C39 7312   0.702   5.946   7.788  1.1123 -0.1358  0.5101
   79SLPC   H9X 7313   0.641   6.037   7.773 -0.1076 -0.9831  0.3253
   79SLPC   H9Y 7314   0.809   5.948   7.757  0.8385 -1.4437 -0.5824
   79SLPC  C310 7315   0.703   5.900   7.941 -0.1912 -0.2505 -0.1902
   79SLPC  H10X 7316   0.756   5.803   7.948  1.2560  0.6774  2.2795
   79SLPC  H10Y 7317   0.601   5.869   7.973 -0.3673  1.2124  0.7019
   79SLPC  C311 7318   0.771   6.000   8.046  0.9578  0.2458  0.2926
   79SLPC  H11X 7319   0.861   6.040   7.996 -1.0148  1.5003 -2.3724
   79SLPC  H11Y 7320   0.805   5.943   8.136  0.5376 -0.0377  0.2755
   79SLPC  C312 7321   0.671   6.109   8.080  0.8544  0.2621  0.4659
   79SLPC  H12X 7322   0.583   6.057   8.123  0.4549  0.9164  0.4572
   79SLPC  H12Y 7323   0.641   6.156   7.983  1.8181  1.4476  0.7253
   79SLPC  C313 7324   0.740   6.214   8.163  0.3222  0.1186 -0.4425
   79SLPC  H13X 7325   0.821   6.247   8.095  1.5786 -1.7523  0.0920
   79SLPC  H13Y 7326   0.789   6.174   8.254 -1.0004 -0.7176 -0.0779
   79SLPC  C314 7327   0.657   6.340   8.197  1.0173 -0.4073 -0.4824
   79SLPC  H14X 7328   0.628   6.389   8.102  1.6014 -0.0479 -0.4761
   79SLPC  H14Y 7329   0.717   6.412   8.256 -1.2816 -0.2261  1.7650
   79SLPC  C315 7330   0.527   6.313   8.277  0.2537 -0.1035  0.5436
   79SLPC  H15X 7331   0.463   6.238   8.227 -2.2448  2.7638 -0.6638
   79SLPC  H15Y 7332   0.465   6.404   8.270  0.1846 -0.3036 -1.6936
   79SLPC  C316 7333   0.553   6.261   8.418  0.5971  1.0218 -0.3195
   79SLPC  H16X 7334   0.650   6.292   8.462 -0.4276  0.0608  2.7402
   79SLPC  H16Y 7335   0.545   6.151   8.421  1.2186  0.9484 -1.4254
   79SLPC  C317 7336   0.450   6.307   8.519  0.1948  0.3162  0.4734
   79SLPC  H17X 7337   0.443   6.417   8.537  1.9292  0.3670  0.8809
   79SLPC  H17Y 7338   0.470   6.260   8.618 -0.0131  0.5927  0.6479
   79SLPC  C318 7339   0.305   6.265   8.479  0.2520 -0.0583  0.1907
   79SLPC  H18X 7340   0.299   6.154   8.474 -1.2710  0.0869 -1.6455
   79SLPC  H18Y 7341   0.278   6.313   8.383 -0.0497 -1.5310 -0.4710
   79SLPC  H18Z 7342   0.232   6.293   8.559  0.3979 -0.8245  0.5936
   80SLPC     N 7343   2.329   4.050   6.403 -0.1140  0.0066 -0.2569
   80SLPC   C13 7344   2.377   4.176   6.334  0.0649 -0.7404  0.1770
   80SLPC  H13A 7345   2.446   4.154   6.254 -1.0561  0.3530 -1.1005
   80SLPC  H13B 7346   2.290   4.232   6.303  0.2256 -0.5272  0.1115
   80SLPC  H13C 7347   2.420   4.228   6.419 -1.8381  1.8106 -0.3679
   80SLPC   C14 7348   2.278   3.954   6.298  0.6959 -0.6345 -0.2463
   80SLPC  H14A 7349   2.267   3.849   6.322  0.4264 -0.2650  1.2650
   80SLPC  H14B 7350   2.184   3.991   6.259  0.2940 -2.8491 -1.4477
   80SLPC  H14C 7351   2.350   3.947   6.217 -1.3678 -3.1645 -1.9305
   80SLPC   C15 7352   2.209   4.088   6.492  0.3749  0.0545  0.6469
   80SLPC  H15A 7353   2.191   4.012   6.566  0.4603 -0.2213  0.3829
   80SLPC  H15B 7354   2.240   4.174   6.549  1.6182  0.7412 -1.0090
   80SLPC  H15C 7355   2.128   4.114   6.425  0.8343  1.4701  0.6307
   80SLPC   C12 7356   2.434   3.981   6.482  0.6057 -0.4996 -0.2319
   80SLPC  H12A 7357   2.397   3.887   6.520 -1.0417  0.1698 -0.1187
   80SLPC  H12B 7358   2.459   4.038   6.569 -1.8409  1.4515 -0.7337
   80SLPC   C11 7359   2.567   3.937   6.411 -0.7672 -0.2422 -0.6407
   80SLPC  H11A 7360   2.626   3.905   6.500 -1.3026  0.1328 -0.1404
   80SLPC  H11B 7361   2.613   4.023   6.358  1.6780 -0.2681  1.3671
   80SLPC     P 7362   2.502   3.681   6.384 -0.0861  0.4448 -0.1775
   80SLPC   O13 7363   2.522   3.596   6.266 -0.1339  0.1387  0.2963
   80SLPC   O14 7364   2.590   3.663   6.501  0.9070 -0.9263 -0.0491
   80SLPC   O12 7365   2.537   3.827   6.329  0.4493  0.3175  0.3448
   80SLPC   O11 7366   2.349   3.697   6.416 -0.2227 -0.6615 -0.2260
   80SLPC    C1 7367   2.266   3.589   6.451  0.0454  0.5998 -0.3206
   80SLPC    HA 7368   2.199   3.565   6.366  1.2037  0.1762 -1.1305
   80SLPC    HB 7369   2.323   3.499   6.484  1.0218  1.8514  1.4791
   80SLPC    C2 7370   2.165   3.625   6.561 -0.2240  0.0616 -0.6995
   80SLPC    HS 7371   2.107   3.716   6.534  0.2508  0.2415 -1.1063
   80SLPC   O21 7372   2.234   3.636   6.684 -0.0652  0.3620 -0.3151
   80SLPC   C21 7373   2.270   3.757   6.725  0.2699 -0.4217  0.5893
   80SLPC   O22 7374   2.234   3.861   6.668 -0.2919  0.6835 -0.0970
   80SLPC   C22 7375   2.360   3.751   6.848  0.5209 -0.2857  0.6167
   80SLPC   H2R 7376   2.390   3.645   6.864 -0.9831 -0.6253  1.2950
   80SLPC   H2S 7377   2.450   3.813   6.828  2.0425 -1.6469  2.9925
   80SLPC    C3 7378   2.064   3.508   6.578  0.4275  0.2906  1.1526
   80SLPC    HX 7379   2.127   3.418   6.591  1.0964  0.1478 -2.5526
   80SLPC    HY 7380   2.011   3.477   6.485 -0.3202  0.3497  1.5544
   80SLPC   O31 7381   1.959   3.533   6.678  0.1214 -0.2549  0.1823
   80SLPC   C31 7382   1.967   3.451   6.782 -0.9795 -0.0983 -0.6118
   80SLPC   O32 7383   2.059   3.369   6.805 -0.0604  0.2604  0.0227
   80SLPC   C32 7384   1.831   3.450   6.851 -0.5225  0.5715  0.2137
   80SLPC   H2X 7385   1.782   3.355   6.821  2.4353 -0.8955 -0.1529
   80SLPC   H2Y 7386   1.774   3.535   6.809 -0.9636 -0.4222 -1.2280
   80SLPC   C23 7387   2.296   3.799   6.983  0.1321 -0.2386 -0.0028
   80SLPC   H3R 7388   2.259   3.902   6.966 -1.4957 -1.1497 -2.3130
   80SLPC   H3S 7389   2.373   3.811   7.063 -2.3148  1.2004  2.1922
   80SLPC   C24 7390   2.181   3.709   7.036  0.3888 -0.2938 -0.1344
   80SLPC   H4R 7391   2.216   3.610   7.071 -1.0846 -1.9421 -3.1071
   80SLPC   H4S 7392   2.111   3.689   6.952 -0.0914 -1.1098  0.4606
   80SLPC   C25 7393   2.108   3.777   7.146  0.5408 -0.7206 -0.2409
   80SLPC   H5R 7394   2.024   3.707   7.168 -1.1670  0.6253 -2.1971
   80SLPC   H5S 7395   2.057   3.874   7.123 -0.6760 -1.5022 -0.8969
   80SLPC   C26 7396   2.189   3.793   7.276 -0.2797 -0.1499  0.3373
   80SLPC   H6R 7397   2.258   3.880   7.268 -0.4084 -0.1485 -0.8998
   80SLPC   H6S 7398   2.255   3.704   7.278  0.4699  0.4238  1.5105
   80SLPC   C27 7399   2.107   3.803   7.403 -0.6650 -0.7657  0.6661
   80SLPC   H7R 7400   2.072   3.701   7.430  0.6205 -1.2517  0.5798
   80SLPC   H7S 7401   2.014   3.859   7.383  0.4321  1.2028  0.9468
   80SLPC   C28 7402   2.186   3.864   7.518  0.2653  0.2569 -0.6796
   80SLPC   H8R 7403   2.221   3.967   7.497 -1.0925  0.3112 -2.7909
   80SLPC   H8S 7404   2.278   3.805   7.541  0.1563  0.1188 -0.5914
   80SLPC   C29 7405   2.090   3.863   7.630  0.5470  0.2471  0.6762
   80SLPC   H9R 7406   1.985   3.834   7.611  0.9998 -0.2824 -1.1071
   80SLPC  C210 7407   2.123   3.886   7.759  0.6145 -0.6086  0.3860
   80SLPC  H10R 7408   2.039   3.884   7.830  0.6596  0.1511  0.4591
   80SLPC  C211 7409   2.260   3.924   7.812 -0.0067  0.3556 -0.3486
   80SLPC  H11R 7410   2.345   3.865   7.769 -0.1977 -0.1127 -0.0938
   80SLPC  H11S 7411   2.259   3.887   7.917 -0.7098  0.2825 -0.3766
   80SLPC  C212 7412   2.289   4.072   7.806  0.4005  0.1084 -0.7690
   80SLPC  H12R 7413   2.244   4.127   7.723 -0.1479 -1.5716 -1.6218
   80SLPC  C213 7414   2.357   4.145   7.897  0.0294  1.1552  0.1249
   80SLPC  H13R 7415   2.371   4.250   7.870 -0.6349  0.5734 -2.6261
   80SLPC  C214 7416   2.405   4.092   8.027 -0.3436  0.1122  0.7028
   80SLPC  H14R 7417   2.482   4.163   8.062  0.7225 -1.5419  1.7847
   80SLPC  H14S 7418   2.458   3.996   8.007  2.8210  1.6338  1.5419
   80SLPC  C215 7419   2.292   4.076   8.129 -0.0107 -0.1065  0.2699
   80SLPC  H15R 7420   2.206   4.022   8.084 -0.5213 -0.5740  1.7860
   80SLPC  H15S 7421   2.252   4.172   8.168  2.1080  1.1807 -0.6400
   80SLPC  C216 7422   2.323   3.995   8.251  0.1589 -0.6662  0.6702
   80SLPC  H16R 7423   2.408   4.038   8.308  1.7772 -0.9441 -1.4947
   80SLPC  H16S 7424   2.362   3.901   8.208  1.5930 -0.5358  1.6654
   80SLPC  C217 7425   2.207   3.949   8.345  0.2063 -0.1867  0.6406
   80SLPC  H17R 7426   2.144   3.878   8.287 -0.4137  0.5740  0.3716
   80SLPC  H17S 7427   2.148   4.039   8.375 -0.4840 -0.3102 -0.3448
   80SLPC  C218 7428   2.264   3.879   8.469  0.4352 -0.2355  0.3188
   80SLPC  H18R 7429   2.187   3.835   8.536  1.2314  1.1882  2.2350
   80SLPC  H18S 7430   2.322   3.951   8.531 -0.9934  1.7371 -0.5601
   80SLPC  H18T 7431   2.334   3.802   8.432  1.8921  2.1977 -2.2135
   80SLPC   C33 7432   1.849   3.459   7.000  0.1920  0.1260 -0.1798
   80SLPC   H3X 7433   1.753   3.496   7.041 -1.4460 -2.9112 -1.1344
   80SLPC   H3Y 7434   1.921   3.538   7.029  1.2753 -1.1378  0.6194
   80SLPC   C34 7435   1.884   3.319   7.057  0.0136 -0.1180  0.0358
   80SLPC   H4X 7436   1.991   3.295   7.035  0.1767  0.9282 -0.3503
   80SLPC   H4Y 7437   1.831   3.243   6.996 -2.2634  0.0492  1.7351
   80SLPC   C35 7438   1.855   3.302   7.207  0.2252 -0.0135  0.6459
   80SLPC   H5X 7439   1.871   3.196   7.235 -0.7635  0.0760  1.5776
   80SLPC   H5Y 7440   1.745   3.312   7.225  0.4394 -0.5890  2.2708
   80SLPC   C36 7441   1.923   3.402   7.302 -0.5196  0.2539 -0.6741
   80SLPC   H6X 7442   1.900   3.507   7.275 -2.8478  0.3714  1.5436
   80SLPC   H6Y 7443   2.033   3.389   7.294 -0.3987  1.5715 -1.2070
   80SLPC   C37 7444   1.893   3.379   7.454  0.0167  0.2424  0.4890
   80SLPC   H7X 7445   1.883   3.268   7.463 -0.7336  0.1076 -1.6991
   80SLPC   H7Y 7446   1.802   3.428   7.495 -1.6250 -1.4022 -1.0954
   80SLPC   C38 7447   2.015   3.420   7.545 -0.7727  0.5472  0.1286
   80SLPC   H8X 7448   2.053   3.518   7.507 -0.3825  0.1001 -0.6337
   80SLPC   H8Y 7449   2.096   3.346   7.534 -1.0126  0.7996 -4.1324
   80SLPC   C39 7450   1.984   3.425   7.697  0.3843  0.4521  0.3373
   80SLPC   H9X 7451   1.947   3.328   7.738 -3.8453  1.8908  0.1331
   80SLPC   H9Y 7452   1.899   3.495   7.713 -1.0368 -0.7335 -1.7282
   80SLPC  C310 7453   2.118   3.474   7.768  0.1521  0.2172 -0.1018
   80SLPC  H10X 7454   2.152   3.573   7.730 -1.5525  0.3604 -1.3124
   80SLPC  H10Y 7455   2.192   3.395   7.746  0.5752  0.2949  1.0261
   80SLPC  C311 7456   2.114   3.485   7.921  0.0880 -0.7870 -0.1862
   80SLPC  H11X 7457   2.218   3.500   7.957  0.4096  1.2300 -1.8556
   80SLPC  H11Y 7458   2.072   3.388   7.956 -2.7296  0.5916  0.3766
   80SLPC  C312 7459   2.018   3.590   7.976 -0.1095  0.3152  0.5835
   80SLPC  H12X 7460   1.914   3.558   7.951  0.2949  1.4904 -2.7830
   80SLPC  H12Y 7461   2.041   3.691   7.937  1.0871 -1.0021 -2.2260
   80SLPC  C313 7462   2.021   3.607   8.130  0.8081  0.1316 -0.0935
   80SLPC  H13X 7463   1.956   3.694   8.154 -0.1923 -0.1091 -1.8695
   80SLPC  H13Y 7464   2.129   3.608   8.155  0.5941 -1.6469  1.0121
   80SLPC  C314 7465   1.972   3.487   8.219  0.4969  0.0832  0.0840
   80SLPC  H14X 7466   2.022   3.395   8.184  2.4597  1.6143 -1.2628
   80SLPC  H14Y 7467   1.864   3.462   8.206 -0.2820  3.2241 -0.0826
   80SLPC  C315 7468   2.011   3.486   8.371 -0.5246 -0.3343 -0.2748
   80SLPC  H15X 7469   2.101   3.550   8.383 -1.5578  1.1808 -0.4097
   80SLPC  H15Y 7470   2.015   3.380   8.404 -2.0751 -0.4163 -0.3078
   80SLPC  C316 7471   1.897   3.547   8.461  0.2836 -0.4591 -0.3404
   80SLPC  H16X 7472   1.815   3.473   8.472 -1.9207  2.0164  0.6048
   80SLPC  H16Y 7473   1.848   3.629   8.403 -1.0111 -1.6773 -1.0056
   80SLPC  C317 7474   1.948   3.587   8.595 -0.2779 -0.2288 -0.5216
   80SLPC  H17X 7475   2.038   3.651   8.585 -0.5677  0.4114  0.8373
   80SLPC  H17Y 7476   1.978   3.495   8.650  2.7268  0.3653 -1.0758
   80SLPC  C318 7477   1.835   3.659   8.670 -0.3052 -0.0584 -0.3801
   80SLPC  H18X 7478   1.755   3.586   8.691 -1.2169  0.4181 -2.1116
   80SLPC  H18Y 7479   1.791   3.739   8.606 -1.1538  0.8907  1.3383
   80SLPC  H18Z 7480   1.874   3.711   8.761  0.3662 -0.3979 -0.4692
   81SAPS     N 7481   2.510   5.345  11.287  0.0956 -0.1545  0.2261
   81SAPS   HN1 7482   2.476   5.291  11.369  0.5081  0.2222  0.6468
   81SAPS   HN2 7483   2.593   5.394  11.326  0.7231 -1.3874  0.4527
   81SAPS   HN3 7484   2.431   5.408  11.261 -0.8819 -0.9793  1.1414
   81SAPS   C12 7485   2.532   5.254  11.168 -0.2056  0.2939  0.5902
   81SAPS  H12A 7486   2.626   5.202  11.182 -0.0105  0.8887  1.5573
   81SAPS   C13 7487   2.419   5.152  11.143 -0.1473  0.2975  0.1434
   81SAPS  O13A 7488   2.306   5.149  11.200 -0.5109  0.2548 -0.0442
   81SAPS  O13B 7489   2.443   5.064  11.052  0.4647  0.2317 -1.0227
   81SAPS   C11 7490   2.560   5.338  11.042 -0.9297 -0.6383  0.2805
   81SAPS  H11A 7491   2.580   5.265  10.961 -3.3022 -2.3825  1.2084
   81SAPS  H11B 7492   2.647   5.405  11.057 -1.7004 -0.0863  2.4093
   81SAPS     P 7493   2.446   5.525  10.904 -0.6429 -0.1225 -0.3756
   81SAPS   O13 7494   2.302   5.559  10.892 -0.3292 -0.3244  0.2211
   81SAPS   O14 7495   2.536   5.634  10.956  0.3783  0.7490  0.1011
   81SAPS   O12 7496   2.441   5.402  11.005  0.0096 -0.3929 -0.1266
   81SAPS   O11 7497   2.518   5.463  10.772  0.3606 -0.1534 -0.1039
   81SAPS    C1 7498   2.449   5.383  10.683 -0.0570  0.5614 -0.0750
   81SAPS    HA 7499   2.526   5.310  10.649 -0.0745  0.7573 -0.5360
   81SAPS    HB 7500   2.377   5.317  10.737 -0.9061  1.2045 -0.4159
   81SAPS    C2 7501   2.399   5.468  10.558 -0.5261  0.0327  0.4039
   81SAPS    HS 7502   2.319   5.538  10.591  0.8096  1.1144  1.4018
   81SAPS   O21 7503   2.359   5.375  10.466  0.4137  0.1448 -0.2304
   81SAPS   C21 7504   2.238   5.317  10.483  0.1408 -0.6020  0.3153
   81SAPS   O22 7505   2.163   5.344  10.574 -0.2250  0.2645 -0.7957
   81SAPS   C22 7506   2.213   5.204  10.380  0.5323  0.8731 -0.1715
   81SAPS   H2R 7507   2.114   5.157  10.400  0.7458  1.5028  2.5317
   81SAPS   H2S 7508   2.210   5.237  10.274  0.7123 -1.2380 -0.8675
   81SAPS    C3 7509   2.522   5.537  10.497  0.1655 -0.0698  0.8299
   81SAPS    HX 7510   2.599   5.463  10.467 -1.2796 -0.4070 -2.2658
   81SAPS    HY 7511   2.569   5.596  10.579  3.4119  0.1580 -1.1244
   81SAPS   O31 7512   2.486   5.627  10.389  0.0771 -0.7468 -0.0101
   81SAPS   C31 7513   2.541   5.617  10.266 -0.1643  0.3770  0.1547
   81SAPS   O32 7514   2.619   5.525  10.235 -0.2899  0.1277 -0.0663
   81SAPS   C32 7515   2.468   5.706  10.163 -0.3965  0.8801 -0.2992
   81SAPS   H2X 7516   2.486   5.808  10.204 -2.2350  0.5891  1.2700
   81SAPS   H2Y 7517   2.360   5.682  10.166 -0.3572  0.7313 -0.0514
   81SAPS   C23 7518   2.316   5.093  10.384 -0.0720  0.8854  1.1136
   81SAPS   H3R 7519   2.259   5.000  10.405 -1.0395  1.2962  0.3813
   81SAPS   H3S 7520   2.392   5.113  10.463  1.4209 -2.8008  0.6749
   81SAPS   C24 7521   2.397   5.065  10.258 -0.1674  0.3638 -0.7204
   81SAPS   H4R 7522   2.321   5.032  10.185 -0.2227 -3.3325  0.9098
   81SAPS   H4S 7523   2.463   4.977  10.275 -2.3923 -1.6945 -2.2857
   81SAPS   C25 7524   2.470   5.185  10.217 -0.2372  0.0592  0.6916
   81SAPS   H5R 7525   2.540   5.237  10.285  0.1170  0.6554 -0.1195
   81SAPS   C26 7526   2.451   5.252  10.107 -0.2979  0.9142  0.3980
   81SAPS   H6R 7527   2.500   5.351  10.106  1.1859  0.2196  1.4842
   81SAPS   C27 7528   2.361   5.219   9.991 -0.6206  0.7150 -1.4707
   81SAPS   H7R 7529   2.253   5.208  10.015 -0.1389 -2.2848 -0.4632
   81SAPS   H7S 7530   2.392   5.118   9.957 -1.5849  0.8121 -2.6570
   81SAPS   C28 7531   2.370   5.324   9.880 -0.1870  0.7513  0.0758
   81SAPS   H8R 7532   2.338   5.425   9.910 -0.7334  0.5500  0.1639
   81SAPS   C29 7533   2.423   5.320   9.753  0.0594  0.2712  0.5319
   81SAPS   H9R 7534   2.426   5.408   9.687  0.3626 -1.0479 -1.2622
   81SAPS  C210 7535   2.489   5.196   9.690 -0.0740  1.2946 -0.2709
   81SAPS  H10R 7536   2.418   5.125   9.643 -1.3772  0.5259  2.7157
   81SAPS  H10S 7537   2.539   5.141   9.773 -2.4810 -0.6814 -0.0668
   81SAPS  C211 7538   2.591   5.240   9.587 -0.2618  0.2993  0.2076
   81SAPS  H11R 7539   2.692   5.222   9.629 -1.0791 -0.1288  2.0698
   81SAPS  C212 7540   2.562   5.271   9.467 -0.4198 -0.3332  0.0633
   81SAPS  H12R 7541   2.642   5.311   9.403 -0.3223 -1.1771 -0.3432
   81SAPS  C213 7542   2.421   5.283   9.412  0.6377 -0.5662 -0.2818
   81SAPS  H13R 7543   2.350   5.332   9.483 -1.3544 -2.1187 -1.1591
   81SAPS  H13S 7544   2.376   5.182   9.412 -0.8027  0.0413  1.2584
   81SAPS  C214 7545   2.407   5.343   9.271 -0.2821  0.3454  0.7324
   81SAPS  H14R 7546   2.476   5.426   9.249  0.3231 -0.2774  0.2746
   81SAPS  C215 7547   2.320   5.300   9.177  0.0072 -0.0437 -0.5981
   81SAPS  H15R 7548   2.310   5.352   9.081 -1.6020  1.1180  0.1687
   81SAPS  C216 7549   2.216   5.194   9.186  0.6504  0.5921 -0.3915
   81SAPS  H16R 7550   2.230   5.149   9.287 -1.6578  0.5912 -0.0453
   81SAPS  H16S 7551   2.215   5.111   9.112 -0.3597 -0.3559  0.6440
   81SAPS  C217 7552   2.072   5.251   9.193  0.0708 -0.1184  0.1178
   81SAPS  H17R 7553   2.003   5.168   9.219 -1.8198  1.3549 -0.0354
   81SAPS  H17S 7554   2.048   5.288   9.091  1.5116  2.0217  0.5339
   81SAPS  C218 7555   2.054   5.361   9.299 -0.3443  0.2940  0.2630
   81SAPS  H18R 7556   2.099   5.452   9.255 -0.7259 -1.0263 -2.9657
   81SAPS  H18S 7557   2.100   5.332   9.396 -0.5579 -0.3674  0.1670
   81SAPS  C219 7558   1.904   5.393   9.320 -0.4008  0.3049 -0.1467
   81SAPS  H19R 7559   1.855   5.300   9.356  0.6469  0.3464  1.4361
   81SAPS  H19S 7560   1.860   5.431   9.225  1.5674  2.7149 -0.1392
   81SAPS  C220 7561   1.878   5.506   9.424 -0.4398 -0.2128  0.6818
   81SAPS  H20R 7562   1.772   5.519   9.453 -0.6182 -0.7195  0.2742
   81SAPS  H20S 7563   1.912   5.605   9.388 -1.8416 -0.0939 -0.3839
   81SAPS  H20T 7564   1.935   5.484   9.517  0.3496  1.2059  0.5498
   81SAPS   C33 7565   2.530   5.683  10.025 -0.3645 -0.5054 -0.1974
   81SAPS   H3X 7566   2.547   5.578   9.991 -0.8179 -0.3158 -0.9975
   81SAPS   H3Y 7567   2.623   5.742  10.017 -1.1025  0.5508 -1.1182
   81SAPS   C34 7568   2.420   5.733   9.922 -0.5177  0.5265  0.7040
   81SAPS   H4X 7569   2.385   5.837   9.943 -1.0949  1.0174 -2.4028
   81SAPS   H4Y 7570   2.328   5.672   9.934  0.5679 -0.6832  3.1412
   81SAPS   C35 7571   2.463   5.738   9.771 -0.4837  0.1479  0.3379
   81SAPS   H5X 7572   2.460   5.632   9.737 -1.6011 -1.1272  4.1209
   81SAPS   H5Y 7573   2.567   5.779   9.771 -0.2800 -0.3583 -0.1795
   81SAPS   C36 7574   2.376   5.823   9.677  0.4821  0.4267 -0.0253
   81SAPS   H6X 7575   2.379   5.930   9.708 -1.5744 -0.0490  1.9330
   81SAPS   H6Y 7576   2.269   5.798   9.695  0.7520 -0.5251  0.2668
   81SAPS   C37 7577   2.410   5.797   9.529  1.3121  0.7384 -0.6629
   81SAPS   H7X 7578   2.380   5.695   9.500 -0.4409  1.3733 -1.1150
   81SAPS   H7Y 7579   2.520   5.813   9.525  1.3031  1.2032  0.4467
   81SAPS   C38 7580   2.333   5.884   9.433  0.1402  0.3445 -0.0782
   81SAPS   H8X 7581   2.350   5.993   9.450 -3.5198  1.1517 -1.1241
   81SAPS   H8Y 7582   2.225   5.868   9.455  0.1578  1.0310  0.5461
   81SAPS   C39 7583   2.365   5.843   9.291 -0.0616  0.4063  0.1921
   81SAPS   H9X 7584   2.320   5.747   9.260 -1.1439 -0.2730  3.6576
   81SAPS   H9Y 7585   2.475   5.849   9.274 -0.0074 -0.6747  0.1349
   81SAPS  C310 7586   2.308   5.957   9.197 -0.0258  0.0182  1.0299
   81SAPS  H10X 7587   2.362   6.051   9.225 -1.2095  0.2491  2.6372
   81SAPS  H10Y 7588   2.204   5.967   9.236 -0.2019 -3.6186  1.6141
   81SAPS  C311 7589   2.307   5.937   9.040 -0.0117 -0.7648  0.3819
   81SAPS  H11X 7590   2.263   5.839   9.013 -1.0288 -0.1855 -0.0778
   81SAPS  H11Y 7591   2.412   5.930   9.003  0.2005  0.1341  0.7938
   81SAPS  C312 7592   2.217   6.048   8.983  0.0795 -0.1658  0.6740
   81SAPS  H12X 7593   2.220   6.131   9.057  0.9236  1.1707 -0.8380
   81SAPS  H12Y 7594   2.109   6.021   8.979  0.0208  0.2538 -1.4139
   81SAPS  C313 7595   2.267   6.097   8.847 -0.0501 -0.0028 -0.0001
   81SAPS  H13X 7596   2.373   6.118   8.875 -1.2151  3.2898  2.1919
   81SAPS  H13Y 7597   2.211   6.189   8.821 -1.3535 -0.5235  0.9204
   81SAPS  C314 7598   2.250   6.003   8.732 -0.2370 -0.3027  0.3998
   81SAPS  H14X 7599   2.143   5.995   8.704  0.3030 -0.7084 -1.6111
   81SAPS  H14Y 7600   2.279   5.899   8.760 -0.1850  0.0028  1.5121
   81SAPS  C315 7601   2.314   6.051   8.599 -0.5456  0.0177  0.1429
   81SAPS  H15X 7602   2.310   5.977   8.516  1.8106  2.4594 -2.2435
   81SAPS  H15Y 7603   2.419   6.078   8.622 -0.4097 -1.6257  1.5543
   81SAPS  C316 7604   2.256   6.186   8.547 -0.6230 -0.0830  0.4531
   81SAPS  H16X 7605   2.280   6.259   8.627 -0.0741 -1.5175  1.6398
   81SAPS  H16Y 7606   2.146   6.177   8.534 -0.3784 -0.9464 -1.1534
   81SAPS  C317 7607   2.314   6.237   8.413 -0.4348 -0.4459  0.2138
   81SAPS  H17X 7608   2.276   6.164   8.338 -2.1408  1.2038 -0.5663
   81SAPS  H17Y 7609   2.425   6.232   8.412 -0.2420  2.5563  1.7023
   81SAPS  C318 7610   2.268   6.381   8.394 -0.5686 -0.2355 -0.6032
   81SAPS  H18X 7611   2.317   6.442   8.473 -1.1963  0.4650 -0.7582
   81SAPS  H18Y 7612   2.157   6.385   8.400 -0.5346  1.0838 -0.7934
   81SAPS  H18Z 7613   2.311   6.420   8.299  1.4958 -0.7889  0.0770
   82SAPS     N 7614   1.506   4.937  10.966 -0.7653 -0.0332 -0.6338
   82SAPS   HN1 7615   1.571   4.979  10.896  1.4270 -2.4293 -0.1050
   82SAPS   HN2 7616   1.409   4.924  10.931 -1.3111  1.0200  0.4698
   82SAPS   HN3 7617   1.496   5.004  11.045  1.4976 -0.0706 -0.2843
   82SAPS   C12 7618   1.553   4.802  11.021 -0.1019  0.6057  0.5119
   82SAPS  H12A 7619   1.627   4.823  11.097  0.3543 -0.6157  0.4255
   82SAPS   C13 7620   1.445   4.721  11.096 -0.1802  0.1870 -0.1388
   82SAPS  O13A 7621   1.334   4.778  11.124 -0.8461  0.2425 -0.1290
   82SAPS  O13B 7622   1.474   4.609  11.137 -0.3494 -0.3640 -0.8037
   82SAPS   C11 7623   1.635   4.725  10.911 -0.9048 -0.1745  0.4314
   82SAPS  H11A 7624   1.574   4.712  10.819  2.1355 -0.3365 -1.6474
   82SAPS  H11B 7625   1.640   4.619  10.943  0.5731 -0.0240  0.7242
   82SAPS     P 7626   1.854   4.701  10.793 -0.1950 -0.5733  0.0430
   82SAPS   O13 7627   1.987   4.763  10.785  0.1346  0.5655  0.5069
   82SAPS   O14 7628   1.857   4.568  10.844  0.9190 -0.1870 -0.1730
   82SAPS   O12 7629   1.762   4.789  10.883 -0.0504  0.4348 -0.6152
   82SAPS   O11 7630   1.779   4.709  10.646  0.0398 -0.9017 -0.5364
   82SAPS    C1 7631   1.735   4.838  10.606  0.5492 -0.4157  0.2195
   82SAPS    HA 7632   1.635   4.863  10.648  0.8304  1.0356  0.0430
   82SAPS    HB 7633   1.804   4.921  10.633  1.0722 -1.4837  2.2514
   82SAPS    C2 7634   1.722   4.854  10.448  0.1101 -0.1179 -0.9230
   82SAPS    HS 7635   1.683   4.955  10.422  0.8854  0.1744 -0.9525
   82SAPS   O21 7636   1.635   4.755  10.400 -0.1703 -0.0280 -0.4648
   82SAPS   C21 7637   1.505   4.787  10.435  0.0609 -0.3793 -0.0888
   82SAPS   O22 7638   1.468   4.903  10.456 -1.1695 -0.0938  0.0280
   82SAPS   C22 7639   1.427   4.655  10.415  0.1109 -0.1145 -0.6585
   82SAPS   H2R 7640   1.478   4.591  10.339  0.0401 -0.2729 -0.5741
   82SAPS   H2S 7641   1.424   4.593  10.507 -0.9102 -0.7844 -1.1351
   82SAPS    C3 7642   1.867   4.835  10.390 -0.1933  0.0605  0.4457
   82SAPS    HX 7643   1.887   4.726  10.399 -1.6028 -0.1171  1.5758
   82SAPS    HY 7644   1.936   4.901  10.446 -0.7895  2.4851 -1.5690
   82SAPS   O31 7645   1.865   4.870  10.250 -0.0015 -0.2544  0.6048
   82SAPS   C31 7646   1.888   5.003  10.233  0.7202  1.2264 -0.1493
   82SAPS   O32 7647   1.871   5.091  10.314  0.8539  0.5339 -0.6940
   82SAPS   C32 7648   1.912   5.034  10.090 -0.2781  0.0572 -0.3994
   82SAPS   H2X 7649   1.940   4.939  10.039 -1.3729 -0.7288  0.4448
   82SAPS   H2Y 7650   1.989   5.114  10.083 -0.9123  0.7035 -0.0381
   82SAPS   C23 7651   1.271   4.665  10.389 -0.1749  0.0548 -0.6450
   82SAPS   H3R 7652   1.232   4.745  10.456 -1.9526 -0.4246 -1.0787
   82SAPS   H3S 7653   1.236   4.564  10.418  4.6213 -1.6893 -0.5444
   82SAPS   C24 7654   1.235   4.696  10.243  0.0903 -0.2612  0.3323
   82SAPS   H4R 7655   1.137   4.651  10.215 -0.1283 -1.9967  3.6233
   82SAPS   H4S 7656   1.303   4.636  10.179 -1.5546 -0.9363 -0.8299
   82SAPS   C25 7657   1.251   4.842  10.204  0.5959 -0.2284  0.2164
   82SAPS   H5R 7658   1.352   4.883  10.190  1.0869 -1.1574  0.9584
   82SAPS   C26 7659   1.141   4.912  10.176 -0.4044  0.0144  0.4378
   82SAPS   H6R 7660   1.155   5.011  10.130  0.7483  0.1358  1.0434
   82SAPS   C27 7661   0.995   4.866  10.185 -0.2763  0.5276 -0.3197
   82SAPS   H7R 7662   0.965   4.807  10.274 -0.9420  0.3966 -0.6317
   82SAPS   H7S 7663   0.979   4.809  10.091  0.4062 -0.1881 -0.0033
   82SAPS   C28 7664   0.899   4.982  10.185  0.0107 -0.6081 -0.3274
   82SAPS   H8R 7665   0.890   5.021  10.287  0.0220 -0.7249 -0.2816
   82SAPS   C29 7666   0.821   5.040  10.082 -0.5831  0.1887  0.0689
   82SAPS   H9R 7667   0.756   5.127  10.100  1.4699  1.8518 -0.3909
   82SAPS  C210 7668   0.829   4.999   9.936  0.1140  0.4728 -0.6243
   82SAPS  H10R 7669   0.936   4.991   9.909  0.3753  0.3893  0.3921
   82SAPS  H10S 7670   0.779   5.085   9.886  0.0840  0.0462 -1.3253
   82SAPS  C211 7671   0.757   4.869   9.910 -0.2205 -0.5696  0.0178
   82SAPS  H11R 7672   0.703   4.815   9.988 -0.0910  2.3613  2.1988
   82SAPS  C212 7673   0.744   4.816   9.786  0.0385  0.0908 -0.5444
   82SAPS  H12R 7674   0.685   4.725   9.772  2.2571 -1.7605  1.4740
   82SAPS  C213 7675   0.806   4.878   9.669  0.7202 -0.7385  0.9403
   82SAPS  H13R 7676   0.848   4.799   9.603  1.1225  1.8193 -1.9600
   82SAPS  H13S 7677   0.888   4.948   9.691 -0.2520  0.0284  2.2080
   82SAPS  C214 7678   0.706   4.974   9.592  0.0347  0.4366 -0.1287
   82SAPS  H14R 7679   0.645   5.038   9.658 -0.8185  0.1453 -0.6211
   82SAPS  C215 7680   0.660   4.966   9.464  0.2766 -0.0595 -0.6622
   82SAPS  H15R 7681   0.581   5.033   9.428  1.0495  0.6860 -0.9984
   82SAPS  C216 7682   0.697   4.853   9.365  0.3033 -0.3906 -0.3688
   82SAPS  H16R 7683   0.630   4.766   9.376  0.7997 -0.3566  3.8961
   82SAPS  H16S 7684   0.801   4.815   9.380  1.4167  3.3184  2.0378
   82SAPS  C217 7685   0.694   4.927   9.229  0.9476  0.0015 -0.5328
   82SAPS  H17R 7686   0.590   4.964   9.216  0.9480  0.4814  0.7483
   82SAPS  H17S 7687   0.694   4.841   9.159  0.4334 -1.8950  1.7118
   82SAPS  C218 7688   0.800   5.025   9.171  0.7985 -0.3934 -0.7131
   82SAPS  H18R 7689   0.894   4.970   9.192  1.0849  0.3243 -0.0714
   82SAPS  H18S 7690   0.821   5.111   9.239 -0.6418 -1.2567  0.8450
   82SAPS  C219 7691   0.785   5.060   9.024  0.2144 -0.2303 -0.6776
   82SAPS  H19R 7692   0.761   4.959   8.983  1.0585 -1.1706  1.0406
   82SAPS  H19S 7693   0.884   5.097   8.991  1.1625 -1.9789  0.0934
   82SAPS  C220 7694   0.674   5.159   8.980 -0.4381  0.4196  0.3679
   82SAPS  H20R 7695   0.575   5.138   9.027 -1.5598  1.7881 -1.3266
   82SAPS  H20S 7696   0.672   5.177   8.871  1.8051 -0.4737  0.1532
   82SAPS  H20T 7697   0.707   5.261   9.009  1.4149  0.3606 -1.4301
   82SAPS   C33 7698   1.789   5.101  10.035 -0.0196 -0.3716 -0.1019
   82SAPS   H3X 7699   1.804   5.103   9.925 -1.3302 -0.8517 -0.2962
   82SAPS   H3Y 7700   1.790   5.206  10.071 -1.5278 -0.8179  1.2778
   82SAPS   C34 7701   1.657   5.019  10.055  0.5169  0.5959 -0.0136
   82SAPS   H4X 7702   1.628   5.027  10.162  1.3665  0.1513  0.2493
   82SAPS   H4Y 7703   1.678   4.915  10.022  2.8146  0.7155  1.0252
   82SAPS   C35 7704   1.529   5.065   9.982 -0.2911  0.5021 -0.1689
   82SAPS   H5X 7705   1.489   5.153  10.036 -0.8953 -0.0215  0.2374
   82SAPS   H5Y 7706   1.453   4.985   9.997 -0.0603  0.1128 -1.0166
   82SAPS   C36 7707   1.536   5.093   9.832  0.1742  0.2925  0.2471
   82SAPS   H6X 7708   1.574   5.011   9.768  0.7261  2.2177 -1.9669
   82SAPS   H6Y 7709   1.609   5.177   9.819 -0.3408  0.5979 -0.6478
   82SAPS   C37 7710   1.403   5.125   9.769  0.0118 -0.5471  0.7668
   82SAPS   H7X 7711   1.352   5.204   9.830  0.3407  1.3331 -1.3343
   82SAPS   H7Y 7712   1.330   5.042   9.756  0.2953 -0.4581 -1.4671
   82SAPS   C38 7713   1.424   5.212   9.649 -0.8483 -0.0432 -0.1273
   82SAPS   H8X 7714   1.475   5.307   9.674  1.2229 -0.5578 -2.2078
   82SAPS   H8Y 7715   1.326   5.246   9.608 -0.0997  2.0849 -0.2089
   82SAPS   C39 7716   1.514   5.151   9.540 -0.7802  0.5039 -0.6263
   82SAPS   H9X 7717   1.480   5.049   9.512 -3.4119  1.5029 -1.2320
   82SAPS   H9Y 7718   1.612   5.146   9.592 -1.7369  0.6960  1.2534
   82SAPS  C310 7719   1.504   5.235   9.410 -0.3745 -0.5580  0.2998
   82SAPS  H10X 7720   1.538   5.339   9.430 -0.4261 -0.7952  1.6455
   82SAPS  H10Y 7721   1.395   5.245   9.392  0.2222  2.1352 -2.1410
   82SAPS  C311 7722   1.571   5.169   9.286  0.0497  0.0963 -0.0882
   82SAPS  H11X 7723   1.519   5.078   9.251  0.4477  0.1409 -0.7990
   82SAPS  H11Y 7724   1.679   5.151   9.303  0.0240 -1.4887 -1.5332
   82SAPS  C312 7725   1.572   5.265   9.160  0.3148  0.1647  0.0514
   82SAPS  H12X 7726   1.594   5.364   9.207 -0.5814  0.7249 -0.6893
   82SAPS  H12Y 7727   1.466   5.273   9.126 -0.0275  3.4376  1.6832
   82SAPS  C313 7728   1.673   5.229   9.047  0.4545 -0.4002  0.3516
   82SAPS  H13X 7729   1.638   5.130   9.010 -1.7236  0.1061  0.9747
   82SAPS  H13Y 7730   1.775   5.213   9.089  0.2119 -0.3489  0.9718
   82SAPS  C314 7731   1.662   5.323   8.928 -0.2943 -0.1307 -0.0309
   82SAPS  H14X 7732   1.675   5.427   8.965  0.9179 -0.3127  0.0567
   82SAPS  H14Y 7733   1.562   5.312   8.881 -0.5429 -2.7422  1.0597
   82SAPS  C315 7734   1.756   5.294   8.814  0.0349 -0.1500  0.0850
   82SAPS  H15X 7735   1.863   5.320   8.830  0.0131  0.8187 -1.2007
   82SAPS  H15Y 7736   1.729   5.361   8.730  0.7450  0.3442  0.2440
   82SAPS  C316 7737   1.746   5.156   8.751  0.1042 -0.0542 -0.1349
   82SAPS  H16X 7738   1.639   5.123   8.751  0.0515  0.1179 -0.0818
   82SAPS  H16Y 7739   1.796   5.080   8.815  0.5962 -0.5777 -1.1253
   82SAPS  C317 7740   1.801   5.143   8.607  0.1841 -0.0236 -0.0046
   82SAPS  H17X 7741   1.902   5.190   8.610  0.6810 -1.1304  0.9925
   82SAPS  H17Y 7742   1.734   5.198   8.537 -0.1261  1.7334  1.6205
   82SAPS  C318 7743   1.838   4.997   8.573 -0.2391  0.1841 -0.2826
   82SAPS  H18X 7744   1.907   4.940   8.639  0.3360  1.0043 -0.1673
   82SAPS  H18Y 7745   1.887   4.994   8.473 -0.7473  0.0148 -0.5288
   82SAPS  H18Z 7746   1.740   4.950   8.552  0.0927  0.0199 -1.5122
   83SAPS     N 7747   3.399   6.432  10.953  0.3671 -0.1250  0.3222
   83SAPS   HN1 7748   3.347   6.430  10.863  0.2399  2.8246  0.2830
   83SAPS   HN2 7749   3.407   6.528  10.993  0.8725  0.1097 -0.3298
   83SAPS   HN3 7750   3.494   6.392  10.939  0.2294  0.2298 -1.8439
   83SAPS   C12 7751   3.328   6.345  11.040 -0.3328 -0.1288  0.0332
   83SAPS  H12A 7752   3.294   6.254  10.992  1.8443 -0.9502  0.0023
   83SAPS   C13 7753   3.403   6.290  11.162 -0.4474 -0.1919  0.3698
   83SAPS  O13A 7754   3.528   6.302  11.161  0.3516  0.0735 -0.0002
   83SAPS  O13B 7755   3.344   6.226  11.245 -0.4703  0.7796 -0.0434
   83SAPS   C11 7756   3.206   6.418  11.103 -0.1691 -0.0778 -1.1928
   83SAPS  H11A 7757   3.254   6.486  11.177  2.4977 -1.1669 -1.8626
   83SAPS  H11B 7758   3.141   6.347  11.157 -2.1825  1.1982 -1.8852
   83SAPS     P 7759   3.047   6.616  11.033 -0.0099 -0.0717  0.1883
   83SAPS   O13 7760   2.909   6.566  11.056  0.5860  0.0244  0.2867
   83SAPS   O14 7761   3.099   6.711  11.127  0.0585  0.5863 -0.6148
   83SAPS   O12 7762   3.140   6.494  10.998  0.7479  0.2135 -0.4150
   83SAPS   O11 7763   3.056   6.695  10.888 -0.4452 -0.7812  0.5280
   83SAPS    C1 7764   3.010   6.829  10.888 -0.6677 -0.2820 -0.3144
   83SAPS    HA 7765   2.959   6.864  10.981  1.0585  0.1930  0.4796
   83SAPS    HB 7766   3.097   6.898  10.881  0.2023 -1.1167  1.7339
   83SAPS    C2 7767   2.929   6.867  10.763  0.5284 -0.1702 -0.7224
   83SAPS    HS 7768   2.869   6.958  10.785  0.1003 -0.5836 -0.1667
   83SAPS   O21 7769   2.857   6.747  10.723 -0.1258 -0.4505  0.2340
   83SAPS   C21 7770   2.746   6.719  10.797 -0.0408  0.4795 -0.1598
   83SAPS   O22 7771   2.693   6.804  10.865  0.2229  0.1042  0.0752
   83SAPS   C22 7772   2.692   6.582  10.773  0.0509 -0.4687  0.5951
   83SAPS   H2R 7773   2.753   6.518  10.707 -1.2545 -0.5591 -0.5442
   83SAPS   H2S 7774   2.693   6.545  10.878  3.7419 -3.2588 -0.3293
   83SAPS    C3 7775   3.011   6.925  10.647 -1.1036  0.1683  0.3937
   83SAPS    HX 7776   3.089   6.849  10.627 -1.5438 -0.9004  2.5378
   83SAPS    HY 7777   3.066   7.016  10.676  0.5275 -0.0984 -1.7560
   83SAPS   O31 7778   2.918   6.940  10.534  0.6227 -0.3395 -0.3450
   83SAPS   C31 7779   2.965   6.957  10.408  0.2482 -0.6127  0.0652
   83SAPS   O32 7780   3.080   6.952  10.379 -0.4127 -0.2243 -0.2706
   83SAPS   C32 7781   2.848   6.971  10.318  0.1567  0.0721 -0.5297
   83SAPS   H2X 7782   2.775   7.038  10.368  0.0295 -1.2235  1.0715
   83SAPS   H2Y 7783   2.798   6.872  10.309 -0.7535  0.5310 -0.5526
   83SAPS   C23 7784   2.551   6.590  10.715 -0.2613 -0.3280  0.0084
   83SAPS   H3R 7785   2.489   6.675  10.752  0.3408  0.2171 -0.2156
   83SAPS   H3S 7786   2.502   6.495  10.744 -1.8130  0.1691 -0.9614
   83SAPS   C24 7787   2.553   6.596  10.557 -0.1846 -0.1510  0.1784
   83SAPS   H4R 7788   2.605   6.504  10.522  0.2070 -0.2404  0.9813
   83SAPS   H4S 7789   2.610   6.688  10.532  1.1217 -1.0813 -0.3565
   83SAPS   C25 7790   2.410   6.609  10.512  0.6662 -0.1417 -0.5800
   83SAPS   H5R 7791   2.351   6.692  10.551  0.2472 -1.1297  0.9413
   83SAPS   C26 7792   2.343   6.532  10.416  0.3327 -0.4623 -1.0286
   83SAPS   H6R 7793   2.243   6.567  10.385  0.0885  0.1933  0.4615
   83SAPS   C27 7794   2.397   6.416  10.338  0.2522 -0.3917  0.3556
   83SAPS   H7R 7795   2.325   6.332  10.348 -0.9476  0.5692 -0.0525
   83SAPS   H7S 7796   2.492   6.378  10.380 -0.9954 -0.8436  2.8779
   83SAPS   C28 7797   2.417   6.465  10.198  0.0138  0.4754  0.2289
   83SAPS   H8R 7798   2.467   6.563  10.190 -0.8220  0.8426 -0.6972
   83SAPS   C29 7799   2.391   6.399  10.083 -0.3694  0.5692  0.1192
   83SAPS   H9R 7800   2.411   6.444   9.985  1.6312 -0.0665  0.1955
   83SAPS  C210 7801   2.341   6.261  10.079  0.3844 -0.5774  0.2582
   83SAPS  H10R 7802   2.234   6.241  10.062  0.5193 -1.2940  0.2073
   83SAPS  H10S 7803   2.357   6.202  10.172 -0.8690 -2.5019 -0.7185
   83SAPS  C211 7804   2.419   6.176   9.971  0.1587 -0.3968  1.1868
   83SAPS  H11R 7805   2.502   6.109   9.998  1.9844  1.2111 -0.2411
   83SAPS  C212 7806   2.395   6.177   9.837 -0.5070 -0.1520 -1.0179
   83SAPS  H12R 7807   2.456   6.106   9.780 -0.3229  1.2587 -2.6176
   83SAPS  C213 7808   2.295   6.257   9.756  0.1681 -0.4051  0.5792
   83SAPS  H13R 7809   2.236   6.332   9.812  0.4007  0.1815  0.0316
   83SAPS  H13S 7810   2.226   6.179   9.716  0.5984  0.2946 -1.5949
   83SAPS  C214 7811   2.366   6.331   9.640  0.6251  0.7833 -0.2771
   83SAPS  H14R 7812   2.461   6.382   9.660 -0.1802  1.4632  1.9329
   83SAPS  C215 7813   2.316   6.332   9.518 -0.0521  1.0904  0.4439
   83SAPS  H15R 7814   2.368   6.374   9.431 -0.2049 -1.0806 -0.7389
   83SAPS  C216 7815   2.183   6.270   9.482 -0.1502  0.2035 -0.2409
   83SAPS  H16R 7816   2.113   6.293   9.565  1.1343  1.5174  0.5054
   83SAPS  H16S 7817   2.183   6.159   9.471  0.4284  0.1833 -0.0160
   83SAPS  C217 7818   2.129   6.322   9.343  0.5899  0.4096 -0.8660
   83SAPS  H17R 7819   2.190   6.262   9.272  2.8003 -2.1241  2.9711
   83SAPS  H17S 7820   2.152   6.430   9.330 -1.9468  1.3420  1.7803
   83SAPS  C218 7821   1.983   6.284   9.310  0.0855 -0.6440 -0.6186
   83SAPS  H18R 7822   1.923   6.331   9.390  1.3820 -1.1204  0.6541
   83SAPS  H18S 7823   1.985   6.173   9.318 -0.6362 -0.5598  0.9133
   83SAPS  C219 7824   1.938   6.323   9.168 -0.1819  0.3118  0.2294
   83SAPS  H19R 7825   1.994   6.252   9.103 -0.1928  1.3893 -0.9678
   83SAPS  H19S 7826   1.957   6.426   9.130 -0.0703  0.2203  0.0352
   83SAPS  C220 7827   1.787   6.308   9.154  0.1830 -0.3820 -0.7669
   83SAPS  H20R 7828   1.730   6.381   9.216 -0.3975 -0.3837 -1.2956
   83SAPS  H20S 7829   1.757   6.203   9.173  1.0143 -0.3548  0.7879
   83SAPS  H20T 7830   1.760   6.339   9.051 -1.2220  1.6742  0.1663
   83SAPS   C33 7831   2.892   7.027  10.174 -0.1985 -0.5405 -1.2941
   83SAPS   H3X 7832   2.967   6.956  10.135 -0.5409 -1.0815 -0.9777
   83SAPS   H3Y 7833   2.933   7.130  10.178  0.2862 -0.7497 -0.8049
   83SAPS   C34 7834   2.769   7.027  10.076 -0.2817  0.2949  0.0382
   83SAPS   H4X 7835   2.693   7.105  10.101  0.3889 -0.0908  3.5509
   83SAPS   H4Y 7836   2.725   6.925  10.080 -0.8826  0.6093  2.1253
   83SAPS   C35 7837   2.819   7.056   9.932 -0.0633 -0.6554  0.1166
   83SAPS   H5X 7838   2.902   6.984   9.913 -0.9427 -1.6891  0.1860
   83SAPS   H5Y 7839   2.863   7.158   9.940  0.1068 -0.7251  0.0842
   83SAPS   C36 7840   2.716   7.045   9.821  0.8032  0.0145  0.3579
   83SAPS   H6X 7841   2.636   7.110   9.865  0.5523 -0.5616  0.7510
   83SAPS   H6Y 7842   2.679   6.941   9.829  3.5464 -1.1597 -1.7302
   83SAPS   C37 7843   2.756   7.088   9.679 -0.1662 -0.0862  0.0926
   83SAPS   H7X 7844   2.853   7.038   9.654 -1.6440 -2.8991 -0.2897
   83SAPS   H7Y 7845   2.795   7.191   9.676 -1.5101  0.4233 -0.2009
   83SAPS   C38 7846   2.646   7.067   9.578  0.1235 -0.1284 -0.4546
   83SAPS   H8X 7847   2.554   7.121   9.610 -0.4260  0.1712 -2.4207
   83SAPS   H8Y 7848   2.633   6.958   9.560  3.1906 -0.3785 -1.3987
   83SAPS   C39 7849   2.679   7.116   9.439  0.1013 -0.0341 -0.4328
   83SAPS   H9X 7850   2.596   7.086   9.371  0.6046 -0.9170 -0.6670
   83SAPS   H9Y 7851   2.774   7.070   9.405  1.7792  2.2933  0.9810
   83SAPS  C310 7852   2.698   7.269   9.434  0.0527 -0.1056  0.1982
   83SAPS  H10X 7853   2.786   7.295   9.497 -0.1939  2.0409 -0.2900
   83SAPS  H10Y 7854   2.610   7.312   9.486 -1.6822 -1.2193 -1.7145
   83SAPS  C311 7855   2.707   7.330   9.287 -0.8644  0.7644  0.4972
   83SAPS  H11X 7856   2.717   7.440   9.295 -0.3816  0.8134 -0.6303
   83SAPS  H11Y 7857   2.619   7.310   9.222  0.5374 -1.6151 -0.7397
   83SAPS  C312 7858   2.832   7.281   9.216  0.3912  0.0677 -0.4358
   83SAPS  H12X 7859   2.827   7.178   9.176  1.0614 -0.8578  1.7832
   83SAPS  H12Y 7860   2.917   7.298   9.285  0.5794  2.2010 -1.1618
   83SAPS  C313 7861   2.877   7.368   9.091 -0.2132  0.5407 -0.0180
   83SAPS  H13X 7862   2.849   7.473   9.115  0.6630  0.5347  1.1230
   83SAPS  H13Y 7863   2.826   7.349   8.994  0.6540  1.6056 -0.6967
   83SAPS  C314 7864   3.029   7.351   9.063  0.1732  0.0748  0.0966
   83SAPS  H14X 7865   3.043   7.244   9.041  2.1112  0.6207 -1.4636
   83SAPS  H14Y 7866   3.086   7.386   9.153  0.1742  0.8546 -0.1996
   83SAPS  C315 7867   3.076   7.460   8.952  0.3461  0.4533  0.2239
   83SAPS  H15X 7868   3.058   7.563   8.989  1.1077  0.5586  0.3116
   83SAPS  H15Y 7869   3.018   7.452   8.857 -0.9629 -0.1118  1.0522
   83SAPS  C316 7870   3.222   7.439   8.912 -0.8297 -0.0585  0.0118
   83SAPS  H16X 7871   3.239   7.338   8.869 -0.1461 -1.3285  3.1124
   83SAPS  H16Y 7872   3.280   7.434   9.007  0.7521 -0.6123 -0.9818
   83SAPS  C317 7873   3.264   7.556   8.823  0.7746  0.1560 -1.2767
   83SAPS  H17X 7874   3.226   7.650   8.870 -0.0778  0.8834 -3.3772
   83SAPS  H17Y 7875   3.229   7.553   8.718 -2.2353 -0.2961 -0.3194
   83SAPS  C318 7876   3.421   7.587   8.817  0.0382  0.2138  0.1178
   83SAPS  H18X 7877   3.463   7.484   8.814 -0.1651  0.1002  1.0680
   83SAPS  H18Y 7878   3.453   7.639   8.910  1.5786 -1.0402  0.3124
   83SAPS  H18Z 7879   3.458   7.653   8.736  1.9697 -0.6486  0.2713
   84SAPS     N 7880   4.743   5.725  11.532  0.3337 -0.4652 -0.9065
   84SAPS   HN1 7881   4.766   5.826  11.529 -2.3342  0.2268  0.6304
   84SAPS   HN2 7882   4.746   5.686  11.628 -3.0665  0.9407 -0.1787
   84SAPS   HN3 7883   4.819   5.684  11.474  1.1761  1.1938 -1.0095
   84SAPS   C12 7884   4.605   5.708  11.479  0.1180 -0.0079 -0.4755
   84SAPS  H12A 7885   4.577   5.604  11.472 -1.6689  0.4335 -0.1043
   84SAPS   C13 7886   4.485   5.776  11.554 -0.2767 -0.3241 -0.0607
   84SAPS  O13A 7887   4.509   5.813  11.669  0.0321  0.1810  0.0124
   84SAPS  O13B 7888   4.370   5.779  11.500 -0.8799  0.3424  0.2063
   84SAPS   C11 7889   4.597   5.772  11.342  0.2849 -0.0114 -0.2399
   84SAPS  H11A 7890   4.594   5.882  11.353 -2.1758 -0.0893  0.2001
   84SAPS  H11B 7891   4.497   5.745  11.303  0.1775 -0.2004  0.1653
   84SAPS     P 7892   4.728   5.811  11.118  0.0295  0.0246 -0.2954
   84SAPS   O13 7893   4.727   5.955  11.136 -0.2741  0.1372 -0.8538
   84SAPS   O14 7894   4.847   5.747  11.057  0.1399 -0.1293 -0.0419
   84SAPS   O12 7895   4.698   5.733  11.250 -0.0941  0.1365  0.5286
   84SAPS   O11 7896   4.607   5.754  11.046  0.0819  0.0448  0.1855
   84SAPS    C1 7897   4.483   5.821  11.008 -0.1138 -0.5120  0.0318
   84SAPS    HA 7898   4.399   5.754  11.038 -1.0356  0.4669 -0.3335
   84SAPS    HB 7899   4.470   5.924  11.048  1.9136 -0.0287 -0.4619
   84SAPS    C2 7900   4.480   5.836  10.855 -0.3801 -0.0838 -0.0422
   84SAPS    HS 7901   4.491   5.732  10.817  0.9870 -0.8249  2.3075
   84SAPS   O21 7902   4.587   5.920  10.810  0.2059  0.1527 -0.2540
   84SAPS   C21 7903   4.660   5.881  10.706 -0.3906  0.2608 -0.8732
   84SAPS   O22 7904   4.645   5.779  10.642 -0.2008 -0.0116 -0.3901
   84SAPS   C22 7905   4.775   5.970  10.697 -0.1479  0.0626 -0.1382
   84SAPS   H2R 7906   4.761   6.056  10.766  0.9496 -0.8816  1.2827
   84SAPS   H2S 7907   4.863   5.914  10.736  0.6020  0.8771 -0.6213
   84SAPS    C3 7908   4.347   5.904  10.811 -0.7880  0.3540  0.3456
   84SAPS    HX 7909   4.358   6.008  10.849 -0.2763  0.7323 -0.7976
   84SAPS    HY 7910   4.259   5.852  10.854  0.5989 -1.0160  1.5799
   84SAPS   O31 7911   4.343   5.906  10.666  0.4002  0.0089 -0.6956
   84SAPS   C31 7912   4.266   5.999  10.611  0.0245 -0.2862  0.1662
   84SAPS   O32 7913   4.200   6.074  10.679  0.2671  0.0761  0.0852
   84SAPS   C32 7914   4.265   5.976  10.461 -0.4027  0.1607 -0.3070
   84SAPS   H2X 7915   4.234   5.870  10.462  0.5052 -0.1034  0.2021
   84SAPS   H2Y 7916   4.367   5.977  10.417 -1.0567  2.2354 -1.8790
   84SAPS   C23 7917   4.799   6.027  10.557  0.0272 -0.4872 -0.4491
   84SAPS   H3R 7918   4.846   5.955  10.486  0.1971 -2.1294  1.3047
   84SAPS   H3S 7919   4.879   6.101  10.582  0.0107 -0.3731 -0.7272
   84SAPS   C24 7920   4.676   6.084  10.477 -0.8483  0.5346 -0.0398
   84SAPS   H4R 7921   4.636   5.990  10.434  0.1766  0.0793 -0.0222
   84SAPS   H4S 7922   4.725   6.138  10.393  0.8443 -0.2692  0.4013
   84SAPS   C25 7923   4.593   6.176  10.567 -0.1675 -0.5246 -0.3756
   84SAPS   H5R 7924   4.633   6.195  10.667  1.2210  2.0022 -1.3525
   84SAPS   C26 7925   4.498   6.259  10.518  0.6800  0.1289 -0.6016
   84SAPS   H6R 7926   4.447   6.318  10.596  1.7932 -1.3695  1.3267
   84SAPS   C27 7927   4.456   6.274  10.372  0.2733  0.6857 -0.3976
   84SAPS   H7R 7928   4.347   6.254  10.375  0.4143 -0.5118 -2.6015
   84SAPS   H7S 7929   4.482   6.198  10.296 -1.1190 -0.2330  0.0427
   84SAPS   C28 7930   4.487   6.410  10.313 -0.1185  0.0267  0.1557
   84SAPS   H8R 7931   4.541   6.471  10.387 -2.7491  0.3240  1.8932
   84SAPS   C29 7932   4.478   6.452  10.185 -0.1907  0.5599 -0.0173
   84SAPS   H9R 7933   4.510   6.551  10.149  1.0679 -0.0389 -0.5512
   84SAPS  C210 7934   4.424   6.363  10.070 -0.2701 -0.2197 -0.4812
   84SAPS  H10R 7935   4.381   6.268  10.109  1.4454 -0.7095  0.2834
   84SAPS  H10S 7936   4.510   6.336  10.006 -0.5686 -0.5950 -0.7289
   84SAPS  C211 7937   4.308   6.426   9.987  0.1462 -0.0382  0.5771
   84SAPS  H11R 7938   4.221   6.460  10.046 -0.6254  2.8261 -2.1180
   84SAPS  C212 7939   4.310   6.452   9.857 -0.4644  0.0614  0.2236
   84SAPS  H12R 7940   4.217   6.497   9.818 -0.4702  0.9953  1.2983
   84SAPS  C213 7941   4.428   6.436   9.769 -0.2107 -0.3632 -0.3356
   84SAPS  H13R 7942   4.490   6.345   9.785 -0.3302 -0.5462 -0.9237
   84SAPS  H13S 7943   4.498   6.522   9.786 -1.6469  1.6462 -4.1742
   84SAPS  C214 7944   4.419   6.450   9.617 -0.0285 -0.3962  0.0276
   84SAPS  H14R 7945   4.487   6.529   9.582  1.5632 -0.7902  2.1031
   84SAPS  C215 7946   4.342   6.382   9.527  0.6985 -0.3422  0.5680
   84SAPS  H15R 7947   4.368   6.413   9.424 -2.6262 -0.1750 -0.2892
   84SAPS  C216 7948   4.236   6.280   9.555  0.2130 -1.0810  0.0719
   84SAPS  H16R 7949   4.137   6.322   9.585 -0.4782 -3.2938  1.0129
   84SAPS  H16S 7950   4.275   6.218   9.639  1.0561 -2.6950 -1.4918
   84SAPS  C217 7951   4.212   6.203   9.425  0.1698  0.1134 -0.7178
   84SAPS  H17R 7952   4.140   6.121   9.449  0.3687 -0.1642 -1.0626
   84SAPS  H17S 7953   4.308   6.155   9.396 -0.4527 -0.5909 -1.6490
   84SAPS  C218 7954   4.139   6.282   9.316 -0.2644 -0.3464  0.7353
   84SAPS  H18R 7955   4.203   6.358   9.266  0.9797 -0.0183  2.7830
   84SAPS  H18S 7956   4.066   6.344   9.371  0.0488  0.9732 -0.3188
   84SAPS  C219 7957   4.085   6.199   9.207  0.2295  0.0960  0.6616
   84SAPS  H19R 7958   4.026   6.116   9.250  0.5632  0.0258  0.9918
   84SAPS  H19S 7959   4.159   6.154   9.137  0.7373 -0.1322  1.3402
   84SAPS  C220 7960   3.998   6.285   9.108 -0.6897 -0.5259 -0.2310
   84SAPS  H20R 7961   3.927   6.342   9.170 -0.6134  1.8742 -2.2549
   84SAPS  H20S 7962   3.933   6.219   9.046 -1.7105  2.0747 -1.9916
   84SAPS  H20T 7963   4.066   6.346   9.045 -1.1591  2.5970  2.1594
   84SAPS   C33 7964   4.159   6.047  10.373 -0.0027 -0.6912  0.0328
   84SAPS   H3X 7965   4.152   6.157  10.388  0.4382 -0.8092  1.1651
   84SAPS   H3Y 7966   4.063   6.003  10.408 -0.8421  2.7266  2.2198
   84SAPS   C34 7967   4.186   6.013  10.221  0.4553 -0.0995  0.0069
   84SAPS   H4X 7968   4.261   6.091  10.195  1.6019 -0.9391  0.7538
   84SAPS   H4Y 7969   4.093   6.028  10.162  0.9313 -0.9533 -0.9703
   84SAPS   C35 7970   4.230   5.876  10.195  0.3321 -0.6779 -0.1360
   84SAPS   H5X 7971   4.179   5.805  10.264 -0.7352  0.3555  0.1608
   84SAPS   H5Y 7972   4.340   5.867  10.206  0.5432  0.4578 -1.1955
   84SAPS   C36 7973   4.181   5.836  10.050 -0.9412 -0.4993  0.1128
   84SAPS   H6X 7974   4.254   5.755  10.026  1.1308  1.9767 -2.2623
   84SAPS   H6Y 7975   4.209   5.922   9.985 -2.1189  1.1442  1.7158
   84SAPS   C37 7976   4.049   5.772  10.036  0.4388  0.0053  0.2129
   84SAPS   H7X 7977   3.970   5.844  10.065  0.6162  1.6102 -3.0655
   84SAPS   H7Y 7978   4.042   5.681  10.100 -0.4043  1.4306  2.1754
   84SAPS   C38 7979   4.015   5.719   9.895  0.8017 -0.5234  1.0938
   84SAPS   H8X 7980   3.908   5.692   9.892  0.8844 -0.5824 -2.4727
   84SAPS   H8Y 7981   4.077   5.634   9.860  1.0588  0.3084 -0.5263
   84SAPS   C39 7982   4.021   5.821   9.778  0.1057 -0.6198 -0.3319
   84SAPS   H9X 7983   4.092   5.903   9.803  0.7272 -1.4764  0.7693
   84SAPS   H9Y 7984   3.929   5.882   9.763  1.1887  0.8035 -1.2881
   84SAPS  C310 7985   4.082   5.757   9.651  0.4019 -0.1714 -0.0578
   84SAPS  H10X 7986   3.996   5.696   9.616  0.3683  0.0462 -0.3584
   84SAPS  H10Y 7987   4.166   5.688   9.672  0.6346  0.3358  0.7100
   84SAPS  C311 7988   4.124   5.867   9.548  0.8034  0.0834 -0.0933
   84SAPS  H11X 7989   4.223   5.905   9.581  0.9933  0.7734 -1.4169
   84SAPS  H11Y 7990   4.041   5.941   9.552  1.4158  0.7293  1.4576
   84SAPS  C312 7991   4.128   5.820   9.398 -0.3177 -0.0506 -0.1448
   84SAPS  H12X 7992   4.217   5.755   9.384 -0.3545  0.2253 -1.7873
   84SAPS  H12Y 7993   4.143   5.900   9.321 -1.2841  1.7309  1.4767
   84SAPS  C313 7994   4.015   5.744   9.355  0.6256 -0.4175 -0.4379
   84SAPS  H13X 7995   3.928   5.792   9.406  0.0132  1.0801 -2.8178
   84SAPS  H13Y 7996   4.025   5.637   9.384 -0.3225 -0.6010 -0.7775
   84SAPS  C314 7997   3.968   5.734   9.201  0.1991 -0.4830 -0.5545
   84SAPS  H14X 7998   3.996   5.640   9.148 -0.8133  0.2753 -2.4773
   84SAPS  H14Y 7999   4.024   5.819   9.157 -0.3338  0.3105  0.2868
   84SAPS  C315 8000   3.817   5.762   9.180 -0.3710 -0.2439 -0.5033
   84SAPS  H15X 8001   3.790   5.803   9.081  1.4227 -3.9849 -2.6123
   84SAPS  H15Y 8002   3.789   5.834   9.260  1.3821 -1.3064  1.1128
   84SAPS  C316 8003   3.732   5.636   9.200  0.2916 -0.2413 -0.5752
   84SAPS  H16X 8004   3.766   5.577   9.288 -2.0991  1.3045  1.4712
   84SAPS  H16Y 8005   3.729   5.573   9.109 -0.0275 -2.0977  0.7057
   84SAPS  C317 8006   3.592   5.689   9.218 -0.4841  0.6787  0.0881
   84SAPS  H17X 8007   3.576   5.759   9.302  1.2686  0.3313  0.7293
   84SAPS  H17Y 8008   3.516   5.608   9.222 -0.3575  0.5755  0.3860
   84SAPS  C318 8009   3.536   5.766   9.103  0.7866 -0.2597  0.2895
   84SAPS  H18X 8010   3.513   5.713   9.007 -1.2167  0.7500  0.1870
   84SAPS  H18Y 8011   3.600   5.853   9.075  0.4840 -0.3803 -0.8340
   84SAPS  H18Z 8012   3.432   5.798   9.123 -0.3186 -1.6872 -2.8058
   85SAPS     N 8013   0.750   1.255  11.276  0.5551  0.3887  0.0376
   85SAPS   HN1 8014   0.690   1.339  11.270 -0.0970 -0.1701 -1.5423
   85SAPS   HN2 8015   0.700   1.172  11.236 -1.0638  1.1627  0.4019
   85SAPS   HN3 8016   0.770   1.228  11.374 -1.5772  0.2449  0.4696
   85SAPS   C12 8017   0.884   1.274  11.216 -0.8139 -0.0502  0.0419
   85SAPS  H12A 8018   0.861   1.327  11.124  1.8696 -0.0544 -0.6991
   85SAPS   C13 8019   0.974   1.368  11.303  0.5944 -0.6016  0.3005
   85SAPS  O13A 8020   0.910   1.444  11.385  0.0536  0.0177 -0.2876
   85SAPS  O13B 8021   1.072   1.408  11.234 -0.2670 -0.2935  0.5879
   85SAPS   C11 8022   0.950   1.135  11.189 -0.0735  0.5995 -0.2964
   85SAPS  H11A 8023   0.956   1.090  11.291 -4.1921  3.5112  1.3924
   85SAPS  H11B 8024   1.045   1.156  11.136  0.6780 -0.3238  0.6852
   85SAPS     P 8025   0.882   0.980  10.971 -0.2848 -0.1766  0.2358
   85SAPS   O13 8026   0.934   0.840  11.001 -0.0194  0.1589 -0.5063
   85SAPS   O14 8027   0.754   0.989  10.899 -0.1846 -0.2661 -0.2109
   85SAPS   O12 8028   0.864   1.054  11.111  0.5255  0.2030  0.4299
   85SAPS   O11 8029   0.996   1.042  10.883 -0.2687 -0.1239 -0.1209
   85SAPS    C1 8030   0.975   1.031  10.735  0.1909  0.6460 -0.5254
   85SAPS    HA 8031   0.948   0.928  10.702 -2.4661  1.2900 -0.4349
   85SAPS    HB 8032   0.893   1.090  10.689 -0.5279 -0.5705 -0.8338
   85SAPS    C2 8033   1.104   1.075  10.663  0.3931 -0.1605  0.7363
   85SAPS    HS 8034   1.145   1.157  10.726  1.3461 -0.4558  0.5121
   85SAPS   O21 8035   1.062   1.111  10.522 -0.5648 -0.2452  0.3723
   85SAPS   C21 8036   1.136   1.204  10.474 -0.3986 -0.3088 -0.4961
   85SAPS   O22 8037   1.227   1.261  10.528  0.1278 -0.5733  0.3223
   85SAPS   C22 8038   1.072   1.243  10.339 -0.4528  0.0743 -0.2297
   85SAPS   H2R 8039   1.092   1.155  10.274  1.8825  0.1063  0.3772
   85SAPS   H2S 8040   0.967   1.270  10.362  0.0139  1.5632  0.1793
   85SAPS    C3 8041   1.206   0.959  10.660 -0.4955 -0.4864 -0.0910
   85SAPS    HX 8042   1.148   0.878  10.611 -0.6127  0.3433 -1.3345
   85SAPS    HY 8043   1.248   0.926  10.758  1.2180 -0.1310 -0.6897
   85SAPS   O31 8044   1.319   0.984  10.569  0.2928  0.1103  0.1069
   85SAPS   C31 8045   1.421   1.047  10.619 -0.4411  0.1223 -0.1125
   85SAPS   O32 8046   1.419   1.106  10.729  0.4252  0.4117  0.3040
   85SAPS   C32 8047   1.548   1.029  10.531 -0.1304 -0.2013  0.3469
   85SAPS   H2X 8048   1.568   0.920  10.519  0.6443  0.0654 -0.8605
   85SAPS   H2Y 8049   1.639   1.068  10.582 -0.3527 -0.4855  0.9666
   85SAPS   C23 8050   1.159   1.362  10.280  0.1960 -0.0815  0.0699
   85SAPS   H3R 8051   1.262   1.323  10.269  0.2469  0.3484 -1.0725
   85SAPS   H3S 8052   1.159   1.438  10.361  0.7711 -0.3992  0.3689
   85SAPS   C24 8053   1.119   1.421  10.145  0.1566  0.6225 -0.3755
   85SAPS   H4R 8054   1.123   1.343  10.065  1.8081  0.5052 -0.1922
   85SAPS   H4S 8055   1.182   1.506  10.114 -1.7578  2.1538 -0.1915
   85SAPS   C25 8056   0.973   1.464  10.161  0.3942 -0.4308  0.5605
   85SAPS   H5R 8057   0.971   1.567  10.198  1.6485 -0.0816 -0.2920
   85SAPS   C26 8058   0.861   1.395  10.123  0.2789  0.4593  0.1532
   85SAPS   H6R 8059   0.764   1.442  10.146 -0.6440 -0.7483 -1.2224
   85SAPS   C27 8060   0.840   1.258  10.059  0.2500  0.4506 -0.0005
   85SAPS   H7R 8061   0.920   1.190  10.097  0.6547  0.3857 -0.9619
   85SAPS   H7S 8062   0.844   1.270   9.949 -2.2122  0.3000 -0.1269
   85SAPS   C28 8063   0.700   1.216  10.088 -0.0575  0.2140 -0.7793
   85SAPS   H8R 8064   0.658   1.233  10.189  0.8457 -2.3613  0.0504
   85SAPS   C29 8065   0.606   1.165  10.008  0.2962 -0.0378  0.2961
   85SAPS   H9R 8066   0.504   1.151  10.048  0.0387 -0.2081 -0.3998
   85SAPS  C210 8067   0.616   1.133   9.860  0.0604 -0.5976 -0.6788
   85SAPS  H10R 8068   0.576   1.033   9.832  0.4491 -0.1521 -2.8836
   85SAPS  H10S 8069   0.724   1.117   9.837  0.2587 -0.7508  0.3290
   85SAPS  C211 8070   0.552   1.248   9.784  0.4559  0.4497  0.5276
   85SAPS  H11R 8071   0.504   1.321   9.849 -2.1545 -0.6540 -0.1146
   85SAPS  C212 8072   0.538   1.257   9.649 -0.4093  0.2522  0.0687
   85SAPS  H12R 8073   0.491   1.348   9.608  0.6139 -0.2754 -2.3890
   85SAPS  C213 8074   0.583   1.161   9.544 -0.1198 -0.0219 -0.2401
   85SAPS  H13R 8075   0.567   1.057   9.581  0.1634  0.6948  1.9561
   85SAPS  H13S 8076   0.693   1.180   9.544 -0.1907  0.3864 -0.0148
   85SAPS  C214 8077   0.521   1.152   9.411 -0.6821  0.6254  0.2334
   85SAPS  H14R 8078   0.421   1.198   9.401 -0.7170  1.0547  2.4588
   85SAPS  C215 8079   0.592   1.109   9.302  0.2250  0.1198 -0.1002
   85SAPS  H15R 8080   0.548   1.110   9.202  1.9833  0.8462 -0.8960
   85SAPS  C216 8081   0.727   1.041   9.295  0.2209  0.5703  0.2293
   85SAPS  H16R 8082   0.727   0.942   9.244 -0.7683 -0.4500  2.1303
   85SAPS  H16S 8083   0.763   1.016   9.397  1.1995  0.0111 -0.2475
   85SAPS  C217 8084   0.833   1.146   9.259 -0.9927  0.3099 -0.3337
   85SAPS  H17R 8085   0.928   1.094   9.284  0.3401  2.0477 -1.6881
   85SAPS  H17S 8086   0.815   1.231   9.328 -0.1037  0.6909 -0.5681
   85SAPS  C218 8087   0.843   1.184   9.114 -1.1451 -0.0262  0.1408
   85SAPS  H18R 8088   0.932   1.247   9.093  1.7930 -3.8536  0.5919
   85SAPS  H18S 8089   0.755   1.247   9.089 -0.6166  0.4642 -0.4923
   85SAPS  C219 8090   0.835   1.075   9.005  0.1738 -0.2979  0.3149
   85SAPS  H19R 8091   0.729   1.041   9.006  0.4804 -1.2435  1.3047
   85SAPS  H19S 8092   0.897   0.990   9.040 -0.7045 -0.5097  1.4022
   85SAPS  C220 8093   0.890   1.121   8.857 -0.7937  0.4133  1.4816
   85SAPS  H20R 8094   0.837   1.206   8.808 -0.2370  0.2152  0.5216
   85SAPS  H20S 8095   0.876   1.031   8.794  1.3430  1.1784 -0.1461
   85SAPS  H20T 8096   0.998   1.146   8.868 -0.7264  0.2554  1.1661
   85SAPS   C33 8097   1.530   1.105  10.403  0.3356  0.3292 -0.4867
   85SAPS   H3X 8098   1.630   1.106  10.353  0.4078 -3.3567 -0.5228
   85SAPS   H3Y 8099   1.507   1.213  10.416  0.1866  0.0171  2.0327
   85SAPS   C34 8100   1.431   1.049  10.301  0.3166 -0.6685  0.2820
   85SAPS   H4X 8101   1.327   1.083  10.320  0.4383  0.0071 -0.2512
   85SAPS   H4Y 8102   1.430   0.938  10.305  0.2420 -0.7049 -0.7513
   85SAPS   C35 8103   1.485   1.087  10.161 -0.2533  0.8111 -0.1435
   85SAPS   H5X 8104   1.586   1.045  10.144 -0.7590 -0.8963  0.8873
   85SAPS   H5Y 8105   1.488   1.195  10.136  0.8976  0.5999 -0.9283
   85SAPS   C36 8106   1.393   1.026  10.048 -0.1224 -0.1618 -0.5364
   85SAPS   H6X 8107   1.293   1.071  10.065 -0.5481 -1.3603  0.1866
   85SAPS   H6Y 8108   1.389   0.915  10.050  0.6380 -0.2010 -0.8607
   85SAPS   C37 8109   1.445   1.072   9.916  0.4529 -0.2775 -0.2450
   85SAPS   H7X 8110   1.528   1.002   9.890  0.9865 -0.0761  0.8724
   85SAPS   H7Y 8111   1.494   1.171   9.919  0.3921 -0.1947 -1.7967
   85SAPS   C38 8112   1.340   1.076   9.796 -0.5422 -0.1371 -0.4465
   85SAPS   H8X 8113   1.281   0.982   9.789 -0.6161 -0.0395 -1.2069
   85SAPS   H8Y 8114   1.399   1.094   9.703  1.2524  0.6775  0.8343
   85SAPS   C39 8115   1.245   1.193   9.803 -0.3447 -0.3427 -0.4080
   85SAPS   H9X 8116   1.310   1.282   9.813 -0.1636 -0.5320  0.1895
   85SAPS   H9Y 8117   1.183   1.184   9.895 -1.7627 -1.5507 -1.4535
   85SAPS  C310 8118   1.144   1.214   9.686 -0.0007 -0.0046 -0.4145
   85SAPS  H10X 8119   1.088   1.309   9.698 -2.4253 -1.3328 -0.9971
   85SAPS  H10Y 8120   1.068   1.134   9.694 -1.9293  1.7164 -1.3632
   85SAPS  C311 8121   1.209   1.213   9.553  0.5717 -0.1889 -0.7085
   85SAPS  H11X 8122   1.257   1.122   9.511  1.2777 -0.3404  0.4136
   85SAPS  H11Y 8123   1.295   1.283   9.557  0.3707  0.1023 -1.3802
   85SAPS  C312 8124   1.111   1.277   9.453  0.3121 -0.1953 -0.8836
   85SAPS  H12X 8125   1.088   1.383   9.477  0.7796 -0.5042  1.0293
   85SAPS  H12Y 8126   1.015   1.221   9.451  0.5030 -0.6657  1.6539
   85SAPS  C313 8127   1.172   1.276   9.313 -0.5178  0.4333 -0.0483
   85SAPS  H13X 8128   1.116   1.206   9.247  0.3361  0.6391 -1.0233
   85SAPS  H13Y 8129   1.271   1.226   9.324 -0.7107  0.5404  2.2648
   85SAPS  C314 8130   1.199   1.409   9.255 -0.3384  0.3004  0.4180
   85SAPS  H14X 8131   1.287   1.457   9.301  1.1141  0.7515 -2.6658
   85SAPS  H14Y 8132   1.125   1.485   9.286 -0.9574 -0.3269  0.4977
   85SAPS  C315 8133   1.227   1.414   9.106 -0.4434 -0.0363  0.1773
   85SAPS  H15X 8134   1.263   1.517   9.085 -2.4267  0.7975  0.7791
   85SAPS  H15Y 8135   1.141   1.396   9.037  0.1592  1.6786 -1.0585
   85SAPS  C316 8136   1.358   1.336   9.074 -0.1479  0.2152  0.1174
   85SAPS  H16X 8137   1.343   1.232   9.109 -2.3139  0.0827 -1.1296
   85SAPS  H16Y 8138   1.441   1.382   9.133 -1.0268  1.3720  0.4800
   85SAPS  C317 8139   1.379   1.333   8.924 -0.1427  1.0128 -0.1127
   85SAPS  H17X 8140   1.366   1.429   8.871 -2.0492 -0.2597 -2.0790
   85SAPS  H17Y 8141   1.303   1.263   8.883  1.5194 -0.3338 -0.9703
   85SAPS  C318 8142   1.508   1.275   8.870 -0.5321 -0.0673  0.0731
   85SAPS  H18X 8143   1.496   1.275   8.760 -1.9862  2.9912  0.1679
   85SAPS  H18Y 8144   1.530   1.176   8.916  0.0656  0.3190  0.6275
   85SAPS  H18Z 8145   1.597   1.333   8.903  0.0201 -1.6653  1.4852
   86SAPS     N 8146   3.395   1.750  11.083  0.2044  0.0556  1.2188
   86SAPS   HN1 8147   3.326   1.778  11.157 -1.2871 -1.7164  0.5193
   86SAPS   HN2 8148   3.490   1.754  11.123  1.9526  2.4752 -2.8822
   86SAPS   HN3 8149   3.396   1.827  11.013  1.7584 -0.7479  0.3512
   86SAPS   C12 8150   3.366   1.617  11.039 -0.8234 -0.0468  0.2064
   86SAPS  H12A 8151   3.428   1.558  11.105 -1.7606 -2.2365 -0.8134
   86SAPS   C13 8152   3.209   1.567  11.049 -0.6225  0.3699 -0.6608
   86SAPS  O13A 8153   3.125   1.658  11.074 -1.2597  0.1352 -0.1177
   86SAPS  O13B 8154   3.174   1.442  11.053  0.0592  0.3446  0.3015
   86SAPS   C11 8155   3.414   1.591  10.894  0.6266  0.0764  0.2751
   86SAPS  H11A 8156   3.346   1.637  10.819 -0.7483 -0.8181  0.9532
   86SAPS  H11B 8157   3.394   1.482  10.885 -0.5586  0.2939  0.2722
   86SAPS     P 8158   3.651   1.519  10.817 -0.0395 -0.2564 -0.5549
   86SAPS   O13 8159   3.783   1.581  10.780  0.1216 -0.8885 -0.3737
   86SAPS   O14 8160   3.658   1.400  10.911  0.0907  0.7237  0.3368
   86SAPS   O12 8161   3.551   1.626  10.879 -0.4808  0.1593 -0.3297
   86SAPS   O11 8162   3.580   1.483  10.688 -0.0138 -0.6040 -0.1970
   86SAPS    C1 8163   3.581   1.545  10.557  0.4991  0.3490  0.4765
   86SAPS    HA 8164   3.650   1.633  10.564  0.7176  0.0462  2.6991
   86SAPS    HB 8165   3.621   1.474  10.482  0.2064 -0.1310  0.7701
   86SAPS    C2 8166   3.442   1.614  10.528 -0.4930 -0.3289 -0.1903
   86SAPS    HS 8167   3.407   1.682  10.609 -1.5405  0.8035 -1.5502
   86SAPS   O21 8168   3.350   1.509  10.499  0.2549  0.1736 -0.5875
   86SAPS   C21 8169   3.230   1.536  10.519 -0.0234 -0.2440 -0.1484
   86SAPS   O22 8170   3.185   1.647  10.554  0.5012 -0.2319  0.2197
   86SAPS   C22 8171   3.147   1.419  10.478  0.3621  0.3009 -0.3300
   86SAPS   H2R 8172   3.154   1.407  10.368 -1.5392 -0.9225 -0.3410
   86SAPS   H2S 8173   3.199   1.329  10.517 -0.2811  0.0143 -0.1194
   86SAPS    C3 8174   3.437   1.711  10.401 -0.7052 -0.3512 -0.1514
   86SAPS    HX 8175   3.497   1.800  10.429 -2.3245  0.3791  1.1033
   86SAPS    HY 8176   3.339   1.762  10.388  0.4296  2.0711  0.5684
   86SAPS   O31 8177   3.491   1.643  10.283  0.4298  0.1329  0.0370
   86SAPS   C31 8178   3.397   1.585  10.202  0.3927  1.3579  0.2000
   86SAPS   O32 8179   3.277   1.585  10.226  0.2372 -0.5529 -0.1310
   86SAPS   C32 8180   3.470   1.533  10.075 -0.0550  0.0389  0.6191
   86SAPS   H2X 8181   3.473   1.422  10.076 -0.6253  0.0233  1.4456
   86SAPS   H2Y 8182   3.572   1.575  10.072 -0.3462  0.7084 -2.9913
   86SAPS   C23 8183   3.002   1.434  10.517  0.4803  0.3484 -0.1243
   86SAPS   H3R 8184   2.966   1.533  10.481  3.4090  1.7665  0.7130
   86SAPS   H3S 8185   3.004   1.428  10.628 -1.1361 -0.4533 -0.1157
   86SAPS   C24 8186   2.900   1.336  10.458  0.3387  0.0164  0.0636
   86SAPS   H4R 8187   2.907   1.233  10.499 -1.5033 -0.0487  0.2767
   86SAPS   H4S 8188   2.929   1.329  10.351  2.2880  3.1312  0.3396
   86SAPS   C25 8189   2.760   1.385  10.488  0.5713  0.4435  0.2244
   86SAPS   H5R 8190   2.728   1.377  10.593  1.6498 -0.2705  0.5063
   86SAPS   C26 8191   2.677   1.437  10.397 -1.0234  0.0970 -0.4102
   86SAPS   H6R 8192   2.577   1.472  10.426 -1.1169  0.2512 -0.9277
   86SAPS   C27 8193   2.710   1.454  10.247 -0.5411  0.3399 -0.5898
   86SAPS   H7R 8194   2.700   1.354  10.198  0.1073  0.2459 -0.5444
   86SAPS   H7S 8195   2.816   1.480  10.225 -0.3581 -0.8592 -1.1827
   86SAPS   C28 8196   2.631   1.563  10.177 -0.3696  0.4867 -0.0162
   86SAPS   H8R 8197   2.559   1.616  10.241 -0.8664  1.5461 -1.4320
   86SAPS   C29 8198   2.642   1.601  10.046 -0.2808 -0.4876  0.4533
   86SAPS   H9R 8199   2.572   1.680  10.016  1.1005  1.1423  1.4507
   86SAPS  C210 8200   2.746   1.551   9.952 -0.3563 -0.8304 -0.1045
   86SAPS  H10R 8201   2.803   1.462   9.989 -1.4587 -2.0855 -1.3473
   86SAPS  H10S 8202   2.805   1.639   9.919  0.4273 -1.1014  0.5578
   86SAPS  C211 8203   2.696   1.494   9.816  0.1436  0.4285 -0.2218
   86SAPS  H11R 8204   2.587   1.479   9.825  0.5353 -2.0250  0.7786
   86SAPS  C212 8205   2.766   1.449   9.708 -0.9399 -0.3677  0.0920
   86SAPS  H12R 8206   2.717   1.416   9.615 -0.9565  0.2750 -0.1357
   86SAPS  C213 8207   2.918   1.445   9.697 -0.1729 -0.0130 -0.1224
   86SAPS  H13R 8208   2.937   1.358   9.631 -1.4693 -0.6607  0.3442
   86SAPS  H13S 8209   2.966   1.427   9.795 -0.0120 -1.9248 -0.5333
   86SAPS  C214 8210   2.976   1.571   9.643  0.2723  0.4883 -0.2184
   86SAPS  H14R 8211   2.950   1.663   9.698 -0.5052  0.2710 -0.2292
   86SAPS  C215 8212   3.041   1.591   9.523 -0.1475  0.5313  0.9715
   86SAPS  H15R 8213   3.055   1.693   9.484 -1.7251 -0.6966 -3.0627
   86SAPS  C216 8214   3.061   1.472   9.426  0.4846 -0.2318  1.0616
   86SAPS  H16R 8215   2.965   1.419   9.409  0.3073 -0.0975  1.6169
   86SAPS  H16S 8216   3.128   1.397   9.474  0.3629 -2.8894 -2.7464
   86SAPS  C217 8217   3.131   1.509   9.295 -0.1075  0.4795 -0.1098
   86SAPS  H17R 8218   3.232   1.548   9.321 -1.6627  3.1299  2.1787
   86SAPS  H17S 8219   3.083   1.589   9.236  1.6170  0.1886 -1.9729
   86SAPS  C218 8220   3.165   1.380   9.211  0.0426  0.1374  0.6846
   86SAPS  H18R 8221   3.078   1.323   9.172 -0.5828  2.1238 -0.9244
   86SAPS  H18S 8222   3.222   1.317   9.282  0.6728  0.4169  0.4277
   86SAPS  C219 8223   3.243   1.419   9.091  0.4100  0.0857 -0.6070
   86SAPS  H19R 8224   3.335   1.471   9.124 -1.2409  1.3184  2.2405
   86SAPS  H19S 8225   3.181   1.494   9.038 -0.3098  0.1500  0.3095
   86SAPS  C220 8226   3.266   1.295   9.013 -0.1966 -0.3064 -0.4141
   86SAPS  H20R 8227   3.170   1.240   9.011 -0.7628  0.5220  2.2446
   86SAPS  H20S 8228   3.333   1.233   9.076  2.0418  1.9025 -0.5304
   86SAPS  H20T 8229   3.312   1.312   8.913 -0.6283 -0.3117 -0.6132
   86SAPS   C33 8230   3.383   1.558   9.947 -0.6731 -1.0383 -0.6566
   86SAPS   H3X 8231   3.359   1.666   9.940  1.4597 -0.4830  0.3597
   86SAPS   H3Y 8232   3.287   1.503   9.938 -0.5748 -0.9932 -2.0163
   86SAPS   C34 8233   3.469   1.529   9.820  0.0234 -0.5947 -0.3184
   86SAPS   H4X 8234   3.525   1.436   9.841  2.1095  0.9033  0.8765
   86SAPS   H4Y 8235   3.547   1.608   9.815  1.2279 -1.7193  0.5193
   86SAPS   C35 8236   3.375   1.527   9.697 -0.2570  0.5510  0.1455
   86SAPS   H5X 8237   3.348   1.631   9.670  5.7657  1.8402 -1.6384
   86SAPS   H5Y 8238   3.285   1.468   9.724  0.2746  0.5992  2.1530
   86SAPS   C36 8239   3.431   1.468   9.571  0.2902  0.4617 -0.1576
   86SAPS   H6X 8240   3.351   1.465   9.495  0.4778 -0.7968 -0.3185
   86SAPS   H6Y 8241   3.454   1.365   9.605 -1.0759  0.7040  1.5717
   86SAPS   C37 8242   3.555   1.546   9.517 -0.2297  0.3362 -0.5064
   86SAPS   H7X 8243   3.639   1.543   9.589  0.4167 -0.4674 -1.2949
   86SAPS   H7Y 8244   3.524   1.653   9.518 -0.4579  0.2994 -2.2083
   86SAPS   C38 8245   3.608   1.498   9.383  0.0823 -0.8757 -0.3321
   86SAPS   H8X 8246   3.523   1.481   9.314 -1.2321  2.6174  0.3362
   86SAPS   H8Y 8247   3.645   1.394   9.396  0.0463 -0.8869 -0.3209
   86SAPS   C39 8248   3.717   1.587   9.313 -0.4923  0.3201 -0.1361
   86SAPS   H9X 8249   3.787   1.623   9.391 -0.3851  0.8707 -0.4871
   86SAPS   H9Y 8250   3.666   1.669   9.258 -0.8795 -0.1020 -0.4114
   86SAPS  C310 8251   3.797   1.504   9.210  0.0564  0.4585  0.3235
   86SAPS  H10X 8252   3.730   1.457   9.135  1.1150 -0.1882 -0.2092
   86SAPS  H10Y 8253   3.857   1.423   9.256  1.3843  0.3095 -1.6459
   86SAPS  C311 8254   3.903   1.578   9.120  0.5265 -0.3643  0.0353
   86SAPS  H11X 8255   3.989   1.605   9.184 -1.7878  0.4310  2.9168
   86SAPS  H11Y 8256   3.871   1.674   9.074  0.4364 -0.5037 -0.1931
   86SAPS  C312 8257   3.945   1.483   9.002  0.2788  0.3604  0.9642
   86SAPS  H12X 8258   3.857   1.453   8.941  0.7524  0.8793  0.0102
   86SAPS  H12Y 8259   3.995   1.395   9.048 -1.3565 -1.1632 -0.0886
   86SAPS  C313 8260   4.057   1.549   8.915 -0.2219 -0.0402 -0.4370
   86SAPS  H13X 8261   4.131   1.472   8.886  1.1207  0.7786  0.7310
   86SAPS  H13Y 8262   4.098   1.629   8.981 -0.9534  0.1889 -0.2520
   86SAPS  C314 8263   4.015   1.617   8.785  0.2113 -0.7189  0.7480
   86SAPS  H14X 8264   3.984   1.539   8.712  1.8138  0.4605 -1.2728
   86SAPS  H14Y 8265   4.107   1.667   8.747 -0.0055 -1.8664 -1.3525
   86SAPS  C315 8266   3.918   1.728   8.793  0.1016  0.4211 -0.1617
   86SAPS  H15X 8267   3.950   1.806   8.865  3.8802 -1.0617 -0.1043
   86SAPS  H15Y 8268   3.825   1.679   8.829  1.7014 -2.1473  0.6330
   86SAPS  C316 8269   3.878   1.790   8.663  0.5523  0.2817 -0.1430
   86SAPS  H16X 8270   3.823   1.723   8.594  2.5796 -2.5940  0.9175
   86SAPS  H16Y 8271   3.964   1.820   8.599 -0.6512  1.4035 -1.2587
   86SAPS  C317 8272   3.788   1.917   8.691  0.3993 -0.3074  0.1351
   86SAPS  H17X 8273   3.866   1.995   8.708 -0.9161  1.2084 -0.7107
   86SAPS  H17Y 8274   3.721   1.896   8.777 -0.2815  0.8089 -0.1183
   86SAPS  C318 8275   3.708   1.960   8.569 -0.0365  0.0174 -0.0572
   86SAPS  H18X 8276   3.770   1.992   8.482  0.6367  0.0702  0.4351
   86SAPS  H18Y 8277   3.670   2.062   8.590 -0.9236 -0.5222  1.0266
   86SAPS  H18Z 8278   3.625   1.889   8.547  1.2972 -1.2476 -1.1497
   87SAPS     N 8279   3.869   1.800  10.912 -0.3498 -0.1000 -0.1174
   87SAPS   HN1 8280   3.860   1.854  10.824  1.4395 -0.4512 -0.5212
   87SAPS   HN2 8281   3.968   1.811  10.941 -0.0549 -1.9897 -0.3514
   87SAPS   HN3 8282   3.842   1.703  10.886  1.4266 -0.7246  0.3006
   87SAPS   C12 8283   3.762   1.836  11.014 -0.0092  0.4454 -0.0857
   87SAPS  H12A 8284   3.665   1.852  10.971 -0.1016  1.5856  0.5069
   87SAPS   C13 8285   3.737   1.733  11.128 -0.2470 -0.1133  0.6193
   87SAPS  O13A 8286   3.821   1.633  11.146 -0.6625 -0.4910  0.2832
   87SAPS  O13B 8287   3.636   1.752  11.198  0.3484  0.0474  0.1733
   87SAPS   C11 8288   3.815   1.968  11.070  0.2726 -0.0553 -0.8480
   87SAPS  H11A 8289   3.919   1.971  11.109  0.7775  1.8337 -2.2899
   87SAPS  H11B 8290   3.747   1.972  11.158 -1.5845 -0.6765 -2.2184
   87SAPS     P 8291   3.698   2.191  11.006  0.6148 -0.1947 -0.2929
   87SAPS   O13 8292   3.566   2.131  10.980  0.0421  0.3018 -0.5606
   87SAPS   O14 8293   3.729   2.264  11.135 -0.5070  0.0407 -0.1264
   87SAPS   O12 8294   3.802   2.071  10.978 -0.2146  0.5572  0.6801
   87SAPS   O11 8295   3.725   2.301  10.884  0.1280 -0.3844 -0.1794
   87SAPS    C1 8296   3.798   2.263  10.766 -0.0667 -0.0831  0.3187
   87SAPS    HA 8297   3.898   2.312  10.770  0.1572 -0.4859 -0.2855
   87SAPS    HB 8298   3.819   2.154  10.770  2.3041  0.2819 -1.3042
   87SAPS    C2 8299   3.727   2.293  10.626  0.5044  0.0746 -0.1402
   87SAPS    HS 8300   3.718   2.403  10.619  2.2374  0.1604 -1.2729
   87SAPS   O21 8301   3.596   2.230  10.623 -0.0746  0.0957 -0.1726
   87SAPS   C21 8302   3.491   2.304  10.667  0.0188  0.7102  0.2964
   87SAPS   O22 8303   3.499   2.410  10.718 -0.0566 -0.6367  0.0689
   87SAPS   C22 8304   3.359   2.231  10.638  0.1335 -0.1797  0.2934
   87SAPS   H2R 8305   3.333   2.171  10.728  1.2322  1.2691  1.6090
   87SAPS   H2S 8306   3.277   2.304  10.621  1.1020  0.5990 -1.1839
   87SAPS    C3 8307   3.810   2.242  10.502 -0.2814  0.8861  0.5070
   87SAPS    HX 8308   3.795   2.132  10.493  1.3189  0.7068  0.0242
   87SAPS    HY 8309   3.918   2.261  10.519 -0.1813  0.7535  0.0198
   87SAPS   O31 8310   3.762   2.294  10.371 -0.3458 -0.6961  0.0892
   87SAPS   C31 8311   3.813   2.411  10.338 -0.2730 -0.4662 -0.5371
   87SAPS   O32 8312   3.868   2.490  10.412 -0.1665 -0.1568  0.3644
   87SAPS   C32 8313   3.802   2.432  10.190 -0.2003  0.3271  0.2262
   87SAPS   H2X 8314   3.704   2.484  10.182  0.4800  1.5190 -0.5041
   87SAPS   H2Y 8315   3.794   2.330  10.146 -1.3893 -0.7195  2.7531
   87SAPS   C23 8316   3.355   2.141  10.507 -0.0951 -0.4953 -0.3703
   87SAPS   H3R 8317   3.254   2.096  10.496  0.2555 -1.6144  0.7866
   87SAPS   H3S 8318   3.424   2.053  10.514  0.2925 -0.1226  0.5439
   87SAPS   C24 8319   3.378   2.213  10.376 -0.1205  0.1009  0.4291
   87SAPS   H4R 8320   3.481   2.255  10.377 -0.3095  0.6210 -1.2744
   87SAPS   H4S 8321   3.308   2.298  10.358 -0.6615 -0.5552 -0.5920
   87SAPS   C25 8322   3.363   2.126  10.253 -0.6019 -0.4051 -0.4980
   87SAPS   H5R 8323   3.259   2.106  10.224  0.3525 -4.0178 -1.6847
   87SAPS   C26 8324   3.455   2.068  10.173  0.7313  0.6440  0.5438
   87SAPS   H6R 8325   3.427   2.011  10.083  0.6509  0.3025  0.7874
   87SAPS   C27 8326   3.604   2.077  10.185 -0.0637  0.0378 -0.0155
   87SAPS   H7R 8327   3.634   2.105  10.288  0.2770 -2.1570  0.5199
   87SAPS   H7S 8328   3.646   2.156  10.119 -0.4538 -1.1020 -1.6571
   87SAPS   C28 8329   3.689   1.957  10.147 -0.2387  0.0649 -1.0270
   87SAPS   H8R 8330   3.717   1.893  10.232  2.7533 -3.0565 -4.1959
   87SAPS   C29 8331   3.754   1.930  10.035 -0.6508  0.4489  0.6928
   87SAPS   H9R 8332   3.820   1.842  10.036  0.2387  1.1113  0.7729
   87SAPS  C210 8333   3.752   2.004   9.902 -0.1141 -0.4343 -0.2402
   87SAPS  H10R 8334   3.860   2.005   9.875  0.9575  1.8689  3.7968
   87SAPS  H10S 8335   3.727   2.112   9.908  0.4186 -0.2637 -1.0468
   87SAPS  C211 8336   3.682   1.931   9.787  1.0000  0.1985  0.1187
   87SAPS  H11R 8337   3.618   1.846   9.817  0.1197  1.2570  1.3190
   87SAPS  C212 8338   3.698   1.953   9.655  0.0200  0.0854  0.3768
   87SAPS  H12R 8339   3.652   1.877   9.588 -1.1841 -0.3783  1.6966
   87SAPS  C213 8340   3.792   2.046   9.585  0.0833  0.0964  0.0426
   87SAPS  H13R 8341   3.894   2.004   9.573  0.1604 -0.2834  1.8734
   87SAPS  H13S 8342   3.808   2.128   9.658 -0.8777 -0.9949  1.5207
   87SAPS  C214 8343   3.739   2.100   9.451  0.2958  0.5910  0.1445
   87SAPS  H14R 8344   3.650   2.164   9.458  0.8040  1.4669 -1.1149
   87SAPS  C215 8345   3.792   2.064   9.328 -0.1106  0.2076 -0.1395
   87SAPS  H15R 8346   3.740   2.095   9.236  2.0868  1.3277 -1.0239
   87SAPS  C216 8347   3.901   1.963   9.300  0.0184  0.4988  0.1834
   87SAPS  H16R 8348   3.861   1.869   9.256 -1.7423 -0.2028  3.1954
   87SAPS  H16S 8349   3.947   1.920   9.391  0.7185 -0.5613 -0.6553
   87SAPS  C217 8350   4.008   2.011   9.204 -0.1185 -0.5938  1.3361
   87SAPS  H17R 8351   4.058   2.105   9.237  0.0816  0.3105 -1.4409
   87SAPS  H17S 8352   3.955   2.035   9.109  1.5487  0.7633  0.7169
   87SAPS  C218 8353   4.114   1.901   9.171 -0.0958  0.4478 -0.2322
   87SAPS  H18R 8354   4.061   1.812   9.131  0.7014 -0.5430  0.8763
   87SAPS  H18S 8355   4.164   1.859   9.261  1.2215 -2.7782 -2.4196
   87SAPS  C219 8356   4.224   1.962   9.085 -0.2700 -0.7507  0.5792
   87SAPS  H19R 8357   4.268   2.056   9.125 -3.3617  0.0443  2.2473
   87SAPS  H19S 8358   4.191   1.995   8.984  0.9400 -0.0945  0.3912
   87SAPS  C220 8359   4.337   1.866   9.069 -0.1920  0.7453  0.8993
   87SAPS  H20R 8360   4.410   1.891   8.990  0.1995 -0.5244  0.8491
   87SAPS  H20S 8361   4.294   1.767   9.043  1.9331 -0.6967  2.6618
   87SAPS  H20T 8362   4.395   1.851   9.163 -0.7377  1.0742  1.2860
   87SAPS   C33 8363   3.908   2.527  10.125 -0.0475  1.1574 -0.5694
   87SAPS   H3X 8364   4.014   2.492  10.127 -0.0102  1.3234  2.3545
   87SAPS   H3Y 8365   3.906   2.626  10.175 -0.9012  0.2123  1.3080
   87SAPS   C34 8366   3.888   2.551   9.975 -0.1317  0.3607  0.5332
   87SAPS   H4X 8367   3.967   2.619   9.935  1.2600  0.0615  2.6927
   87SAPS   H4Y 8368   3.793   2.600   9.945 -0.1850 -1.2312 -2.1010
   87SAPS   C35 8369   3.888   2.428   9.887 -0.4510 -0.1831 -0.4795
   87SAPS   H5X 8370   3.814   2.360   9.934 -1.1829  1.5996  1.0234
   87SAPS   H5Y 8371   3.992   2.389   9.884  0.2205  1.5133  0.1689
   87SAPS   C36 8372   3.841   2.440   9.741  0.6313 -0.4967 -0.5585
   87SAPS   H6X 8373   3.755   2.509   9.731  0.9351  0.0861  0.8380
   87SAPS   H6Y 8374   3.809   2.338   9.710  1.5555 -1.0192  0.1744
   87SAPS   C37 8375   3.953   2.485   9.642 -0.0282  0.5174 -0.7556
   87SAPS   H7X 8376   4.039   2.417   9.661  0.0511  0.9806  0.6248
   87SAPS   H7Y 8377   3.976   2.591   9.664  1.5469 -0.3282  2.0400
   87SAPS   C38 8378   3.925   2.476   9.496 -0.6496 -0.2047  0.3446
   87SAPS   H8X 8379   3.849   2.553   9.474 -0.6632  0.0194  1.1340
   87SAPS   H8Y 8380   3.883   2.377   9.468 -1.7167  1.0737 -2.7058
   87SAPS   C39 8381   4.054   2.486   9.401 -0.3191  0.1681 -0.0164
   87SAPS   H9X 8382   4.114   2.400   9.438 -1.5992 -1.0595 -0.7219
   87SAPS   H9Y 8383   4.099   2.586   9.413  1.7291 -0.4606 -2.0693
   87SAPS  C310 8384   4.020   2.451   9.251 -0.3858  0.4169  0.0390
   87SAPS  H10X 8385   3.943   2.525   9.221 -1.3269 -0.1124  1.1217
   87SAPS  H10Y 8386   3.965   2.354   9.247 -1.8446  1.1536  1.6421
   87SAPS  C311 8387   4.142   2.429   9.164  0.0618 -0.1906 -1.2353
   87SAPS  H11X 8388   4.195   2.340   9.203 -0.1419  0.2828  0.1689
   87SAPS  H11Y 8389   4.213   2.512   9.186  0.1069  0.1975 -2.7473
   87SAPS  C312 8390   4.116   2.429   9.012  0.6760  0.1525  0.0394
   87SAPS  H12X 8391   4.210   2.462   8.964 -0.7944 -0.3948 -3.3617
   87SAPS  H12Y 8392   4.032   2.499   8.993  0.3714  0.1653  1.3465
   87SAPS  C313 8393   4.072   2.292   8.955  0.0991  0.1577  0.1805
   87SAPS  H13X 8394   4.007   2.262   9.039  1.2928 -0.2672  0.9681
   87SAPS  H13Y 8395   4.169   2.237   8.958  0.0218  0.0503  0.7549
   87SAPS  C314 8396   4.015   2.279   8.815  0.1109  0.2551 -0.5372
   87SAPS  H14X 8397   3.934   2.347   8.781 -0.3588  0.3588  0.7588
   87SAPS  H14Y 8398   3.976   2.175   8.820  0.6130  0.1576  1.7185
   87SAPS  C315 8399   4.127   2.287   8.711 -0.3197 -0.2918  0.5816
   87SAPS  H15X 8400   4.200   2.204   8.724  0.6211 -0.0059 -2.3949
   87SAPS  H15Y 8401   4.186   2.378   8.733 -1.0531  0.4090 -0.3255
   87SAPS  C316 8402   4.091   2.280   8.563 -0.0361  0.7757  0.1154
   87SAPS  H16X 8403   4.190   2.300   8.517  0.1154  0.6522  0.3892
   87SAPS  H16Y 8404   4.019   2.363   8.547 -1.9019 -0.7474  0.3866
   87SAPS  C317 8405   4.027   2.153   8.509  0.0619  0.0283  0.4043
   87SAPS  H17X 8406   3.921   2.148   8.542 -0.5260  2.2405 -0.9732
   87SAPS  H17Y 8407   4.085   2.063   8.536 -0.5118 -0.2931  0.5635
   87SAPS  C318 8408   4.004   2.163   8.360  0.0935 -0.5448  0.3846
   87SAPS  H18X 8409   3.943   2.255   8.346 -1.3452 -1.1502  2.4649
   87SAPS  H18Y 8410   3.938   2.082   8.323  1.3397 -1.4730  0.1589
   87SAPS  H18Z 8411   4.100   2.169   8.305 -1.4763  1.1822 -2.2916
   88SAPS     N 8412   6.162   0.489  10.888 -0.3393  0.5958  0.0029
   88SAPS   HN1 8413   6.188   0.491  10.787 -0.6026  1.4486 -0.0494
   88SAPS   HN2 8414   6.140   0.579  10.934 -1.5693 -0.1152  0.8278
   88SAPS   HN3 8415   6.236   0.441  10.944  0.5194  4.4045  2.3009
   88SAPS   C12 8416   6.032   0.413  10.898  0.4608  0.3678  0.3783
   88SAPS  H12A 8417   6.007   0.377  10.997 -1.4996 -1.8437 -0.8701
   88SAPS   C13 8418   5.908   0.502  10.862  0.3280 -1.2760  0.4071
   88SAPS  O13A 8419   5.933   0.607  10.799 -0.8477  0.7740 -0.1759
   88SAPS  O13B 8420   5.792   0.467  10.885  0.2308 -0.5168 -0.9253
   88SAPS   C11 8421   6.046   0.295  10.793 -0.0763 -0.4141 -0.2111
   88SAPS  H11A 8422   6.069   0.336  10.692 -3.1943 -0.5552 -1.0370
   88SAPS  H11B 8423   5.949   0.245  10.775  0.3223 -2.1336  2.1912
   88SAPS     P 8424   6.127   0.067  10.916  0.1795  0.0694 -0.0403
   88SAPS   O13 8425   6.253   0.044  10.991  0.4969  0.2624 -0.1253
   88SAPS   O14 8426   6.001   0.077  10.991 -0.2439 -0.2782  0.6965
   88SAPS   O12 8427   6.146   0.199  10.829 -0.2497 -0.2708  0.0094
   88SAPS   O11 8428   6.111  -0.060  10.829 -0.3228 -0.1042 -0.8278
   88SAPS    C1 8429   6.028  -0.069  10.715 -0.6174 -0.1109 -0.0118
   88SAPS    HA 8430   5.950  -0.147  10.732  0.9135 -1.3737  1.3593
   88SAPS    HB 8431   5.985   0.032  10.697 -0.9226 -0.1991  0.2089
   88SAPS    C2 8432   6.118  -0.121  10.599 -0.4345 -0.1137  0.4401
   88SAPS    HS 8433   6.200  -0.047  10.588 -1.3121  0.8552  0.3970
   88SAPS   O21 8434   6.031  -0.118  10.472 -0.1909 -0.0350  0.3328
   88SAPS   C21 8435   5.989  -0.008  10.425 -0.8981 -0.4114  0.0889
   88SAPS   O22 8436   6.009   0.103  10.466 -0.3846 -0.2356  0.2388
   88SAPS   C22 8437   5.892  -0.041  10.310  0.1920  0.2911 -0.6827
   88SAPS   H2R 8438   5.950  -0.097  10.233 -0.5925  1.1827 -1.9509
   88SAPS   H2S 8439   5.818  -0.115  10.348  0.0599  0.0734 -1.3473
   88SAPS    C3 8440   6.173  -0.261  10.631  0.0673 -0.6788 -0.7726
   88SAPS    HX 8441   6.093  -0.334  10.604 -0.8734 -0.2853  0.8834
   88SAPS    HY 8442   6.184  -0.280  10.740 -0.0408 -0.9183 -0.8011
   88SAPS   O31 8443   6.299  -0.300  10.565 -0.2136  0.2355  0.1863
   88SAPS   C31 8444   6.286  -0.366  10.450 -0.2942  0.5942 -1.2736
   88SAPS   O32 8445   6.185  -0.411  10.407 -0.2150 -0.9009 -0.3174
   88SAPS   C32 8446   6.426  -0.386  10.388 -0.5785 -0.7566  0.3795
   88SAPS   H2X 8447   6.478  -0.450  10.462 -0.1975 -0.9978 -0.0909
   88SAPS   H2Y 8448   6.476  -0.288  10.372 -0.0707 -1.3725 -2.0644
   88SAPS   C23 8449   5.839   0.079  10.234  1.0143  0.3043 -0.0954
   88SAPS   H3R 8450   5.797   0.156  10.301  1.2927  2.3521 -2.2046
   88SAPS   H3S 8451   5.746   0.049  10.181  1.7918 -0.9489 -0.7776
   88SAPS   C24 8452   5.929   0.144  10.125  0.0754  0.7246  0.3906
   88SAPS   H4R 8453   5.981   0.074  10.056 -0.5689 -0.5825  1.2381
   88SAPS   H4S 8454   6.012   0.199  10.174  1.9278  0.6770 -2.5711
   88SAPS   C25 8455   5.846   0.246  10.052 -0.0907  0.0982  0.0063
   88SAPS   H5R 8456   5.794   0.319  10.117 -1.6645 -2.2184  1.4141
   88SAPS   C26 8457   5.840   0.248   9.919  0.2366 -0.3277 -0.5274
   88SAPS   H6R 8458   5.770   0.323   9.879 -0.2097  0.9059  2.4206
   88SAPS   C27 8459   5.891   0.151   9.814 -0.5386 -0.5594  0.0304
   88SAPS   H7R 8460   5.931   0.061   9.864  1.0678  0.2538  0.2304
   88SAPS   H7S 8461   5.979   0.199   9.765 -0.2184 -0.1319  1.0219
   88SAPS   C28 8462   5.789   0.108   9.713  0.3263 -0.5051 -1.4905
   88SAPS   H8R 8463   5.691   0.087   9.757 -0.7235  4.2573 -1.3543
   88SAPS   C29 8464   5.799   0.082   9.581 -0.0463  0.2549 -0.0261
   88SAPS   H9R 8465   5.711   0.052   9.521  1.9307 -0.7878 -2.4869
   88SAPS  C210 8466   5.929   0.093   9.502  0.5609 -0.2344  0.1409
   88SAPS  H10R 8467   5.961  -0.007   9.465 -1.8239 -1.0001  0.0797
   88SAPS  H10S 8468   6.016   0.115   9.567  0.9061  2.1914 -1.0952
   88SAPS  C211 8469   5.926   0.194   9.389 -0.7323 -0.3885 -0.4017
   88SAPS  H11R 8470   5.934   0.294   9.433 -0.5618 -0.0254 -1.2418
   88SAPS  C212 8471   5.920   0.163   9.253  0.6489 -0.1438 -0.2962
   88SAPS  H12R 8472   5.902   0.245   9.182  0.3361  0.7611  0.8222
   88SAPS  C213 8473   5.912   0.025   9.195 -0.5532  1.2494  0.0276
   88SAPS  H13R 8474   5.944  -0.052   9.268  4.5694  3.5369  0.4148
   88SAPS  H13S 8475   5.991   0.014   9.118  0.0614 -2.0289  1.0707
   88SAPS  C214 8476   5.771   0.013   9.140  0.0208 -0.0631 -0.1310
   88SAPS  H14R 8477   5.694  -0.003   9.217  0.0751 -1.1839 -0.3041
   88SAPS  C215 8478   5.742   0.004   9.009  0.3780 -0.3678 -0.1791
   88SAPS  H15R 8479   5.638  -0.018   8.983  0.3732 -1.4927  0.7417
   88SAPS  C216 8480   5.837   0.019   8.896 -0.6540 -0.1827 -0.5186
   88SAPS  H16R 8481   5.944   0.023   8.924 -0.5681 -0.2716 -0.8384
   88SAPS  H16S 8482   5.809   0.116   8.851  1.0672 -0.2517 -1.7932
   88SAPS  C217 8483   5.816  -0.072   8.778  0.4544 -0.6870 -0.1867
   88SAPS  H17R 8484   5.812  -0.175   8.818  1.6495  0.1032  2.0510
   88SAPS  H17S 8485   5.903  -0.074   8.708 -1.2823 -2.4505 -2.3588
   88SAPS  C218 8486   5.684  -0.049   8.704  0.0438  0.7888 -1.1094
   88SAPS  H18R 8487   5.687   0.060   8.683  0.6412  1.6569  2.9437
   88SAPS  H18S 8488   5.597  -0.063   8.773  1.5388 -2.4615  0.2169
   88SAPS  C219 8489   5.686  -0.129   8.573  0.5950  0.5568  0.0774
   88SAPS  H19R 8490   5.700  -0.239   8.582  2.7951  0.5187 -2.8321
   88SAPS  H19S 8491   5.779  -0.099   8.519  0.7403 -0.4033 -0.2173
   88SAPS  C220 8492   5.568  -0.092   8.475 -0.4937  0.5122 -0.3605
   88SAPS  H20R 8493   5.560   0.019   8.471  0.6378  0.6317  0.5616
   88SAPS  H20S 8494   5.472  -0.128   8.518 -0.0117  0.2009  0.4546
   88SAPS  H20T 8495   5.583  -0.152   8.383  2.6877 -1.4862  1.3959
   88SAPS   C33 8496   6.417  -0.466  10.254 -0.1209 -0.5497  0.6937
   88SAPS   H3X 8497   6.370  -0.403  10.176  0.9744 -0.0931  0.3870
   88SAPS   H3Y 8498   6.362  -0.559  10.277 -3.2427  0.5075 -2.0128
   88SAPS   C34 8499   6.562  -0.479  10.203  0.0464  0.1174 -0.0257
   88SAPS   H4X 8500   6.621  -0.521  10.288  2.4090 -0.6255 -1.9697
   88SAPS   H4Y 8501   6.615  -0.385  10.180  1.3061 -0.9641 -1.6796
   88SAPS   C35 8502   6.578  -0.570  10.082 -0.3035 -0.2855 -0.8025
   88SAPS   H5X 8503   6.554  -0.674  10.114  1.7370 -0.4653  0.1759
   88SAPS   H5Y 8504   6.685  -0.574  10.053 -0.3326 -0.7924 -0.8406
   88SAPS   C36 8505   6.498  -0.517   9.960 -0.5000  0.1526  0.2089
   88SAPS   H6X 8506   6.512  -0.410   9.938  0.5813 -0.3316 -1.5638
   88SAPS   H6Y 8507   6.395  -0.536   9.996  0.3394  1.1105  3.2877
   88SAPS   C37 8508   6.527  -0.591   9.824  0.1583 -1.3899  0.6300
   88SAPS   H7X 8509   6.491  -0.695   9.840 -2.4585 -0.6630 -0.1909
   88SAPS   H7Y 8510   6.637  -0.591   9.808  0.0806 -0.0718  0.0439
   88SAPS   C38 8511   6.447  -0.530   9.703  0.0290 -0.2752  0.2127
   88SAPS   H8X 8512   6.457  -0.419   9.701  1.6375 -0.3893  1.3158
   88SAPS   H8Y 8513   6.338  -0.552   9.717 -0.1791  1.1600  0.9620
   88SAPS   C39 8514   6.503  -0.583   9.568  0.2487 -0.0993 -0.2799
   88SAPS   H9X 8515   6.494  -0.688   9.531  1.1419 -0.3574  0.2190
   88SAPS   H9Y 8516   6.611  -0.582   9.594  0.7797  1.4520 -2.3956
   88SAPS  C310 8517   6.452  -0.494   9.453  0.5272 -0.0092  0.1281
   88SAPS  H10X 8518   6.470  -0.385   9.469 -0.9794  0.5314 -1.6594
   88SAPS  H10Y 8519   6.342  -0.509   9.446  0.4695 -0.1294  1.2967
   88SAPS  C311 8520   6.520  -0.528   9.319 -0.9394 -0.1017  0.3589
   88SAPS  H11X 8521   6.494  -0.634   9.300  0.2821 -0.2598 -0.5429
   88SAPS  H11Y 8522   6.628  -0.524   9.346 -0.1308  2.7659 -2.9864
   88SAPS  C312 8523   6.484  -0.439   9.202 -0.2803  0.6616 -0.2723
   88SAPS  H12X 8524   6.544  -0.462   9.111 -2.7405 -0.3190 -1.6810
   88SAPS  H12Y 8525   6.519  -0.338   9.233 -0.9352  0.7995  0.0312
   88SAPS  C313 8526   6.328  -0.446   9.173  0.5595 -0.0190  0.2608
   88SAPS  H13X 8527   6.282  -0.401   9.264  0.9296  1.3158 -0.2025
   88SAPS  H13Y 8528   6.303  -0.553   9.158 -1.2518  0.9199 -4.3943
   88SAPS  C314 8529   6.270  -0.366   9.055 -0.5501 -0.0527  0.4210
   88SAPS  H14X 8530   6.303  -0.424   8.966 -1.6269 -1.4210  0.8853
   88SAPS  H14Y 8531   6.302  -0.260   9.056 -0.7566  0.0390 -0.9883
   88SAPS  C315 8532   6.115  -0.372   9.045  0.0663  0.1860 -0.0210
   88SAPS  H15X 8533   6.091  -0.285   9.111  0.0590  0.6644 -0.6447
   88SAPS  H15Y 8534   6.082  -0.470   9.085  1.1242 -0.7049 -1.3321
   88SAPS  C316 8535   6.059  -0.353   8.907  0.4703  0.0321  1.1574
   88SAPS  H16X 8536   6.102  -0.266   8.854 -1.1860 -0.6539 -1.3679
   88SAPS  H16Y 8537   5.953  -0.322   8.922  0.1094 -0.5422 -0.1376
   88SAPS  C317 8538   6.060  -0.475   8.815 -0.4380  0.2452 -0.7607
   88SAPS  H17X 8539   5.979  -0.545   8.844 -1.1843  1.8232  1.0662
   88SAPS  H17Y 8540   6.160  -0.523   8.820  0.0376  1.2691 -0.3757
   88SAPS  C318 8541   6.030  -0.431   8.671 -0.5623 -0.6099  0.0474
   88SAPS  H18X 8542   5.933  -0.377   8.677 -1.2880 -1.8280 -0.7369
   88SAPS  H18Y 8543   6.018  -0.508   8.593  1.6852 -0.0928 -0.8349
   88SAPS  H18Z 8544   6.110  -0.365   8.631 -0.3996 -1.3438 -0.8407
   89SAPS     N 8545   6.033   2.982  10.961  0.5183 -0.5401  0.3558
   89SAPS   HN1 8546   5.999   3.030  10.875  0.8477  1.1135  1.1185
   89SAPS   HN2 8547   5.986   3.022  11.045 -2.2177  0.8302 -1.7188
   89SAPS   HN3 8548   6.129   3.020  10.973  0.4322  0.6552 -2.4060
   89SAPS   C12 8549   6.047   2.832  10.958 -0.5215 -0.0986  0.9070
   89SAPS  H12A 8550   6.103   2.801  10.871 -2.5220  0.9387 -0.8065
   89SAPS   C13 8551   6.120   2.757  11.078 -0.6200 -0.2424 -0.4107
   89SAPS  O13A 8552   6.181   2.818  11.169 -0.2748  0.0602 -0.3814
   89SAPS  O13B 8553   6.125   2.628  11.086 -0.2376 -0.2785 -0.1285
   89SAPS   C11 8554   5.904   2.772  10.951  0.1298 -0.2265 -0.6638
   89SAPS  H11A 8555   5.861   2.754  11.052 -0.1044 -2.9816 -1.2265
   89SAPS  H11B 8556   5.924   2.669  10.914  1.6999  1.0151 -3.4091
   89SAPS     P 8557   5.719   2.786  10.770 -0.2175  0.5477  0.5143
   89SAPS   O13 8558   5.639   2.694  10.856  0.1564 -0.2976  0.0582
   89SAPS   O14 8559   5.651   2.891  10.696  0.4276  0.1732 -0.6998
   89SAPS   O12 8560   5.826   2.845  10.859  0.2458 -0.1707  0.3960
   89SAPS   O11 8561   5.805   2.703  10.671 -0.5762  0.2499  0.1231
   89SAPS    C1 8562   5.925   2.752  10.605  0.3698  1.3896 -0.0190
   89SAPS    HA 8563   5.983   2.823  10.668 -1.3900  1.3222  1.7302
   89SAPS    HB 8564   5.992   2.666  10.585 -0.8513 -0.0512  1.8584
   89SAPS    C2 8565   5.906   2.830  10.479  0.1572 -0.3629  0.4902
   89SAPS    HS 8566   5.837   2.916  10.491  0.2186 -0.1389 -0.7023
   89SAPS   O21 8567   5.856   2.735  10.380 -0.0759  0.1325 -0.2044
   89SAPS   C21 8568   5.758   2.782  10.302  0.3094 -0.3358 -0.1732
   89SAPS   O22 8569   5.683   2.875  10.315 -0.3598 -0.1080 -0.5350
   89SAPS   C22 8570   5.748   2.691  10.180  0.1687 -0.5703  0.4350
   89SAPS   H2R 8571   5.845   2.682  10.128 -0.7934 -0.3642 -1.4162
   89SAPS   H2S 8572   5.723   2.592  10.224 -0.9813  0.4011  2.0661
   89SAPS    C3 8573   6.036   2.890  10.430 -0.3779 -1.1838 -0.5797
   89SAPS    HX 8574   6.113   2.817  10.400  0.0570 -1.2406  0.6625
   89SAPS    HY 8575   6.084   2.940  10.517 -2.1101  2.6739 -1.6907
   89SAPS   O31 8576   6.000   2.973  10.316  0.1776 -0.1405  0.1735
   89SAPS   C31 8577   5.982   3.096  10.329  0.5223  0.0259  0.2487
   89SAPS   O32 8578   5.998   3.154  10.435 -0.1760  0.3178 -0.7572
   89SAPS   C32 8579   5.934   3.158  10.194  0.5331  0.4242 -1.1240
   89SAPS   H2X 8580   5.940   3.268  10.209  0.6783  0.3569 -0.6860
   89SAPS   H2Y 8581   5.829   3.120  10.194  1.2067 -1.4545 -1.0973
   89SAPS   C23 8582   5.638   2.740  10.084  0.3802  1.0335 -0.1515
   89SAPS   H3R 8583   5.558   2.789  10.143  0.8525  0.7584  0.7318
   89SAPS   H3S 8584   5.591   2.650  10.039 -0.0033  0.4857  1.3054
   89SAPS   C24 8585   5.699   2.835   9.987 -0.3251 -0.2994  0.1806
   89SAPS   H4R 8586   5.775   2.787   9.922 -1.1590 -0.3985 -0.7444
   89SAPS   H4S 8587   5.747   2.919  10.042 -1.1036 -0.3589  0.9574
   89SAPS   C25 8588   5.588   2.889   9.910 -0.5832 -0.4864  0.2281
   89SAPS   H5R 8589   5.505   2.928   9.970  1.2469  2.2846  1.0584
   89SAPS   C26 8590   5.584   2.900   9.773 -0.0701  0.2779  0.7166
   89SAPS   H6R 8591   5.496   2.951   9.729  0.1673  0.7017  0.7265
   89SAPS   C27 8592   5.686   2.856   9.674  1.1708 -0.2526 -0.3473
   89SAPS   H7R 8593   5.786   2.859   9.723 -0.1450 -0.3953  2.4341
   89SAPS   H7S 8594   5.704   2.928   9.591 -0.7817  0.3176 -0.2967
   89SAPS   C28 8595   5.674   2.712   9.613  0.1314  0.1954 -0.2177
   89SAPS   H8R 8596   5.666   2.628   9.683  1.0483  0.2056 -0.1025
   89SAPS   C29 8597   5.675   2.688   9.479 -0.4207 -0.0708 -0.0077
   89SAPS   H9R 8598   5.665   2.584   9.446 -1.8000 -0.3063  1.0914
   89SAPS  C210 8599   5.674   2.788   9.369 -0.1574  0.0591  0.2715
   89SAPS  H10R 8600   5.692   2.738   9.272 -2.7772  1.2576 -0.8728
   89SAPS  H10S 8601   5.772   2.839   9.369  1.0600 -2.2039 -1.0681
   89SAPS  C211 8602   5.561   2.891   9.356 -0.1241 -0.4166  1.0886
   89SAPS  H11R 8603   5.497   2.899   9.444 -0.3589  0.6753  0.8250
   89SAPS  C212 8604   5.556   2.988   9.260  0.4924  0.0734  0.4788
   89SAPS  H12R 8605   5.467   3.052   9.268  1.0361  0.9861 -0.6690
   89SAPS  C213 8606   5.651   3.003   9.148 -0.5670 -0.2989 -0.0477
   89SAPS  H13R 8607   5.755   2.984   9.182 -0.0666 -0.9105 -1.8745
   89SAPS  H13S 8608   5.658   3.111   9.125  2.1578 -0.9814 -2.8190
   89SAPS  C214 8609   5.618   2.920   9.027 -0.0982  0.2306  0.3492
   89SAPS  H14R 8610   5.598   2.812   9.042  1.1628 -0.1431 -0.5513
   89SAPS  C215 8611   5.586   2.960   8.904 -0.6492  0.3326  0.3814
   89SAPS  H15R 8612   5.575   2.878   8.831  0.3442 -2.5702  3.3741
   89SAPS  C216 8613   5.585   3.110   8.871 -0.0012  0.3006  0.5403
   89SAPS  H16R 8614   5.679   3.161   8.901  0.2545  1.0533 -1.4264
   89SAPS  H16S 8615   5.498   3.162   8.916 -2.5822 -0.5927 -3.1250
   89SAPS  C217 8616   5.562   3.149   8.718  0.3078 -0.0755  0.5105
   89SAPS  H17R 8617   5.644   3.111   8.654  0.7815  2.6046 -0.5408
   89SAPS  H17S 8618   5.551   3.260   8.715  0.3580 -0.1089 -1.1998
   89SAPS  C218 8619   5.425   3.097   8.665  1.0739 -0.1594  0.5891
   89SAPS  H18R 8620   5.345   3.134   8.732  0.0129  2.3164 -1.9247
   89SAPS  H18S 8621   5.417   2.986   8.673  1.2383 -0.2050  0.1501
   89SAPS  C219 8622   5.399   3.135   8.516 -0.2123 -0.3009  0.2864
   89SAPS  H19R 8623   5.452   3.231   8.502 -0.8742 -0.2345 -1.8977
   89SAPS  H19S 8624   5.290   3.149   8.501 -0.5721 -2.4338  0.6588
   89SAPS  C220 8625   5.440   3.044   8.404 -0.0971 -0.8077  0.0951
   89SAPS  H20R 8626   5.536   2.995   8.430  0.0697  0.0531  1.1431
   89SAPS  H20S 8627   5.445   3.103   8.310 -2.1826  0.2312  0.5899
   89SAPS  H20T 8628   5.365   2.964   8.386  1.1828 -2.0020  0.0614
   89SAPS   C33 8629   6.030   3.117  10.076  0.3711 -0.3287 -0.6477
   89SAPS   H3X 8630   6.026   3.006  10.064 -0.2555 -0.3563 -0.2043
   89SAPS   H3Y 8631   6.129   3.161  10.102 -0.5927  1.2734  0.4116
   89SAPS   C34 8632   5.980   3.159   9.937 -0.0480  0.0076  0.3578
   89SAPS   H4X 8633   5.991   3.269   9.934  1.7125 -0.1235  1.3988
   89SAPS   H4Y 8634   5.872   3.134   9.946  0.6298 -3.6551 -0.8813
   89SAPS   C35 8635   6.042   3.087   9.824  0.3920  0.2356  0.3308
   89SAPS   H5X 8636   6.017   2.981   9.844 -2.3192  0.4030 -1.8266
   89SAPS   H5Y 8637   6.151   3.107   9.818  0.7960 -1.4631  1.8499
   89SAPS   C36 8638   5.981   3.125   9.685  0.3594 -0.0565 -0.2010
   89SAPS   H6X 8639   6.010   3.232   9.683 -1.0290  0.3434  0.5245
   89SAPS   H6Y 8640   5.874   3.097   9.691  0.4735 -0.2427  1.0949
   89SAPS   C37 8641   6.035   3.057   9.562 -0.3245  0.3139 -0.4160
   89SAPS   H7X 8642   6.014   2.948   9.565  0.4330  0.1922  0.7352
   89SAPS   H7Y 8643   6.146   3.065   9.564 -0.3445  0.4484  2.7197
   89SAPS   C38 8644   5.977   3.119   9.433 -0.4012 -0.1620 -0.1310
   89SAPS   H8X 8645   5.931   3.218   9.456 -1.2684 -0.4172 -0.7538
   89SAPS   H8Y 8646   5.890   3.058   9.401 -1.5783  0.6091  1.5481
   89SAPS   C39 8647   6.081   3.133   9.327 -0.7289 -0.1265 -0.7204
   89SAPS   H9X 8648   6.153   3.049   9.325  0.0868  0.5090  1.0293
   89SAPS   H9Y 8649   6.142   3.222   9.353  0.2796 -0.6689 -1.1983
   89SAPS  C310 8650   6.029   3.127   9.180 -0.0572  1.0439  0.3495
   89SAPS  H10X 8651   5.989   3.026   9.158  5.8565 -0.8259 -2.8708
   89SAPS  H10Y 8652   6.118   3.140   9.114  0.3031 -1.1081  0.3864
   89SAPS  C311 8653   5.925   3.232   9.155  0.0675 -0.1371  0.5091
   89SAPS  H11X 8654   5.955   3.322   9.213 -1.1657  1.9568 -2.0055
   89SAPS  H11Y 8655   5.834   3.194   9.204  0.2590  1.8042  2.4226
   89SAPS  C312 8656   5.921   3.263   9.010 -1.2083 -0.1960  0.2208
   89SAPS  H12X 8657   5.889   3.174   8.952 -0.4042 -0.0251 -0.5018
   89SAPS  H12Y 8658   6.023   3.289   8.974 -1.1573  0.2694  0.6861
   89SAPS  C313 8659   5.817   3.369   8.975  0.2703 -0.5226  0.2133
   89SAPS  H13X 8660   5.835   3.456   9.042 -1.6310 -0.0603  0.1464
   89SAPS  H13Y 8661   5.711   3.339   8.991  0.2716 -1.2915 -1.1500
   89SAPS  C314 8662   5.835   3.413   8.833  0.6019 -0.5452  0.3562
   89SAPS  H14X 8663   5.817   3.337   8.755 -1.9857  2.1367 -1.7793
   89SAPS  H14Y 8664   5.940   3.449   8.832  0.3217  0.2702  0.2317
   89SAPS  C315 8665   5.751   3.540   8.805 -0.2383 -0.4962 -0.1881
   89SAPS  H15X 8666   5.761   3.606   8.893  0.5611 -0.2916 -0.4296
   89SAPS  H15Y 8667   5.644   3.511   8.800 -0.6694  1.0523 -0.1375
   89SAPS  C316 8668   5.790   3.622   8.685  0.6369  0.1820 -0.9979
   89SAPS  H16X 8669   5.803   3.561   8.593  2.1990 -0.1468 -0.5793
   89SAPS  H16Y 8670   5.879   3.688   8.694 -0.5389  1.7776 -0.9697
   89SAPS  C317 8671   5.676   3.718   8.648  0.2824  0.9178  0.3424
   89SAPS  H17X 8672   5.680   3.788   8.733 -0.0102 -0.4506  1.5004
   89SAPS  H17Y 8673   5.576   3.669   8.646  0.9533 -0.4529 -0.4932
   89SAPS  C318 8674   5.705   3.795   8.511  0.0624 -0.3531 -0.3105
   89SAPS  H18X 8675   5.802   3.848   8.519  0.7673 -1.3895 -1.6710
   89SAPS  H18Y 8676   5.622   3.868   8.500 -1.4556 -1.9759 -0.0206
   89SAPS  H18Z 8677   5.710   3.720   8.430 -0.4942 -1.3637  0.5662
   90SAPS     N 8678   1.254   2.935  10.543 -0.3614  0.2033  0.2228
   90SAPS   HN1 8679   1.355   2.951  10.560 -0.3999  0.1282  0.5213
   90SAPS   HN2 8680   1.229   2.914  10.444 -1.3704  1.7622  0.1322
   90SAPS   HN3 8681   1.201   3.021  10.568 -1.5790 -0.3864 -0.2828
   90SAPS   C12 8682   1.195   2.812  10.620  0.4332 -0.4975  0.6874
   90SAPS  H12A 8683   1.221   2.723  10.564  0.0394  0.3398 -0.8583
   90SAPS   C13 8684   1.259   2.798  10.763 -0.4770 -0.5997  0.2086
   90SAPS  O13A 8685   1.335   2.890  10.805  0.0409  0.0808  0.4393
   90SAPS  O13B 8686   1.227   2.709  10.840  0.0225 -0.6028  0.4112
   90SAPS   C11 8687   1.047   2.822  10.620  0.1404  0.4644  0.3123
   90SAPS  H11A 8688   1.001   2.753  10.695 -0.3629  1.4530  0.9237
   90SAPS  H11B 8689   1.005   2.801  10.519 -1.4303  0.7951  0.8715
   90SAPS     P 8690   0.875   2.977  10.737 -0.1033 -0.5720  0.6526
   90SAPS   O13 8691   0.872   2.915  10.877  0.2091 -0.5865 -0.2577
   90SAPS   O14 8692   0.856   3.120  10.726 -0.2973 -0.6702 -0.2637
   90SAPS   O12 8693   1.008   2.952  10.657 -0.6777 -0.0329 -0.7596
   90SAPS   O11 8694   0.767   2.906  10.648  1.0125  0.2617  0.0154
   90SAPS    C1 8695   0.646   2.867  10.699 -0.0698 -0.4636 -0.6326
   90SAPS    HA 8696   0.656   2.810  10.794 -2.7681  0.0058 -0.0336
   90SAPS    HB 8697   0.576   2.953  10.706  2.2889  1.3526  1.3369
   90SAPS    C2 8698   0.578   2.764  10.597 -0.3472  0.5582 -0.1438
   90SAPS    HS 8699   0.511   2.695  10.651 -1.3442  0.0585 -1.9692
   90SAPS   O21 8700   0.675   2.691  10.522  0.1196 -0.4489  0.1640
   90SAPS   C21 8701   0.740   2.599  10.589  0.0114  0.0904  0.3128
   90SAPS   O22 8702   0.731   2.563  10.707  0.6330  0.1845  0.3512
   90SAPS   C22 8703   0.844   2.539  10.491  0.5661 -0.0785  0.2643
   90SAPS   H2R 8704   0.838   2.573  10.385  0.3347 -1.1965 -0.0950
   90SAPS   H2S 8705   0.946   2.571  10.520  0.5003  0.5907 -0.2449
   90SAPS    C3 8706   0.483   2.833  10.498  0.3331  0.0637 -0.7537
   90SAPS    HX 8707   0.549   2.890  10.430  0.3268 -0.7592 -1.4555
   90SAPS    HY 8708   0.426   2.911  10.554 -0.6973 -0.6337 -0.8102
   90SAPS   O31 8709   0.391   2.741  10.439 -1.0207  0.1991 -0.1643
   90SAPS   C31 8710   0.398   2.717  10.316 -0.0132 -0.5256  0.8991
   90SAPS   O32 8711   0.483   2.749  10.234 -0.6411 -0.2468  0.0661
   90SAPS   C32 8712   0.274   2.645  10.265  0.2170  0.5745  0.8361
   90SAPS   H2X 8713   0.190   2.694  10.319 -0.2776 -0.5048  1.0669
   90SAPS   H2Y 8714   0.288   2.542  10.305  0.1566  0.1411 -0.2364
   90SAPS   C23 8715   0.851   2.378  10.497  0.3907 -0.3742 -0.4193
   90SAPS   H3R 8716   0.857   2.335  10.599 -0.5540 -2.4813 -1.2385
   90SAPS   H3S 8717   0.942   2.335  10.449 -0.8122 -2.1968 -1.1004
   90SAPS   C24 8718   0.718   2.318  10.453 -0.3752 -0.6193 -0.2317
   90SAPS   H4R 8719   0.637   2.355  10.519 -1.4112 -1.9013 -0.7718
   90SAPS   H4S 8720   0.725   2.209  10.474  0.5165 -1.0904 -2.8128
   90SAPS   C25 8721   0.710   2.332  10.302 -0.0563 -0.0326 -0.9653
   90SAPS   H5R 8722   0.663   2.425  10.265  0.1721  0.3416 -0.3296
   90SAPS   C26 8723   0.761   2.245  10.211 -0.2560  0.4336  0.5405
   90SAPS   H6R 8724   0.740   2.270  10.106 -1.7201 -0.8152  0.5264
   90SAPS   C27 8725   0.832   2.111  10.234  0.1150  0.0732  0.3130
   90SAPS   H7R 8726   0.928   2.127  10.288 -0.2337 -2.0513  1.6171
   90SAPS   H7S 8727   0.880   2.080  10.139 -0.3047 -0.8536  0.4075
   90SAPS   C28 8728   0.745   2.004  10.294  0.1124  0.2701 -0.0021
   90SAPS   H8R 8729   0.701   2.026  10.393 -1.1182  1.8663 -0.8901
   90SAPS   C29 8730   0.721   1.881  10.247  0.5977 -0.5671  0.9049
   90SAPS   H9R 8731   0.651   1.826  10.312  2.5733 -3.0404  1.0147
   90SAPS  C210 8732   0.779   1.818  10.119 -0.6455 -0.3766  1.1620
   90SAPS  H10R 8733   0.720   1.859  10.034  0.5377  0.6545  0.8236
   90SAPS  H10S 8734   0.758   1.709  10.122 -0.1128 -0.5259 -0.3520
   90SAPS  C211 8735   0.929   1.832  10.095 -0.1028  0.3862 -0.4521
   90SAPS  H11R 8736   0.997   1.856  10.178 -0.8366 -0.5790  0.4477
   90SAPS  C212 8737   0.984   1.823   9.969  0.0773 -0.2944  0.7427
   90SAPS  H12R 8738   1.091   1.838   9.953 -0.4817  1.5239 -1.7057
   90SAPS  C213 8739   0.916   1.795   9.839 -0.1205  0.5823 -0.2940
   90SAPS  H13R 8740   0.929   1.878   9.767 -1.6073  1.8968  0.9303
   90SAPS  H13S 8741   0.805   1.795   9.852 -0.3070  0.1911 -1.8168
   90SAPS  C214 8742   0.964   1.664   9.780  0.3725  0.2403  0.1788
   90SAPS  H14R 8743   0.902   1.575   9.797 -0.0299  0.7866  1.7186
   90SAPS  C215 8744   1.082   1.647   9.712  0.4203 -0.3493 -0.1998
   90SAPS  H15R 8745   1.111   1.544   9.685  0.8780 -0.5464  1.0533
   90SAPS  C216 8746   1.176   1.753   9.675  0.5163 -0.3955  1.1102
   90SAPS  H16R 8747   1.270   1.737   9.731  0.5769  1.3992  1.5396
   90SAPS  H16S 8748   1.139   1.857   9.680  1.1883 -0.0915 -0.0377
   90SAPS  C217 8749   1.210   1.738   9.522 -0.0191 -0.7619 -0.4396
   90SAPS  H17R 8750   1.135   1.765   9.445  1.5971 -0.1762 -1.8351
   90SAPS  H17S 8751   1.238   1.632   9.505 -3.7187 -1.9141  0.0409
   90SAPS  C218 8752   1.339   1.815   9.489  0.3035 -0.5975  0.0654
   90SAPS  H18R 8753   1.418   1.802   9.565 -0.3161 -0.1702  0.7935
   90SAPS  H18S 8754   1.308   1.922   9.479 -1.2891 -1.1573 -1.3334
   90SAPS  C219 8755   1.394   1.767   9.357 -0.4629 -0.7827 -0.1864
   90SAPS  H19R 8756   1.400   1.657   9.363 -3.6816 -0.9962 -0.2670
   90SAPS  H19S 8757   1.491   1.813   9.328 -1.4887  0.4739 -1.7115
   90SAPS  C220 8758   1.298   1.783   9.232 -0.0673 -0.2940 -0.4315
   90SAPS  H20R 8759   1.290   1.889   9.197  1.7540 -0.9587 -3.0345
   90SAPS  H20S 8760   1.196   1.741   9.242  0.0415 -0.6255 -0.7382
   90SAPS  H20T 8761   1.342   1.731   9.144  2.2094  0.0919  0.4431
   90SAPS   C33 8762   0.265   2.618  10.108 -0.0242 -0.0374 -1.0410
   90SAPS   H3X 8763   0.341   2.551  10.064 -0.4839 -1.0034 -0.3832
   90SAPS   H3Y 8764   0.264   2.714  10.052 -0.5875  0.2326 -0.5784
   90SAPS   C34 8765   0.126   2.565  10.087  0.8107  0.3339 -0.2182
   90SAPS   H4X 8766   0.036   2.621  10.121  1.2688  1.3540 -0.6472
   90SAPS   H4Y 8767   0.134   2.479  10.156  0.0975 -0.1542 -0.7411
   90SAPS   C35 8768   0.112   2.513   9.945  0.2466 -0.1539 -0.0409
   90SAPS   H5X 8769   0.034   2.435   9.938  1.6158 -1.6100  0.5341
   90SAPS   H5Y 8770   0.212   2.476   9.916  0.4147  1.0454 -1.0531
   90SAPS   C36 8771   0.052   2.622   9.854 -0.8584  0.5503 -0.0939
   90SAPS   H6X 8772   0.126   2.705   9.863 -1.2766  0.6906  2.0749
   90SAPS   H6Y 8773  -0.038   2.669   9.899 -2.3304 -0.2267 -2.1386
   90SAPS   C37 8774   0.046   2.576   9.710  0.7649  0.1333 -0.8020
   90SAPS   H7X 8775  -0.024   2.645   9.658  2.4031  0.7984 -2.1437
   90SAPS   H7Y 8776   0.010   2.471   9.696  1.4557 -0.2935  0.5072
   90SAPS   C38 8777   0.180   2.575   9.642 -0.3753  0.3633 -0.3243
   90SAPS   H8X 8778   0.263   2.538   9.707 -2.5994  0.7231  2.8699
   90SAPS   H8Y 8779   0.210   2.680   9.624  1.7669 -0.1232  0.1487
   90SAPS   C39 8780   0.194   2.493   9.517  0.4647 -0.4782 -0.0564
   90SAPS   H9X 8781   0.114   2.518   9.444 -2.0089 -2.4545  1.8865
   90SAPS   H9Y 8782   0.159   2.389   9.538 -1.4160  0.1955  0.2130
   90SAPS  C310 8783   0.329   2.480   9.449 -0.5830 -0.4500  0.2270
   90SAPS  H10X 8784   0.412   2.434   9.506 -0.6664  0.1855  0.8780
   90SAPS  H10Y 8785   0.368   2.578   9.412  1.1724 -0.8912  0.8927
   90SAPS  C311 8786   0.327   2.403   9.312 -0.0837  0.3823 -0.7344
   90SAPS  H11X 8787   0.237   2.430   9.253  0.3700  0.8690 -1.2012
   90SAPS  H11Y 8788   0.323   2.295   9.339 -0.4978 -0.3275 -3.4694
   90SAPS  C312 8789   0.442   2.429   9.223 -0.0007 -0.1733  1.0250
   90SAPS  H12X 8790   0.537   2.386   9.261  2.3864  1.2620 -3.0067
   90SAPS  H12Y 8791   0.459   2.536   9.200  0.5994  0.0416  2.4333
   90SAPS  C313 8792   0.406   2.367   9.084  0.2503 -0.0723 -1.2693
   90SAPS  H13X 8793   0.302   2.398   9.061 -0.8925 -3.0998 -0.3779
   90SAPS  H13Y 8794   0.408   2.257   9.073 -0.5943 -0.0443 -1.6854
   90SAPS  C314 8795   0.506   2.410   8.979  0.6663 -0.5650  0.2041
   90SAPS  H14X 8796   0.612   2.392   9.007  0.2750 -3.6346 -0.1133
   90SAPS  H14Y 8797   0.498   2.521   8.971 -0.3909 -0.7403 -1.2543
   90SAPS  C315 8798   0.476   2.343   8.851  0.0776  0.5273  0.1504
   90SAPS  H15X 8799   0.366   2.356   8.839 -0.2437 -1.4666  0.7189
   90SAPS  H15Y 8800   0.499   2.235   8.860 -2.1081  0.0968  0.9597
   90SAPS  C316 8801   0.535   2.409   8.723 -0.6412 -0.2469 -0.4062
   90SAPS  H16X 8802   0.623   2.474   8.739 -0.9384  0.3025 -0.9499
   90SAPS  H16Y 8803   0.472   2.490   8.680  0.5399  0.8869 -0.0277
   90SAPS  C317 8804   0.564   2.310   8.616 -0.5339 -0.1030 -0.0820
   90SAPS  H17X 8805   0.470   2.267   8.574  0.5608 -0.9741 -1.7108
   90SAPS  H17Y 8806   0.632   2.227   8.642 -0.4236 -0.3235 -1.0264
   90SAPS  C318 8807   0.635   2.383   8.501  0.5597 -0.6564  0.0252
   90SAPS  H18X 8808   0.712   2.458   8.531 -0.2490  0.7455 -1.3147
   90SAPS  H18Y 8809   0.568   2.446   8.438  0.6143 -1.4148 -0.7959
   90SAPS  H18Z 8810   0.689   2.306   8.442  1.4813 -0.0679  0.0875
   91SAPS     N 8811   5.670   0.181   5.878 -0.0412 -0.2474 -0.2042
   91SAPS   HN1 8812   5.624   0.190   5.970 -0.9656  0.9773 -0.7856
   91SAPS   HN2 8813   5.689   0.279   5.851 -0.7813  0.0239  0.2629
   91SAPS   HN3 8814   5.600   0.146   5.809 -1.6800 -0.8326  1.7341
   91SAPS   C12 8815   5.804   0.108   5.880  0.1289 -0.1518  0.9332
   91SAPS  H12A 8816   5.813   0.052   5.787  0.2005 -0.7237  1.2810
   91SAPS   C13 8817   5.924   0.197   5.905 -0.6049 -0.1744  0.7580
   91SAPS  O13A 8818   5.910   0.317   5.944  0.3577 -0.3261 -0.1824
   91SAPS  O13B 8819   6.040   0.140   5.888  0.1018  0.4575  0.1771
   91SAPS   C11 8820   5.805  -0.016   5.977  0.2934  0.0990 -0.3936
   91SAPS  H11A 8821   5.792   0.036   6.075  0.8304 -2.1802  0.9345
   91SAPS  H11B 8822   5.909  -0.053   5.968  0.8979  0.4816  3.7604
   91SAPS     P 8823   5.638  -0.197   6.062 -0.4698  0.0861 -0.2226
   91SAPS   O13 8824   5.497  -0.152   6.065 -0.5174 -0.7626  0.0826
   91SAPS   O14 8825   5.668  -0.340   6.038  0.1333  0.8663 -0.0266
   91SAPS   O12 8826   5.706  -0.116   5.943 -0.0692 -0.8919 -0.7045
   91SAPS   O11 8827   5.707  -0.160   6.198 -0.0729  0.2276 -0.2583
   91SAPS    C1 8828   5.661  -0.050   6.275 -0.5142 -0.0044  0.5293
   91SAPS    HA 8829   5.708   0.047   6.250  1.6453 -1.1624 -0.0567
   91SAPS    HB 8830   5.550  -0.056   6.282 -0.6050 -2.7147 -2.0818
   91SAPS    C2 8831   5.717  -0.079   6.420  0.9042 -0.0370 -0.1079
   91SAPS    HS 8832   5.828  -0.070   6.423  0.8709  0.1400  0.6174
   91SAPS   O21 8833   5.663  -0.204   6.468  0.3697  0.2639  0.1799
   91SAPS   C21 8834   5.743  -0.312   6.483 -0.0865 -0.0044 -0.3769
   91SAPS   O22 8835   5.858  -0.324   6.452 -0.2461 -0.5871 -0.6590
   91SAPS   C22 8836   5.664  -0.432   6.549  0.4180  0.1032  0.1074
   91SAPS   H2R 8837   5.560  -0.398   6.570  1.5064  1.9400  2.8659
   91SAPS   H2S 8838   5.658  -0.518   6.479  0.5819  0.6593 -0.5951
   91SAPS    C3 8839   5.653   0.035   6.509  0.1288 -0.1892 -0.6495
   91SAPS    HX 8840   5.546   0.007   6.515  0.3514 -0.4956  2.7815
   91SAPS    HY 8841   5.669   0.125   6.445 -1.5137 -0.2511 -1.1653
   91SAPS   O31 8842   5.704   0.030   6.646 -0.0200 -0.3608  0.3205
   91SAPS   C31 8843   5.814   0.107   6.675 -0.1981 -0.1516  0.3245
   91SAPS   O32 8844   5.838   0.212   6.619 -0.2061  0.1990 -0.1111
   91SAPS   C32 8845   5.907   0.039   6.776  0.1280  0.0274 -0.5168
   91SAPS   H2X 8846   6.012   0.040   6.738 -0.1541 -0.1877 -1.3093
   91SAPS   H2Y 8847   5.869  -0.063   6.795  0.6367 -0.1233 -0.2830
   91SAPS   C23 8848   5.728  -0.477   6.685 -0.3183  0.3309 -0.3292
   91SAPS   H3R 8849   5.815  -0.543   6.666  2.4260  3.2987  1.3123
   91SAPS   H3S 8850   5.653  -0.533   6.745 -1.2153  2.4782  0.6221
   91SAPS   C24 8851   5.776  -0.360   6.778  0.9476 -0.3567  0.2862
   91SAPS   H4R 8852   5.860  -0.310   6.724  0.9467 -0.6588  0.0003
   91SAPS   H4S 8853   5.819  -0.414   6.865 -1.8376 -0.7618  1.4435
   91SAPS   C25 8854   5.670  -0.261   6.817 -0.2738  0.5107 -0.3577
   91SAPS   H5R 8855   5.615  -0.222   6.730  0.2160  0.3695 -0.7290
   91SAPS   C26 8856   5.640  -0.215   6.941 -0.1238  0.0196  0.5325
   91SAPS   H6R 8857   5.559  -0.143   6.960  0.6423  0.8383  0.7279
   91SAPS   C27 8858   5.710  -0.246   7.072 -0.0527  1.2858  0.3162
   91SAPS   H7R 8859   5.783  -0.167   7.102  1.7424 -0.1730 -0.1100
   91SAPS   H7S 8860   5.785  -0.325   7.051 -0.4636  0.4660  1.8654
   91SAPS   C28 8861   5.623  -0.292   7.189  0.1277  0.0596 -0.2092
   91SAPS   H8R 8862   5.559  -0.380   7.172  1.6426 -1.0360 -0.4152
   91SAPS   C29 8863   5.624  -0.229   7.307  0.6995 -0.0915 -0.5104
   91SAPS   H9R 8864   5.565  -0.275   7.388 -1.1850  0.3960 -1.5681
   91SAPS  C210 8865   5.704  -0.109   7.364 -0.3725 -0.1126  0.5587
   91SAPS  H10R 8866   5.741  -0.040   7.284  0.7466 -0.8176  0.4489
   91SAPS  H10S 8867   5.797  -0.146   7.414  2.0480  4.0870 -0.5796
   91SAPS  C211 8868   5.632  -0.024   7.467  0.8230  0.2156  0.1066
   91SAPS  H11R 8869   5.546   0.029   7.423  0.1471 -1.1505 -0.2389
   91SAPS  C212 8870   5.669  -0.002   7.594 -0.3141  0.5448 -0.5898
   91SAPS  H12R 8871   5.595   0.052   7.655 -0.6847  0.4186 -0.9279
   91SAPS  C213 8872   5.794  -0.059   7.666  0.4821 -1.0905 -0.3790
   91SAPS  H13R 8873   5.806  -0.001   7.760  0.7521 -0.6970 -0.6531
   91SAPS  H13S 8874   5.884  -0.031   7.607  1.4010 -0.2009  1.4010
   91SAPS  C214 8875   5.794  -0.204   7.710  0.0930 -0.5878 -0.2354
   91SAPS  H14R 8876   5.695  -0.252   7.714  0.0489 -0.6206 -1.5797
   91SAPS  C215 8877   5.894  -0.262   7.776 -0.1672  0.7385  0.1874
   91SAPS  H15R 8878   5.894  -0.371   7.784 -0.7222  0.6456 -1.1029
   91SAPS  C216 8879   6.027  -0.209   7.817 -0.2668  0.1597 -0.5067
   91SAPS  H16R 8880   6.037  -0.101   7.795  1.5771  0.3951  1.3667
   91SAPS  H16S 8881   6.107  -0.264   7.763  2.1303  1.5595  1.4996
   91SAPS  C217 8882   6.054  -0.245   7.964 -0.1327  0.4093  0.1459
   91SAPS  H17R 8883   6.150  -0.195   7.988 -0.5182  1.8205 -1.1530
   91SAPS  H17S 8884   6.077  -0.352   7.983  0.7958  0.5472 -0.1576
   91SAPS  C218 8885   5.942  -0.212   8.062  0.0132 -0.0492  0.1689
   91SAPS  H18R 8886   5.842  -0.200   8.015 -0.1776  0.5091  0.7087
   91SAPS  H18S 8887   5.959  -0.112   8.107 -0.6682 -1.3574  3.4581
   91SAPS  C219 8888   5.932  -0.309   8.184  0.4348  0.5161 -0.2694
   91SAPS  H19R 8889   6.032  -0.317   8.232  0.4504  0.9221 -0.2314
   91SAPS  H19S 8890   5.893  -0.405   8.146  1.8586 -0.5212  0.8438
   91SAPS  C220 8891   5.845  -0.253   8.298 -0.0244  0.6085 -0.8121
   91SAPS  H20R 8892   5.840  -0.324   8.383  1.0310  0.2372 -1.0522
   91SAPS  H20S 8893   5.743  -0.249   8.254 -0.8680 -0.3154  0.9922
   91SAPS  H20T 8894   5.884  -0.157   8.336  1.1418  1.1374 -3.2271
   91SAPS   C33 8895   5.902   0.119   6.906  0.2206  0.2525  0.3830
   91SAPS   H3X 8896   5.942   0.049   6.983  0.7060  1.0521  0.8689
   91SAPS   H3Y 8897   5.798   0.137   6.940  0.7729  0.9421  1.7677
   91SAPS   C34 8898   5.988   0.244   6.901  0.5225 -0.5776  0.9149
   91SAPS   H4X 8899   6.066   0.244   6.822  0.8981  0.2063  1.2845
   91SAPS   H4Y 8900   6.049   0.246   6.993  0.2688 -1.4320  1.1096
   91SAPS   C35 8901   5.902   0.381   6.892 -0.1920  0.3727  0.0753
   91SAPS   H5X 8902   5.824   0.372   6.813 -0.0437 -1.7551  0.1637
   91SAPS   H5Y 8903   5.974   0.465   6.883 -1.7102  1.7937  0.8250
   91SAPS   C36 8904   5.821   0.408   7.025 -0.9981 -0.1565  0.0915
   91SAPS   H6X 8905   5.761   0.317   7.048  0.3291 -1.3764 -1.2453
   91SAPS   H6Y 8906   5.748   0.490   7.010  0.0102  0.4769 -1.4693
   91SAPS   C37 8907   5.919   0.451   7.142 -0.2782 -0.4289 -0.6511
   91SAPS   H7X 8908   5.955   0.555   7.132 -1.0961 -0.0758  0.0467
   91SAPS   H7Y 8909   6.003   0.378   7.139  0.4853  0.2826  1.9677
   91SAPS   C38 8910   5.859   0.437   7.286 -0.4694  0.0743 -0.1616
   91SAPS   H8X 8911   5.856   0.328   7.308 -1.3329 -0.1563 -1.3881
   91SAPS   H8Y 8912   5.756   0.477   7.298  0.7806  2.8387  1.8129
   91SAPS   C39 8913   5.956   0.482   7.393  0.2982 -0.6680  0.2367
   91SAPS   H9X 8914   5.962   0.593   7.384 -0.9685 -0.8457 -3.3436
   91SAPS   H9Y 8915   6.055   0.433   7.381  0.9073  0.1515  1.6505
   91SAPS  C310 8916   5.899   0.442   7.531 -0.2418  0.0747  1.2150
   91SAPS  H10X 8917   5.917   0.332   7.538 -1.1633 -0.0604  1.5727
   91SAPS  H10Y 8918   5.791   0.468   7.533 -0.8161 -2.2497  1.7851
   91SAPS  C311 8919   5.963   0.513   7.648  0.0539 -0.5315 -0.4051
   91SAPS  H11X 8920   5.971   0.624   7.636 -1.8110 -0.4995 -1.5361
   91SAPS  H11Y 8921   6.069   0.486   7.665 -0.1066 -0.0960  1.4337
   91SAPS  C312 8922   5.897   0.489   7.782  1.3053  0.3150  0.1424
   91SAPS  H12X 8923   5.795   0.533   7.786  0.7960 -0.9429  2.2817
   91SAPS  H12Y 8924   5.968   0.523   7.861  2.5487 -0.3927 -0.6524
   91SAPS  C313 8925   5.886   0.341   7.824 -0.1443 -0.5361  0.4506
   91SAPS  H13X 8926   5.985   0.291   7.821 -0.7309 -1.6073 -1.6995
   91SAPS  H13Y 8927   5.824   0.292   7.747 -0.2040  0.9636 -0.4843
   91SAPS  C314 8928   5.827   0.310   7.963 -0.4223 -0.0220 -0.4053
   91SAPS  H14X 8929   5.718   0.329   7.963 -0.2702  0.8803 -0.2338
   91SAPS  H14Y 8930   5.875   0.377   8.038 -1.3896  1.2846 -0.9463
   91SAPS  C315 8931   5.832   0.165   8.010 -0.4671  0.5061  0.2960
   91SAPS  H15X 8932   5.938   0.136   7.996 -0.4585  1.3155 -1.5488
   91SAPS  H15Y 8933   5.761   0.097   7.959 -3.2477  3.0572  0.5866
   91SAPS  C316 8934   5.801   0.153   8.156  0.7233  0.0889  0.4676
   91SAPS  H16X 8935   5.798   0.047   8.189  1.1609  0.3937  1.5135
   91SAPS  H16Y 8936   5.701   0.196   8.176  0.0933 -0.9336 -0.4618
   91SAPS  C317 8937   5.905   0.214   8.248  0.7029  0.0567 -0.6794
   91SAPS  H17X 8938   5.900   0.324   8.256  1.4896  0.0224  0.4304
   91SAPS  H17Y 8939   6.013   0.192   8.232  0.4600 -0.7286 -1.2850
   91SAPS  C318 8940   5.880   0.174   8.391 -0.2728  0.6074 -0.4089
   91SAPS  H18X 8941   5.884   0.063   8.395 -1.6717  0.5164 -0.9253
   91SAPS  H18Y 8942   5.781   0.220   8.415 -0.3393  1.0391 -1.4760
   91SAPS  H18Z 8943   5.954   0.206   8.467  0.8601 -0.2505 -1.1395
   92SAPS     N 8944   5.076   5.161   6.027  0.1661 -0.0438 -0.6637
   92SAPS   HN1 8945   5.118   5.141   5.934 -1.3440  1.3642 -1.6708
   92SAPS   HN2 8946   4.994   5.097   6.040 -1.2933  2.0866  0.9930
   92SAPS   HN3 8947   5.051   5.262   6.029  2.8110  0.6277 -0.2792
   92SAPS   C12 8948   5.179   5.135   6.122  0.1736 -0.8112  0.3804
   92SAPS  H12A 8949   5.210   5.032   6.120  0.9452 -0.6291  1.8581
   92SAPS   C13 8950   5.307   5.223   6.110  0.2412  0.0505 -0.4658
   92SAPS  O13A 8951   5.316   5.315   6.025 -0.1950 -0.4833 -0.0692
   92SAPS  O13B 8952   5.401   5.179   6.178 -0.2979  0.3215 -0.2080
   92SAPS   C11 8953   5.116   5.141   6.264 -0.0847  0.1959 -0.7343
   92SAPS  H11A 8954   5.088   5.246   6.290 -0.0233  0.0916 -0.2499
   92SAPS  H11B 8955   5.203   5.113   6.327  0.2693  0.8197 -0.9374
   92SAPS     P 8956   5.034   4.899   6.315 -0.6832  0.2001  0.3182
   92SAPS   O13 8957   4.944   4.806   6.243 -0.0656 -0.3043  0.3349
   92SAPS   O14 8958   5.179   4.861   6.313 -0.2638  0.0223 -0.2392
   92SAPS   O12 8959   5.005   5.053   6.280  0.2073  0.2098  0.0049
   92SAPS   O11 8960   4.978   4.901   6.462  0.7344 -0.0424  0.0200
   92SAPS    C1 8961   5.045   4.984   6.565 -0.3896  0.2013 -0.3814
   92SAPS    HA 8962   5.147   4.939   6.571 -0.3270  0.2315 -1.1567
   92SAPS    HB 8963   5.049   5.092   6.539  3.3051  0.4715  0.9311
   92SAPS    C2 8964   4.965   4.962   6.689 -0.3082  0.1840 -0.5648
   92SAPS    HS 8965   4.966   4.851   6.697  1.1326  0.1578 -1.0600
   92SAPS   O21 8966   4.840   5.023   6.676 -0.1773 -0.5535  0.0866
   92SAPS   C21 8967   4.736   4.950   6.710  0.2725  0.7223  0.0362
   92SAPS   O22 8968   4.738   4.837   6.760  0.7215  0.3206  0.0186
   92SAPS   C22 8969   4.608   5.026   6.669  0.9163 -0.0546 -0.3546
   92SAPS   H2R 8970   4.632   5.128   6.631 -1.2243  0.0684 -1.4398
   92SAPS   H2S 8971   4.569   4.955   6.593 -2.4984  1.8891 -0.5164
   92SAPS    C3 8972   5.023   5.034   6.811  0.8173  0.2256  0.9939
   92SAPS    HX 8973   4.961   5.023   6.902 -1.1221  0.8404 -0.2259
   92SAPS    HY 8974   5.020   5.143   6.790 -3.0098 -0.3595 -1.9581
   92SAPS   O31 8975   5.157   4.988   6.836  0.2399  0.2275 -0.4409
   92SAPS   C31 8976   5.157   4.876   6.908 -0.6547  0.4870 -0.3267
   92SAPS   O32 8977   5.059   4.816   6.946  0.1044 -0.4487 -0.2891
   92SAPS   C32 8978   5.304   4.829   6.932  0.4942 -0.6498  0.4960
   92SAPS   H2X 8979   5.357   4.869   6.843 -0.3589  0.7441  0.6057
   92SAPS   H2Y 8980   5.302   4.719   6.916  0.3904 -0.7802  1.4135
   92SAPS   C23 8981   4.505   5.024   6.783  0.4206 -0.1007 -0.5488
   92SAPS   H3R 8982   4.509   4.920   6.821 -2.1781 -0.7004 -1.7518
   92SAPS   H3S 8983   4.405   5.043   6.737  1.4206  0.8645 -2.3920
   92SAPS   C24 8984   4.529   5.130   6.899  0.5618 -0.3439 -0.1925
   92SAPS   H4R 8985   4.446   5.121   6.973  0.0300  1.9693 -0.4585
   92SAPS   H4S 8986   4.505   5.237   6.881 -2.3775 -0.8992  0.1648
   92SAPS   C25 8987   4.664   5.120   6.967 -0.0090 -0.1094  0.3839
   92SAPS   H5R 8988   4.746   5.165   6.909 -0.9915  1.1132 -0.0511
   92SAPS   C26 8989   4.694   5.053   7.080  0.8134  0.6242  0.2749
   92SAPS   H6R 8990   4.796   5.058   7.121  0.4216  0.4867  1.2955
   92SAPS   C27 8991   4.588   4.993   7.172 -0.4657 -1.0081 -0.2942
   92SAPS   H7R 8992   4.491   4.970   7.124 -0.9397  0.0650  0.1528
   92SAPS   H7S 8993   4.584   5.070   7.252 -1.8282 -0.6104 -0.7390
   92SAPS   C28 8994   4.649   4.861   7.215  0.4068  0.7739 -0.7662
   92SAPS   H8R 8995   4.623   4.771   7.159  0.0973  1.2168 -1.3343
   92SAPS   C29 8996   4.746   4.849   7.305 -0.5015  0.1364 -0.0858
   92SAPS   H9R 8997   4.792   4.749   7.316 -0.0428  0.3045 -0.4724
   92SAPS  C210 8998   4.811   4.956   7.395  0.0983 -0.1239 -0.0066
   92SAPS  H10R 8999   4.767   4.939   7.495  0.5814  1.4349  0.4925
   92SAPS  H10S 9000   4.779   5.059   7.366 -0.8566 -0.3246  0.3113
   92SAPS  C211 9001   4.956   4.944   7.409  0.2443  0.1376  1.6225
   92SAPS  H11R 9002   4.992   4.846   7.444 -1.9291 -1.7890 -1.2930
   92SAPS  C212 9003   5.049   5.032   7.367 -0.1747  0.2105 -0.5371
   92SAPS  H12R 9004   5.146   4.986   7.343 -0.5707 -1.9750  1.7830
   92SAPS  C213 9005   5.028   5.168   7.317 -0.1356  0.1608 -0.5417
   92SAPS  H13R 9006   4.921   5.169   7.286  0.0153  1.8563 -1.0888
   92SAPS  H13S 9007   5.102   5.184   7.235 -0.5345  0.7501 -0.7941
   92SAPS  C214 9008   5.052   5.276   7.417 -0.0128  0.3673  0.6044
   92SAPS  H14R 9009   5.157   5.282   7.450 -0.3680 -0.0524  1.8379
   92SAPS  C215 9010   4.965   5.362   7.473  0.3138 -0.2776  0.2663
   92SAPS  H15R 9011   4.998   5.442   7.540  0.8553  0.0025 -0.3348
   92SAPS  C216 9012   4.814   5.363   7.451 -0.0186  0.2521  0.8478
   92SAPS  H16R 9013   4.761   5.380   7.548 -0.8018  0.9989  0.2921
   92SAPS  H16S 9014   4.775   5.267   7.413  0.3910  0.1200  0.7574
   92SAPS  C217 9015   4.765   5.475   7.353 -0.5931  0.9556 -0.8597
   92SAPS  H17R 9016   4.810   5.572   7.383  2.4955 -1.2624  2.1689
   92SAPS  H17S 9017   4.655   5.487   7.363 -0.8502 -1.1375 -0.8161
   92SAPS  C218 9018   4.779   5.436   7.211  0.4269 -0.2176  0.4891
   92SAPS  H18R 9019   4.730   5.338   7.193  1.7763 -1.2003  2.0033
   92SAPS  H18S 9020   4.885   5.415   7.187  0.7275 -0.2492  1.8046
   92SAPS  C219 9021   4.710   5.540   7.120 -0.1765  0.5210 -0.1513
   92SAPS  H19R 9022   4.773   5.631   7.110 -0.5134  0.8000  0.2697
   92SAPS  H19S 9023   4.605   5.562   7.149 -0.2570 -0.6154  0.4505
   92SAPS  C220 9024   4.697   5.492   6.966  0.6057 -0.2494 -0.4480
   92SAPS  H20R 9025   4.608   5.425   6.965 -0.3479  0.9314  2.2195
   92SAPS  H20S 9026   4.781   5.427   6.932  0.0338 -0.6640 -1.1037
   92SAPS  H20T 9027   4.674   5.582   6.906  0.4376  1.5115  2.1935
   92SAPS   C33 9028   5.363   4.873   7.065 -0.2119  0.3217  0.0305
   92SAPS   H3X 9029   5.312   4.815   7.145  1.1592 -2.0645 -0.7476
   92SAPS   H3Y 9030   5.349   4.980   7.091 -1.0381  0.9319 -2.7803
   92SAPS   C34 9031   5.517   4.854   7.062 -0.2835  0.6516  0.1498
   92SAPS   H4X 9032   5.568   4.936   7.008  0.5283 -0.9442 -1.5767
   92SAPS   H4Y 9033   5.535   4.761   7.003  0.1049  0.6193  0.3199
   92SAPS   C35 9034   5.583   4.851   7.202 -0.0141  0.1219 -0.5882
   92SAPS   H5X 9035   5.693   4.837   7.189 -0.4585 -2.8980 -1.3959
   92SAPS   H5Y 9036   5.549   4.775   7.275  1.2926  2.2058  2.3090
   92SAPS   C36 9037   5.565   4.982   7.281  0.0789 -0.3705 -0.1153
   92SAPS   H6X 9038   5.462   5.009   7.311  0.8272  1.4143  0.9107
   92SAPS   H6Y 9039   5.600   5.063   7.214  0.9495  1.7070  2.7708
   92SAPS   C37 9040   5.639   4.986   7.415 -0.2309 -0.3664 -0.1852
   92SAPS   H7X 9041   5.707   5.073   7.419 -0.9210  0.1259  0.9902
   92SAPS   H7Y 9042   5.707   4.899   7.428  2.2093  1.7368  1.4735
   92SAPS   C38 9043   5.556   4.987   7.539 -0.6961 -0.2408 -0.2748
   92SAPS   H8X 9044   5.509   4.888   7.550 -0.9334 -0.0044  0.9457
   92SAPS   H8Y 9045   5.480   5.068   7.535 -0.8645 -0.3149  1.2181
   92SAPS   C39 9046   5.644   5.012   7.663  0.1926  0.6300  0.6543
   92SAPS   H9X 9047   5.678   5.116   7.643  1.9163 -0.2736 -1.3733
   92SAPS   H9Y 9048   5.731   4.943   7.668 -0.1738 -0.0378 -1.6713
   92SAPS  C310 9049   5.556   4.993   7.789 -0.4054 -0.1574 -0.5272
   92SAPS  H10X 9050   5.496   4.900   7.789  0.8479 -0.9872  1.2242
   92SAPS  H10Y 9051   5.478   5.071   7.773 -0.5690 -0.4087 -0.9695
   92SAPS  C311 9052   5.633   5.015   7.926 -0.3510  0.0369 -0.4066
   92SAPS  H11X 9053   5.659   5.122   7.935 -0.1177  0.1135 -1.9124
   92SAPS  H11Y 9054   5.724   4.950   7.927 -0.7274 -0.4758  1.7265
   92SAPS  C312 9055   5.555   4.972   8.043  0.1103 -0.2104 -0.0035
   92SAPS  H12X 9056   5.576   4.863   8.048 -1.0381 -0.3785  1.5474
   92SAPS  H12Y 9057   5.450   5.003   8.025 -0.0731 -0.1518  1.1575
   92SAPS  C313 9058   5.607   5.035   8.171  0.5333 -0.2699  0.0437
   92SAPS  H13X 9059   5.559   5.135   8.175 -1.9299 -1.4333  0.6005
   92SAPS  H13Y 9060   5.717   5.051   8.161  0.7193 -0.8457  1.0307
   92SAPS  C314 9061   5.584   4.948   8.290  0.0083  0.0930 -0.4423
   92SAPS  H14X 9062   5.609   4.841   8.273  3.3952  0.9485 -1.3150
   92SAPS  H14Y 9063   5.475   4.955   8.308  0.4940 -1.1710  3.4959
   92SAPS  C315 9064   5.656   4.998   8.418 -0.4574 -0.6550  0.1669
   92SAPS  H15X 9065   5.585   5.002   8.504  1.0891  0.9928  1.4165
   92SAPS  H15Y 9066   5.695   5.100   8.396  2.5763 -2.0373 -1.1319
   92SAPS  C316 9067   5.778   4.917   8.464 -0.1452 -0.4300  0.2194
   92SAPS  H16X 9068   5.843   4.904   8.375  0.1569  0.3581  0.3234
   92SAPS  H16Y 9069   5.748   4.813   8.489 -0.9635 -0.0973  0.6400
   92SAPS  C317 9070   5.853   4.955   8.592 -0.0818  0.3317  0.5139
   92SAPS  H17X 9071   5.938   4.884   8.590 -0.1564  0.2541 -0.3182
   92SAPS  H17Y 9072   5.792   4.935   8.683  0.2083  1.1854  0.8922
   92SAPS  C318 9073   5.910   5.098   8.578  0.4085  0.1424  0.1370
   92SAPS  H18X 9074   5.985   5.115   8.658  0.8050  0.8464 -0.3804
   92SAPS  H18Y 9075   5.830   5.175   8.581 -1.9902 -2.0267 -3.3745
   92SAPS  H18Z 9076   5.958   5.110   8.478  1.5254 -0.2527  0.6154
   93SAPS     N 9077   6.733   5.907   6.517 -0.3568 -0.7426  0.6359
   93SAPS   HN1 9078   6.808   5.978   6.533 -1.1424 -0.0396  1.2321
   93SAPS   HN2 9079   6.721   5.846   6.600 -1.7890  0.0479  1.0161
   93SAPS   HN3 9080   6.756   5.852   6.432 -1.8478  0.2962 -0.4630
   93SAPS   C12 9081   6.599   5.982   6.496  0.3403  0.2951  0.5147
   93SAPS  H12A 9082   6.580   6.043   6.584  1.0334 -0.2828  1.0672
   93SAPS   C13 9083   6.596   6.078   6.373 -0.1770 -0.1720  0.1589
   93SAPS  O13A 9084   6.692   6.071   6.291 -0.2987 -0.3278 -0.1694
   93SAPS  O13B 9085   6.488   6.133   6.342 -0.5654 -0.3105 -0.2118
   93SAPS   C11 9086   6.482   5.881   6.475 -0.3816  0.6651 -0.0204
   93SAPS  H11A 9087   6.395   5.942   6.443 -0.3237 -0.3897 -2.2535
   93SAPS  H11B 9088   6.443   5.839   6.570  3.7937 -1.4762  0.9093
   93SAPS     P 9089   6.461   5.626   6.404 -0.0564 -0.1277  0.1861
   93SAPS   O13 9090   6.315   5.641   6.405  0.1606 -0.4969 -0.2941
   93SAPS   O14 9091   6.528   5.540   6.298  0.0781  0.0375 -0.1197
   93SAPS   O12 9092   6.514   5.772   6.384  0.7405  0.3717 -0.3944
   93SAPS   O11 9093   6.513   5.579   6.550  0.9274 -0.0221 -0.7011
   93SAPS    C1 9094   6.445   5.468   6.610 -0.8298  1.1015 -0.1022
   93SAPS    HA 9095   6.435   5.383   6.539  3.2180 -1.5096  2.1936
   93SAPS    HB 9096   6.525   5.427   6.676 -0.4806  2.5468  0.3794
   93SAPS    C2 9097   6.327   5.498   6.707  0.0012 -0.6875 -0.2849
   93SAPS    HS 9098   6.234   5.541   6.662 -0.3430  0.0914  1.1396
   93SAPS   O21 9099   6.378   5.580   6.811  1.0822 -0.2776  0.3334
   93SAPS   C21 9100   6.280   5.651   6.870  1.2222 -0.4911  0.5345
   93SAPS   O22 9101   6.163   5.646   6.849  0.8424 -0.2171 -0.3385
   93SAPS   C22 9102   6.338   5.718   6.978  0.6591  0.1959  0.5082
   93SAPS   H2R 9103   6.445   5.691   6.983  0.7304  0.5929  1.2712
   93SAPS   H2S 9104   6.332   5.829   6.976 -0.0547  0.1508  0.0496
   93SAPS    C3 9105   6.259   5.362   6.753  0.1045  0.2953 -0.4515
   93SAPS    HX 9106   6.213   5.320   6.661 -0.3307 -1.7865  0.6822
   93SAPS    HY 9107   6.177   5.399   6.818 -0.6608  0.7410 -1.6520
   93SAPS   O31 9108   6.356   5.281   6.822  0.0013  0.7099 -0.1592
   93SAPS   C31 9109   6.324   5.153   6.822 -0.2389  0.7751 -0.5933
   93SAPS   O32 9110   6.210   5.109   6.800 -0.2719 -0.8910 -0.1655
   93SAPS   C32 9111   6.447   5.070   6.861 -0.1698 -0.4072 -0.7836
   93SAPS   H2X 9112   6.534   5.136   6.881  0.6127 -1.2129 -1.4920
   93SAPS   H2Y 9113   6.473   5.000   6.779 -0.1664 -0.5359 -0.6720
   93SAPS   C23 9114   6.266   5.677   7.113 -0.6740  0.1260 -0.0601
   93SAPS   H3R 9115   6.298   5.572   7.128 -0.2929  0.4599  1.4813
   93SAPS   H3S 9116   6.155   5.677   7.101 -0.4996  1.7770 -1.8993
   93SAPS   C24 9117   6.303   5.762   7.227 -0.1556  0.4228 -0.6303
   93SAPS   H4R 9118   6.255   5.862   7.218 -0.3664  0.5470  1.6723
   93SAPS   H4S 9119   6.412   5.782   7.218  0.0505  0.6897  2.1714
   93SAPS   C25 9120   6.257   5.703   7.352  0.1455  0.0306 -0.1589
   93SAPS   H5R 9121   6.170   5.635   7.356 -0.0170  0.3130  1.2484
   93SAPS   C26 9122   6.316   5.717   7.475  0.8795  0.6464  0.1298
   93SAPS   H6R 9123   6.284   5.661   7.563 -0.6932  0.9791 -0.2074
   93SAPS   C27 9124   6.435   5.804   7.507 -0.1018  0.0465 -0.1088
   93SAPS   H7R 9125   6.431   5.828   7.616  2.7233 -1.5259  0.4259
   93SAPS   H7S 9126   6.418   5.900   7.456 -0.8107  0.3913  0.7752
   93SAPS   C28 9127   6.574   5.759   7.472 -0.1781  0.1259  0.3567
   93SAPS   H8R 9128   6.581   5.725   7.368 -0.3439  0.8561  0.1030
   93SAPS   C29 9129   6.674   5.731   7.557 -0.2501 -0.3279  0.0260
   93SAPS   H9R 9130   6.764   5.687   7.511 -0.0048 -2.0719  2.0690
   93SAPS  C210 9131   6.686   5.731   7.708 -0.3967 -0.0920 -0.3329
   93SAPS  H10R 9132   6.792   5.705   7.730 -0.5188  0.5751  1.1157
   93SAPS  H10S 9133   6.622   5.652   7.752 -0.8628 -0.6439 -1.9876
   93SAPS  C211 9134   6.662   5.864   7.770  0.3964 -0.0194 -0.0425
   93SAPS  H11R 9135   6.723   5.943   7.725 -0.5751  2.2571  2.4754
   93SAPS  C212 9136   6.562   5.899   7.859  0.3430 -0.4032  0.4112
   93SAPS  H12R 9137   6.560   6.000   7.904  0.9186 -0.3982  0.4317
   93SAPS  C213 9138   6.459   5.807   7.917  0.6092 -0.3601 -0.1274
   93SAPS  H13R 9139   6.475   5.814   8.026 -0.0624  3.1841 -0.1992
   93SAPS  H13S 9140   6.473   5.705   7.874 -2.0464  0.1409 -2.3278
   93SAPS  C214 9141   6.312   5.838   7.894 -0.9186 -0.0578 -0.5617
   93SAPS  H14R 9142   6.271   5.810   7.796 -1.5001  1.0593 -0.6478
   93SAPS  C215 9143   6.228   5.910   7.967  0.2784 -0.2390  0.4866
   93SAPS  H15R 9144   6.125   5.919   7.931  0.4939 -1.6152 -0.4911
   93SAPS  C216 9145   6.244   5.986   8.097  0.0953 -0.4435 -0.3699
   93SAPS  H16R 9146   6.338   5.956   8.147  0.5103  1.0799 -0.1993
   93SAPS  H16S 9147   6.153   5.963   8.157 -0.5640  2.6611 -0.0487
   93SAPS  C217 9148   6.247   6.138   8.102  0.2614 -1.2057  0.4652
   93SAPS  H17R 9149   6.163   6.186   8.047 -0.3091 -1.5095  1.0598
   93SAPS  H17S 9150   6.342   6.168   8.052 -1.0211  1.3230 -0.5743
   93SAPS  C218 9151   6.253   6.192   8.253 -0.1563  0.3813  0.2350
   93SAPS  H18R 9152   6.168   6.149   8.310  0.4062 -0.7929  0.2026
   93SAPS  H18S 9153   6.239   6.302   8.245 -0.7747  0.2649 -0.2629
   93SAPS  C219 9154   6.380   6.154   8.333 -0.5067 -0.5457  0.1430
   93SAPS  H19R 9155   6.466   6.193   8.274 -2.0491 -0.6069 -2.1965
   93SAPS  H19S 9156   6.396   6.045   8.349  1.5917 -0.3518 -0.4734
   93SAPS  C220 9157   6.381   6.219   8.468 -0.0926 -0.1809  0.1208
   93SAPS  H20R 9158   6.365   6.329   8.460 -1.4053 -0.3129  0.8050
   93SAPS  H20S 9159   6.482   6.201   8.512  0.5357 -3.3482 -2.4491
   93SAPS  H20T 9160   6.299   6.179   8.531 -2.0425  1.9655 -0.9885
   93SAPS   C33 9161   6.410   4.984   6.985 -0.1527 -1.1163  0.2603
   93SAPS   H3X 9162   6.318   4.923   6.971 -0.3141 -0.8602  0.1830
   93SAPS   H3Y 9163   6.391   5.055   7.069 -0.9761 -0.3997 -0.5197
   93SAPS   C34 9164   6.520   4.890   7.001  1.1812  0.4098  0.3360
   93SAPS   H4X 9165   6.611   4.952   7.011  0.4493  1.3727  1.1289
   93SAPS   H4Y 9166   6.537   4.825   6.912 -0.6389 -0.1617  0.3826
   93SAPS   C35 9167   6.513   4.805   7.132 -0.4659  0.1260 -0.7012
   93SAPS   H5X 9168   6.600   4.735   7.126 -2.1129 -1.9762 -0.7190
   93SAPS   H5Y 9169   6.419   4.748   7.145 -0.5199  0.4811  0.5471
   93SAPS   C36 9170   6.531   4.881   7.266 -0.1546  0.3186  1.0739
   93SAPS   H6X 9171   6.463   4.970   7.269 -0.7030 -0.0569 -0.1564
   93SAPS   H6Y 9172   6.629   4.933   7.265 -1.3760  2.7073 -1.5356
   93SAPS   C37 9173   6.529   4.791   7.395  0.0003 -0.6753  0.2473
   93SAPS   H7X 9174   6.604   4.710   7.379  2.2739  1.3219  0.4893
   93SAPS   H7Y 9175   6.427   4.748   7.403 -0.5303  0.6447  0.7856
   93SAPS   C38 9176   6.560   4.860   7.525  0.1707  0.8023  0.7441
   93SAPS   H8X 9177   6.526   4.964   7.510  1.4857  0.8409 -2.3416
   93SAPS   H8Y 9178   6.671   4.869   7.527  0.3793 -1.1760 -0.5644
   93SAPS   C39 9179   6.484   4.816   7.654  0.1963 -0.0177 -0.1083
   93SAPS   H9X 9180   6.501   4.710   7.682  1.2553  0.3343  0.6025
   93SAPS   H9Y 9181   6.375   4.834   7.640 -0.6345 -3.8235  1.1145
   93SAPS  C310 9182   6.517   4.906   7.779  0.4057 -0.6663 -0.7370
   93SAPS  H10X 9183   6.527   5.013   7.750  1.2384 -0.5982 -0.2130
   93SAPS  H10Y 9184   6.611   4.861   7.816  0.0955 -0.7247 -0.0150
   93SAPS  C311 9185   6.404   4.884   7.883 -0.4865  0.1817 -0.4025
   93SAPS  H11X 9186   6.398   4.775   7.898 -2.7665  0.1461 -1.2557
   93SAPS  H11Y 9187   6.305   4.920   7.846  0.3038  1.0295 -1.7502
   93SAPS  C312 9188   6.444   4.958   8.014 -0.4260 -0.3118 -0.6141
   93SAPS  H12X 9189   6.429   5.068   8.001 -3.9065 -0.5287  1.0046
   93SAPS  H12Y 9190   6.552   4.950   8.040 -0.8738 -3.3674  0.4069
   93SAPS  C313 9191   6.364   4.916   8.136 -0.0991 -0.5412 -0.0967
   93SAPS  H13X 9192   6.390   4.813   8.168  0.2475 -0.2901  0.4412
   93SAPS  H13Y 9193   6.259   4.904   8.101  0.4809 -1.4078 -1.5713
   93SAPS  C314 9194   6.374   5.012   8.253  0.0409 -0.2257 -0.2124
   93SAPS  H14X 9195   6.313   5.104   8.239  1.1373  0.0177 -4.0273
   93SAPS  H14Y 9196   6.477   5.043   8.280 -0.9629  0.8293  2.5427
   93SAPS  C315 9197   6.316   4.940   8.380 -0.8154 -0.4187 -0.3142
   93SAPS  H15X 9198   6.367   4.843   8.398  0.0096  0.0519 -0.0468
   93SAPS  H15Y 9199   6.210   4.910   8.369 -1.0635  1.0219 -2.0584
   93SAPS  C316 9200   6.322   5.033   8.509 -0.3240  0.2648 -0.1894
   93SAPS  H16X 9201   6.430   5.049   8.527 -0.3332 -0.0933  0.2030
   93SAPS  H16Y 9202   6.287   4.983   8.602  0.4662  1.0938  0.5576
   93SAPS  C317 9203   6.255   5.166   8.489  0.5365 -0.2150 -0.1365
   93SAPS  H17X 9204   6.153   5.144   8.451 -0.5567 -0.7378  2.9810
   93SAPS  H17Y 9205   6.310   5.230   8.417  1.9980 -2.6861 -1.2962
   93SAPS  C318 9206   6.254   5.252   8.617  0.4381  0.1908  0.4283
   93SAPS  H18X 9207   6.224   5.185   8.700 -0.3371 -0.1459 -0.1117
   93SAPS  H18Y 9208   6.165   5.318   8.613  1.3750  1.5307  1.3787
   93SAPS  H18Z 9209   6.348   5.306   8.639  1.4532 -0.7933 -1.3323
   94SAPS     N 9210   5.864   0.570   5.920  0.1511  0.0209 -0.2019
   94SAPS   HN1 9211   5.954   0.613   5.951 -0.4809  0.2681  1.2824
   94SAPS   HN2 9212   5.785   0.603   5.978  0.6249  1.6164 -0.4372
   94SAPS   HN3 9213   5.874   0.467   5.932  1.4102  0.2474  0.9116
   94SAPS   C12 9214   5.841   0.591   5.778  0.1611 -0.0707  0.3414
   94SAPS  H12A 9215   5.929   0.558   5.724  0.5423  1.9299 -0.3003
   94SAPS   C13 9216   5.717   0.509   5.719 -0.0380  0.4561 -0.0805
   94SAPS  O13A 9217   5.660   0.423   5.793  0.0291 -0.5163  0.0471
   94SAPS  O13B 9218   5.702   0.505   5.594  0.5950  0.0033 -0.4775
   94SAPS   C11 9219   5.822   0.740   5.747  0.3385  0.0995  0.2792
   94SAPS  H11A 9220   5.798   0.759   5.641 -2.4371  1.2583  1.0634
   94SAPS  H11B 9221   5.914   0.801   5.761 -0.0508  0.4913  1.1528
   94SAPS     P 9222   5.717   0.950   5.856  0.3166 -0.1302  0.1004
   94SAPS   O13 9223   5.728   1.025   5.733  0.2026  0.1645 -0.1437
   94SAPS   O14 9224   5.599   0.980   5.940  0.0563  0.0847 -0.3164
   94SAPS   O12 9225   5.723   0.799   5.836 -0.0039  0.0767 -0.5433
   94SAPS   O11 9226   5.847   0.979   5.943 -0.2251 -0.0432  0.2793
   94SAPS    C1 9227   5.842   0.912   6.072  0.2355  0.4281 -0.7508
   94SAPS    HA 9228   5.747   0.921   6.128  1.2071 -1.4195  1.2738
   94SAPS    HB 9229   5.878   0.807   6.069 -1.4429 -0.1529 -0.9726
   94SAPS    C2 9230   5.938   0.984   6.177  0.3102  0.4131 -0.6096
   94SAPS    HS 9231   6.035   1.004   6.127  0.2993  0.4000 -0.6357
   94SAPS   O21 9232   5.956   0.900   6.292 -0.0829  0.2438  0.1768
   94SAPS   C21 9233   6.058   0.821   6.285 -0.5635 -0.6874 -0.1364
   94SAPS   O22 9234   6.137   0.817   6.193 -0.6679  0.1000  0.2719
   94SAPS   C22 9235   6.071   0.741   6.408  0.4445  0.1665  0.3688
   94SAPS   H2R 9236   6.090   0.806   6.496  1.5021 -1.4838  1.4020
   94SAPS   H2S 9237   5.973   0.691   6.425  0.2306  0.2487 -0.6240
   94SAPS    C3 9238   5.891   1.129   6.214 -0.1724 -0.0107  0.2181
   94SAPS    HX 9239   5.869   1.164   6.111  1.4145 -0.7022 -0.3825
   94SAPS    HY 9240   5.979   1.183   6.256 -0.6298  2.8050 -2.3035
   94SAPS   O31 9241   5.769   1.136   6.283  0.3518 -0.8927 -0.0377
   94SAPS   C31 9242   5.784   1.141   6.417 -0.1917 -0.0607 -0.6956
   94SAPS   O32 9243   5.883   1.106   6.479 -0.3029 -0.2124 -0.3163
   94SAPS   C32 9244   5.643   1.176   6.481  0.0878  0.4647 -0.0267
   94SAPS   H2X 9245   5.594   1.076   6.486  1.1577  0.0580  3.4329
   94SAPS   H2Y 9246   5.595   1.251   6.415  0.7277  1.8126  1.0145
   94SAPS   C23 9247   6.186   0.631   6.400 -0.1362 -0.0814  0.4563
   94SAPS   H3R 9248   6.282   0.681   6.423 -2.1036  2.5660  3.3543
   94SAPS   H3S 9249   6.176   0.578   6.303 -1.0273 -1.0778  1.0666
   94SAPS   C24 9250   6.165   0.529   6.519 -0.4470 -0.0580 -0.2450
   94SAPS   H4R 9251   6.064   0.542   6.562  0.3732 -0.3499  1.8332
   94SAPS   H4S 9252   6.221   0.570   6.606 -2.4719  1.3134  0.4610
   94SAPS   C25 9253   6.198   0.384   6.501 -0.7022  0.3570  0.3368
   94SAPS   H5R 9254   6.121   0.322   6.452  1.5183 -0.7743 -1.8561
   94SAPS   C26 9255   6.311   0.321   6.546 -0.0887  0.0735 -1.0256
   94SAPS   H6R 9256   6.308   0.211   6.546  0.2618  0.0591  0.0820
   94SAPS   C27 9257   6.427   0.386   6.608 -0.4032 -0.5137 -0.6157
   94SAPS   H7R 9258   6.410   0.408   6.716  0.7577  1.6454 -0.8307
   94SAPS   H7S 9259   6.434   0.489   6.566 -1.3588 -0.4017 -0.5204
   94SAPS   C28 9260   6.553   0.318   6.585  0.1403  0.4833  0.1918
   94SAPS   H8R 9261   6.601   0.330   6.487 -0.1635 -0.9696 -0.1448
   94SAPS   C29 9262   6.623   0.266   6.685 -0.2359  0.3581  0.1720
   94SAPS   H9R 9263   6.715   0.213   6.657 -1.5576 -2.2927  0.6884
   94SAPS  C210 9264   6.598   0.271   6.836 -0.7138 -0.4640  0.1746
   94SAPS  H10R 9265   6.669   0.205   6.891 -0.6952 -0.7330 -0.1692
   94SAPS  H10S 9266   6.495   0.229   6.843 -1.5991  1.5462 -0.4085
   94SAPS  C211 9267   6.624   0.408   6.883 -0.0727  0.0447 -0.0899
   94SAPS  H11R 9268   6.610   0.490   6.811 -1.6154  0.3936  0.5790
   94SAPS  C212 9269   6.657   0.443   7.012  0.2665 -0.1784  0.1703
   94SAPS  H12R 9270   6.676   0.548   7.037  0.5903  0.1873 -1.5556
   94SAPS  C213 9271   6.679   0.347   7.127  0.2073 -0.1319  0.1070
   94SAPS  H13R 9272   6.774   0.290   7.119  0.8451  0.7817  0.9449
   94SAPS  H13S 9273   6.600   0.269   7.116  0.1579 -0.0962  0.1983
   94SAPS  C214 9274   6.672   0.407   7.263 -0.3964 -0.4315 -0.3387
   94SAPS  H14R 9275   6.766   0.434   7.312 -0.2396 -2.1715  0.3370
   94SAPS  C215 9276   6.563   0.435   7.340 -0.1311 -0.1431  0.1046
   94SAPS  H15R 9277   6.582   0.491   7.433  3.4616 -0.3786 -0.4300
   94SAPS  C216 9278   6.422   0.413   7.288 -0.4214 -0.6941 -0.7231
   94SAPS  H16R 9279   6.362   0.366   7.369 -3.0860 -1.1265 -2.8743
   94SAPS  H16S 9280   6.403   0.326   7.221  2.1731 -1.7734 -0.1430
   94SAPS  C217 9281   6.362   0.544   7.237 -0.5471  0.6898 -0.4031
   94SAPS  H17R 9282   6.265   0.510   7.194 -0.0905  0.4349 -1.2482
   94SAPS  H17S 9283   6.395   0.578   7.136 -0.4384  0.5627 -0.4107
   94SAPS  C218 9284   6.340   0.655   7.340 -0.5484 -0.1515  0.2514
   94SAPS  H18R 9285   6.434   0.682   7.391  0.2019 -0.5464 -0.8930
   94SAPS  H18S 9286   6.279   0.602   7.416  0.6111 -0.1357  1.1959
   94SAPS  C219 9287   6.263   0.778   7.284 -1.0857 -0.2204  0.5356
   94SAPS  H19R 9288   6.187   0.738   7.214 -0.0246  0.4384 -1.0333
   94SAPS  H19S 9289   6.337   0.834   7.222 -1.3429 -1.4485 -0.9085
   94SAPS  C220 9290   6.217   0.865   7.397  0.2025  0.1715 -0.2968
   94SAPS  H20R 9291   6.154   0.800   7.462 -0.9573  2.1796  0.6377
   94SAPS  H20S 9292   6.141   0.931   7.349  0.1041  0.3905  0.1574
   94SAPS  H20T 9293   6.296   0.915   7.457  0.3056 -0.6140  0.2369
   94SAPS   C33 9294   5.648   1.252   6.607  1.1976  0.5423  0.6021
   94SAPS   H3X 9295   5.549   1.281   6.649 -0.0619 -0.8697 -1.3159
   94SAPS   H3Y 9296   5.696   1.351   6.594 -0.2492  1.1100 -0.5094
   94SAPS   C34 9297   5.722   1.168   6.719  0.3040 -0.3369  0.1402
   94SAPS   H4X 9298   5.832   1.184   6.713  0.5088 -1.6015  0.2244
   94SAPS   H4Y 9299   5.706   1.060   6.700 -2.9706  0.2300 -0.5731
   94SAPS   C35 9300   5.672   1.197   6.859  0.4805 -0.0956 -0.5506
   94SAPS   H5X 9301   5.731   1.126   6.921 -0.4747 -0.7272 -0.3544
   94SAPS   H5Y 9302   5.565   1.167   6.854  1.0898 -2.5211  0.2841
   94SAPS   C36 9303   5.704   1.338   6.903 -0.3583 -0.8260 -0.6393
   94SAPS   H6X 9304   5.679   1.405   6.818  0.3931  0.7596  0.3730
   94SAPS   H6Y 9305   5.812   1.351   6.920 -0.5789  0.0353  0.1258
   94SAPS   C37 9306   5.624   1.397   7.020  0.5742  0.7623 -0.7020
   94SAPS   H7X 9307   5.516   1.398   6.998  0.2466 -0.9944  0.7040
   94SAPS   H7Y 9308   5.668   1.497   7.040  2.2809  0.0749 -0.9288
   94SAPS   C38 9309   5.627   1.307   7.149  0.0455  0.7136  0.2992
   94SAPS   H8X 9310   5.576   1.210   7.130  0.2213  1.2760 -3.4077
   94SAPS   H8Y 9311   5.569   1.365   7.224 -1.2852  2.0921 -1.7741
   94SAPS   C39 9312   5.771   1.281   7.194  0.3724 -0.1963  0.8641
   94SAPS   H9X 9313   5.824   1.379   7.194 -1.4009  0.7842  0.4893
   94SAPS   H9Y 9314   5.821   1.213   7.121 -1.1679 -3.1564  2.5004
   94SAPS  C310 9315   5.780   1.205   7.328  0.2960  0.5105  0.3912
   94SAPS  H10X 9316   5.770   1.096   7.309  0.2072  0.1394  2.4883
   94SAPS  H10Y 9317   5.691   1.234   7.389 -1.5926 -0.9033 -1.6060
   94SAPS  C311 9318   5.919   1.212   7.403  0.1209  0.1214  0.3929
   94SAPS  H11X 9319   5.934   1.318   7.432  0.1165 -0.2291  1.7020
   94SAPS  H11Y 9320   6.002   1.185   7.335 -2.3289 -3.7162 -1.2254
   94SAPS  C312 9321   5.926   1.117   7.520  0.7287  0.0735 -0.2350
   94SAPS  H12X 9322   5.920   1.014   7.478 -0.0012  0.6211 -1.4966
   94SAPS  H12Y 9323   5.833   1.131   7.579  0.1358  0.7830 -1.3343
   94SAPS  C313 9324   6.059   1.139   7.601  0.1466 -0.2587 -0.5743
   94SAPS  H13X 9325   6.147   1.104   7.543 -0.3214  0.2881 -1.6277
   94SAPS  H13Y 9326   6.044   1.079   7.694 -1.9308  2.0777  0.6478
   94SAPS  C314 9327   6.081   1.286   7.649  0.8122 -1.0250  0.3577
   94SAPS  H14X 9328   5.984   1.321   7.692  2.8640  3.2429  1.8086
   94SAPS  H14Y 9329   6.101   1.341   7.554  1.1322 -0.4610  0.7480
   94SAPS  C315 9330   6.196   1.295   7.749 -0.1440 -0.1184  0.0966
   94SAPS  H15X 9331   6.231   1.400   7.758  1.4317 -0.6432  0.2706
   94SAPS  H15Y 9332   6.276   1.226   7.718 -0.9035 -1.0753  0.2452
   94SAPS  C316 9333   6.157   1.257   7.895  0.5529 -0.1000 -0.3490
   94SAPS  H16X 9334   6.114   1.155   7.903  1.9863 -0.6867  0.1349
   94SAPS  H16Y 9335   6.080   1.333   7.921  0.5955 -0.6137  1.3237
   94SAPS  C317 9336   6.265   1.258   8.014  0.8730 -0.5406  0.3441
   94SAPS  H17X 9337   6.367   1.232   7.978 -0.0592 -0.8588 -2.1246
   94SAPS  H17Y 9338   6.244   1.176   8.087 -0.6833 -0.8050 -0.3784
   94SAPS  C318 9339   6.258   1.391   8.091  0.2553 -0.1437  0.3880
   94SAPS  H18X 9340   6.152   1.409   8.117  0.4973  0.7036  0.8078
   94SAPS  H18Y 9341   6.304   1.477   8.038  0.3991 -1.8826 -2.4023
   94SAPS  H18Z 9342   6.303   1.379   8.193 -0.5626 -0.6224  0.7005
   95SAPS     N 9343   2.636   5.755   6.112  0.1497  0.5538 -1.1595
   95SAPS   HN1 9344   2.648   5.858   6.109 -0.2231  0.5748 -1.9979
   95SAPS   HN2 9345   2.713   5.709   6.165  0.9306  1.8841 -1.1352
   95SAPS   HN3 9346   2.647   5.722   6.014  0.4017 -1.5440 -0.4617
   95SAPS   C12 9347   2.495   5.728   6.166 -0.6765  0.2788  0.0067
   95SAPS  H12A 9348   2.487   5.774   6.263 -0.2050  0.8069 -0.2069
   95SAPS   C13 9349   2.378   5.790   6.085 -1.0403 -0.3693  0.7998
   95SAPS  O13A 9350   2.400   5.854   5.977  0.1241  0.0213  0.1746
   95SAPS  O13B 9351   2.261   5.762   6.120  0.2383 -0.5849  0.0949
   95SAPS   C11 9352   2.479   5.573   6.194  0.3970 -0.2258  0.0508
   95SAPS  H11A 9353   2.478   5.515   6.099  0.1652 -1.1178  0.5860
   95SAPS  H11B 9354   2.383   5.559   6.247 -0.2352 -0.1391 -1.0567
   95SAPS     P 9355   2.607   5.390   6.330  0.5664 -0.4872  0.0129
   95SAPS   O13 9356   2.501   5.299   6.279 -0.7642 -0.1196 -0.3555
   95SAPS   O14 9357   2.741   5.339   6.334 -0.2752  0.2286  0.1633
   95SAPS   O12 9358   2.594   5.531   6.266 -0.4110 -0.8790 -0.5229
   95SAPS   O11 9359   2.559   5.424   6.472 -0.1026  0.1231 -0.1468
   95SAPS    C1 9360   2.567   5.557   6.522  0.2611  1.0812 -0.2343
   95SAPS    HA 9361   2.652   5.613   6.477  0.9251  0.5204  0.3079
   95SAPS    HB 9362   2.475   5.606   6.483 -1.8625 -1.0697  1.8621
   95SAPS    C2 9363   2.559   5.555   6.677  0.6689  0.3097  0.1812
   95SAPS    HS 9364   2.580   5.659   6.710 -0.6824  1.0186 -1.0924
   95SAPS   O21 9365   2.656   5.460   6.732  0.8106  0.0512  0.4666
   95SAPS   C21 9366   2.774   5.485   6.708 -0.0601  0.0861  0.6213
   95SAPS   O22 9367   2.814   5.583   6.643  0.0261  0.3763 -0.0952
   95SAPS   C22 9368   2.866   5.381   6.776  0.1767 -0.2062 -0.6233
   95SAPS   H2R 9369   2.868   5.286   6.718 -2.0839  0.1566 -1.3433
   95SAPS   H2S 9370   2.968   5.423   6.771 -0.7357  2.1106 -0.2443
   95SAPS    C3 9371   2.417   5.527   6.731 -0.2131  0.1967 -0.4197
   95SAPS    HX 9372   2.375   5.437   6.681 -3.2621  0.6477  1.1968
   95SAPS    HY 9373   2.352   5.614   6.705  0.8148  1.0545 -0.1490
   95SAPS   O31 9374   2.422   5.514   6.878  0.0760  0.7873 -0.4438
   95SAPS   C31 9375   2.451   5.391   6.921  0.0813 -0.1412 -0.2158
   95SAPS   O32 9376   2.440   5.287   6.856 -0.0849 -0.2513  0.3789
   95SAPS   C32 9377   2.496   5.396   7.067 -0.3685  0.2966  0.2492
   95SAPS   H2X 9378   2.426   5.469   7.113 -0.8634 -0.7806  1.2544
   95SAPS   H2Y 9379   2.601   5.430   7.075 -0.4144  0.8282 -1.2036
   95SAPS   C23 9380   2.816   5.352   6.919  0.4592 -0.8329 -0.4449
   95SAPS   H3R 9381   2.713   5.312   6.930  1.3586 -2.5141  2.2998
   95SAPS   H3S 9382   2.816   5.454   6.965  1.7720 -0.9487 -0.1636
   95SAPS   C24 9383   2.904   5.250   6.984 -0.1083  0.5269  0.2015
   95SAPS   H4R 9384   2.883   5.261   7.092  0.7802 -2.5664  0.7518
   95SAPS   H4S 9385   3.007   5.287   6.964  0.3934 -1.4743 -1.1835
   95SAPS   C25 9386   2.875   5.112   6.942  0.2853  0.1867  0.8474
   95SAPS   H5R 9387   2.794   5.107   6.867 -1.7933  1.2832  2.9687
   95SAPS   C26 9388   2.904   4.998   7.017  0.1363 -0.6855  0.0642
   95SAPS   H6R 9389   2.878   4.900   6.975 -3.5035  0.0252  0.5146
   95SAPS   C27 9390   2.969   4.999   7.151  0.1799  0.2923 -0.0280
   95SAPS   H7R 9391   3.037   5.086   7.164  3.4662 -1.7595 -2.4078
   95SAPS   H7S 9392   3.030   4.906   7.157 -2.6777 -1.6853 -0.5493
   95SAPS   C28 9393   2.877   5.006   7.265  0.1171  0.9590  0.5189
   95SAPS   H8R 9394   2.769   5.002   7.243  0.0005 -1.4467  1.2879
   95SAPS   C29 9395   2.921   5.002   7.386  0.4256 -0.2019  0.1371
   95SAPS   H9R 9396   2.849   5.000   7.469 -1.6584 -1.2842 -1.6481
   95SAPS  C210 9397   3.069   4.981   7.430  0.0281  0.1857 -0.9600
   95SAPS  H10R 9398   3.089   5.034   7.525  1.4428 -1.1574 -0.4777
   95SAPS  H10S 9399   3.136   5.026   7.354 -0.9589  0.3415 -1.7468
   95SAPS  C211 9400   3.112   4.839   7.445  0.0884 -0.1673 -0.7097
   95SAPS  H11R 9401   3.159   4.798   7.354 -0.9752  1.5553 -2.0603
   95SAPS  C212 9402   3.109   4.763   7.560 -0.2168  0.0131 -0.2745
   95SAPS  H12R 9403   3.137   4.657   7.553 -1.2099 -0.3369  0.8667
   95SAPS  C213 9404   3.039   4.812   7.685  0.7313 -0.2693 -0.7127
   95SAPS  H13R 9405   3.013   4.728   7.752 -0.7135  1.1355  0.5256
   95SAPS  H13S 9406   2.941   4.856   7.657 -0.0489 -1.1177  0.6192
   95SAPS  C214 9407   3.113   4.922   7.762  0.1016 -0.0317  0.6754
   95SAPS  H14R 9408   3.182   4.987   7.706  0.3873  0.2134  1.2969
   95SAPS  C215 9409   3.093   4.963   7.886 -0.5152 -0.0211  0.3657
   95SAPS  H15R 9410   3.158   5.034   7.939  0.0586  0.6446 -1.1872
   95SAPS  C216 9411   2.976   4.912   7.976  0.4115 -0.2681  0.7074
   95SAPS  H16R 9412   2.945   4.810   7.946 -1.5944  1.4100 -3.4282
   95SAPS  H16S 9413   2.894   4.988   7.975  0.9168  0.2809 -0.0088
   95SAPS  C217 9414   3.024   4.887   8.126  0.6959  0.2584  0.0904
   95SAPS  H17R 9415   3.108   4.949   8.165  0.8052  0.1790 -0.0210
   95SAPS  H17S 9416   3.066   4.784   8.118  3.6539  1.3748  0.5901
   95SAPS  C218 9417   2.913   4.916   8.223  0.3435 -0.4743  0.1847
   95SAPS  H18R 9418   2.822   4.874   8.176 -0.9479  3.4593 -1.0260
   95SAPS  H18S 9419   2.899   5.026   8.233  0.9661 -0.2995 -0.7303
   95SAPS  C219 9420   2.930   4.843   8.357  0.0398 -0.0118 -0.8673
   95SAPS  H19R 9421   2.933   4.734   8.335 -0.4250 -0.6374  1.9909
   95SAPS  H19S 9422   2.840   4.867   8.417  2.1909  1.0705  2.0227
   95SAPS  C220 9423   3.043   4.878   8.449 -0.0800 -0.2039  0.5177
   95SAPS  H20R 9424   3.025   4.980   8.490 -2.9799 -0.5278  0.1431
   95SAPS  H20S 9425   3.141   4.884   8.396 -0.2254 -3.3260 -0.2096
   95SAPS  H20T 9426   3.033   4.804   8.531  0.5712 -2.0519 -1.0238
   95SAPS   C33 9427   2.479   5.268   7.139 -0.4888 -0.1471 -1.6028
   95SAPS   H3X 9428   2.523   5.178   7.091  1.8798 -0.7915  1.6123
   95SAPS   H3Y 9429   2.368   5.253   7.136 -0.8914  1.0477  2.9981
   95SAPS   C34 9430   2.525   5.283   7.291  0.2818 -0.9220 -0.3912
   95SAPS   H4X 9431   2.478   5.375   7.332  0.3218  0.4120 -3.2494
   95SAPS   H4Y 9432   2.633   5.310   7.287 -0.1879  0.8696 -1.1753
   95SAPS   C35 9433   2.506   5.155   7.368 -0.1868  0.2088 -0.6450
   95SAPS   H5X 9434   2.570   5.085   7.310 -3.0210 -1.7287 -1.5448
   95SAPS   H5Y 9435   2.399   5.129   7.352 -0.6866  0.9695  1.3195
   95SAPS   C36 9436   2.535   5.163   7.524 -0.8433  0.4340  0.9834
   95SAPS   H6X 9437   2.462   5.237   7.563 -1.2199  1.2581 -1.2136
   95SAPS   H6Y 9438   2.640   5.202   7.527 -0.4274 -0.6592  0.7481
   95SAPS   C37 9439   2.535   5.025   7.590 -0.3145 -0.5506 -0.3838
   95SAPS   H7X 9440   2.582   4.950   7.522 -1.6253 -0.7216 -1.1301
   95SAPS   H7Y 9441   2.436   4.979   7.609 -0.4025 -0.0630  0.3381
   95SAPS   C38 9442   2.622   5.028   7.714  0.4443 -0.2049 -0.5348
   95SAPS   H8X 9443   2.705   5.100   7.696 -0.0930  0.1973 -1.4045
   95SAPS   H8Y 9444   2.664   4.926   7.729  0.5659 -0.2308 -1.0427
   95SAPS   C39 9445   2.538   5.089   7.835 -0.2841  0.0269  0.2287
   95SAPS   H9X 9446   2.461   5.017   7.869 -1.8825  0.5807 -2.0371
   95SAPS   H9Y 9447   2.489   5.184   7.803 -0.1767  0.0697  0.1913
   95SAPS  C310 9448   2.616   5.136   7.955 -0.4487  0.5871  0.0680
   95SAPS  H10X 9449   2.692   5.202   7.909  1.1197 -1.4020 -0.2982
   95SAPS  H10Y 9450   2.678   5.051   7.993 -0.7346  0.8066  1.0274
   95SAPS  C311 9451   2.544   5.215   8.058  0.3757 -0.1002 -0.1760
   95SAPS  H11X 9452   2.498   5.301   8.006 -1.8091 -0.1157  1.6670
   95SAPS  H11Y 9453   2.618   5.255   8.131 -0.4807 -2.3229  2.0103
   95SAPS  C312 9454   2.430   5.156   8.138  0.3855 -0.0954 -0.0169
   95SAPS  H12X 9455   2.358   5.111   8.067  0.7135  1.0599 -1.0929
   95SAPS  H12Y 9456   2.371   5.232   8.192  2.4681  0.7073  1.2132
   95SAPS  C313 9457   2.465   5.045   8.239 -0.3303 -0.4330  0.0669
   95SAPS  H13X 9458   2.563   5.056   8.290  0.1933 -1.7464 -0.5958
   95SAPS  H13Y 9459   2.482   4.952   8.179 -0.3987 -2.0029  2.4332
   95SAPS  C314 9460   2.349   5.015   8.340 -0.4051 -0.3057 -0.7690
   95SAPS  H14X 9461   2.362   4.914   8.383  0.0909  0.1486  0.1511
   95SAPS  H14Y 9462   2.256   5.025   8.279 -1.4014 -0.5116  0.7050
   95SAPS  C315 9463   2.357   5.113   8.458 -0.3074  0.5579  0.8556
   95SAPS  H15X 9464   2.323   5.207   8.410 -0.2224 -0.7703 -1.8952
   95SAPS  H15Y 9465   2.459   5.136   8.497  0.4516 -0.6692 -0.3788
   95SAPS  C316 9466   2.271   5.076   8.579 -0.0178  0.4256 -0.1123
   95SAPS  H16X 9467   2.297   4.973   8.613  1.5805  1.2097  1.0948
   95SAPS  H16Y 9468   2.170   5.057   8.537  0.1278  0.1519 -0.3428
   95SAPS  C317 9469   2.253   5.182   8.691  0.2428 -0.4276  0.2813
   95SAPS  H17X 9470   2.205   5.272   8.646  2.7140  1.4035  1.1786
   95SAPS  H17Y 9471   2.353   5.219   8.723  1.4720 -3.4270  0.1118
   95SAPS  C318 9472   2.167   5.131   8.804  0.1896 -1.0014  0.3514
   95SAPS  H18X 9473   2.222   5.052   8.859  2.2171 -1.3694 -2.1554
   95SAPS  H18Y 9474   2.080   5.078   8.761 -3.2238  2.1482  2.9959
   95SAPS  H18Z 9475   2.142   5.218   8.869  1.5826  1.7127 -2.6677
   96SAPS     N 9476   3.502   0.002   6.463 -0.3698 -0.5757  0.6362
   96SAPS   HN1 9477   3.454  -0.040   6.545 -1.6635 -0.0042  0.1913
   96SAPS   HN2 9478   3.593  -0.048   6.459 -0.5040 -0.7139 -0.8211
   96SAPS   HN3 9479   3.517   0.103   6.485  1.7656 -0.9400  1.0305
   96SAPS   C12 9480   3.419  -0.015   6.343  0.0335  0.6376 -0.0503
   96SAPS  H12A 9481   3.445   0.061   6.270 -0.7486  0.2438 -0.7466
   96SAPS   C13 9482   3.433  -0.138   6.260  0.5408  0.7021  0.4588
   96SAPS  O13A 9483   3.537  -0.204   6.274  0.0056  0.2647 -0.4438
   96SAPS  O13B 9484   3.372  -0.139   6.149 -0.0850 -0.0357 -0.1357
   96SAPS   C11 9485   3.263   0.007   6.380  0.0204  0.1906 -0.0533
   96SAPS  H11A 9486   3.222  -0.049   6.467  0.3526 -2.0344 -1.3073
   96SAPS  H11B 9487   3.196  -0.009   6.293 -2.2320 -0.9446  1.8072
   96SAPS     P 9488   3.121   0.223   6.426  0.0944 -0.1270 -0.0216
   96SAPS   O13 9489   3.111   0.321   6.315 -0.3206  0.2047 -0.0579
   96SAPS   O14 9490   3.011   0.128   6.425  0.2094  0.4690 -0.5585
   96SAPS   O12 9491   3.257   0.147   6.413  0.4956  0.4199  0.0892
   96SAPS   O11 9492   3.127   0.297   6.572  0.0044 -0.0845  0.5779
   96SAPS    C1 9493   3.261   0.341   6.609  0.2760 -0.8606  0.3155
   96SAPS    HA 9494   3.331   0.344   6.523  0.4840 -1.8546  0.4352
   96SAPS    HB 9495   3.261   0.446   6.645  1.8923 -1.3525  1.8411
   96SAPS    C2 9496   3.319   0.251   6.722 -0.6693 -0.1104 -0.1503
   96SAPS    HS 9497   3.329   0.148   6.681  2.3618  0.3806 -0.7751
   96SAPS   O21 9498   3.231   0.252   6.838  0.2198  0.2354 -0.5253
   96SAPS   C21 9499   3.128   0.170   6.836 -0.1990 -0.4763 -0.5262
   96SAPS   O22 9500   3.117   0.072   6.762  0.0080  0.1444 -0.7099
   96SAPS   C22 9501   3.016   0.220   6.924 -0.0742 -0.1716  0.0264
   96SAPS   H2R 9502   3.072   0.240   7.018 -0.2356  0.3841  0.0014
   96SAPS   H2S 9503   2.973   0.313   6.882  1.4482  0.4935 -0.0629
   96SAPS    C3 9504   3.460   0.280   6.776 -0.2552 -0.3259 -0.0946
   96SAPS    HX 9505   3.449   0.382   6.819  0.2348 -0.6435  0.7977
   96SAPS    HY 9506   3.532   0.272   6.692  1.0464 -2.5155  1.1717
   96SAPS   O31 9507   3.493   0.199   6.891 -0.3553 -0.0005  0.8529
   96SAPS   C31 9508   3.532   0.075   6.865  0.3135 -0.3550 -0.4046
   96SAPS   O32 9509   3.561   0.032   6.753  0.2660  0.3260  0.1603
   96SAPS   C32 9510   3.523  -0.016   6.985  0.2287  0.2809 -0.5797
   96SAPS   H2X 9511   3.619  -0.012   7.040  0.7901 -0.3342 -1.5078
   96SAPS   H2Y 9512   3.496  -0.115   6.941  2.3329 -1.5487  2.0839
   96SAPS   C23 9513   2.907   0.111   6.935 -0.4407 -0.1372 -0.3746
   96SAPS   H3R 9514   2.898   0.061   6.837  1.6152  2.2111 -1.8092
   96SAPS   H3S 9515   2.811   0.167   6.943 -1.1194 -1.2593 -0.6311
   96SAPS   C24 9516   2.943   0.012   7.049  0.8387 -0.3834 -0.2415
   96SAPS   H4R 9517   2.967   0.075   7.138 -0.9801  3.0966 -2.1242
   96SAPS   H4S 9518   3.030  -0.046   7.012 -1.9615 -3.0058 -3.0289
   96SAPS   C25 9519   2.826  -0.074   7.081  0.1126  0.5087  0.4203
   96SAPS   H5R 9520   2.785  -0.139   7.001 -2.0360 -2.0576  3.4936
   96SAPS   C26 9521   2.766  -0.088   7.200 -1.0533 -0.1722  0.3635
   96SAPS   H6R 9522   2.684  -0.162   7.203 -0.1029 -1.6374 -5.0428
   96SAPS   C27 9523   2.801  -0.016   7.328 -1.5954 -0.5652  0.1119
   96SAPS   H7R 9524   2.707  -0.014   7.387 -1.8791  0.2487 -0.3643
   96SAPS   H7S 9525   2.831   0.087   7.298 -2.2744 -0.6994 -1.0358
   96SAPS   C28 9526   2.916  -0.082   7.397 -0.0658 -0.7540 -0.6930
   96SAPS   H8R 9527   2.994  -0.125   7.333  0.7109  0.8566 -0.8387
   96SAPS   C29 9528   2.938  -0.093   7.530  0.7230  0.1237  0.0018
   96SAPS   H9R 9529   3.035  -0.136   7.561  0.3957 -0.3877  0.3355
   96SAPS  C210 9530   2.844  -0.032   7.632  0.0669 -0.1022 -0.3230
   96SAPS  H10R 9531   2.764   0.031   7.589 -0.9956  1.3534  3.5070
   96SAPS  H10S 9532   2.895   0.039   7.701 -3.4046  2.1236  0.0955
   96SAPS  C211 9533   2.755  -0.118   7.722 -0.6064 -0.6400  0.6038
   96SAPS  H11R 9534   2.654  -0.144   7.687 -0.3194 -1.2541  0.2228
   96SAPS  C212 9535   2.800  -0.163   7.844  0.0669  0.0252  0.4065
   96SAPS  H12R 9536   2.731  -0.230   7.897 -2.4786  1.4414 -0.9850
   96SAPS  C213 9537   2.930  -0.132   7.918  0.1384 -0.2661  0.4409
   96SAPS  H13R 9538   3.017  -0.126   7.849 -0.1303  1.1673  0.2160
   96SAPS  H13S 9539   2.950  -0.215   7.990  3.5159  0.1416  0.0758
   96SAPS  C214 9540   2.934   0.002   7.989  0.3954  0.2872  0.5309
   96SAPS  H14R 9541   2.858   0.075   7.958  0.0500  0.1344  1.0228
   96SAPS  C215 9542   3.008   0.026   8.096 -1.2554 -0.0190 -0.4152
   96SAPS  H15R 9543   2.984   0.122   8.143  1.7879  0.5607  0.0953
   96SAPS  C216 9544   3.104  -0.070   8.154 -0.2431 -0.1422  0.7951
   96SAPS  H16R 9545   3.187  -0.067   8.081 -1.4352  0.1636 -0.5617
   96SAPS  H16S 9546   3.058  -0.171   8.150  0.9749 -0.6503 -0.5176
   96SAPS  C217 9547   3.142  -0.042   8.297 -0.3092  0.1595  0.2150
   96SAPS  H17R 9548   3.046  -0.026   8.351 -0.6861  1.8862 -0.9239
   96SAPS  H17S 9549   3.200   0.053   8.300 -0.1019  0.0229  0.6119
   96SAPS  C218 9550   3.222  -0.155   8.367 -0.3881  0.4598 -0.3353
   96SAPS  H18R 9551   3.315  -0.166   8.307 -1.0003  0.3571 -1.2767
   96SAPS  H18S 9552   3.160  -0.247   8.369  1.3883 -0.8328 -2.1919
   96SAPS  C219 9553   3.253  -0.118   8.513  0.0593  0.0677 -0.0031
   96SAPS  H19R 9554   3.152  -0.109   8.558 -0.9575 -1.9039 -1.8428
   96SAPS  H19S 9555   3.311  -0.023   8.514 -0.3151  0.3082  2.2404
   96SAPS  C220 9556   3.341  -0.222   8.588  0.2811 -0.0708 -0.3417
   96SAPS  H20R 9557   3.445  -0.207   8.551  0.5591 -1.3290 -0.0948
   96SAPS  H20S 9558   3.303  -0.324   8.563 -1.2322  0.7754 -1.5499
   96SAPS  H20T 9559   3.338  -0.203   8.697 -1.7004  0.1122 -0.4146
   96SAPS   C33 9560   3.406   0.023   7.076 -0.5477  0.3893 -1.0434
   96SAPS   H3X 9561   3.313  -0.003   7.022 -0.3366 -0.1720 -1.1404
   96SAPS   H3Y 9562   3.406   0.132   7.100 -0.0914 -0.1004  1.3128
   96SAPS   C34 9563   3.416  -0.059   7.210  0.5884 -0.4013  0.2020
   96SAPS   H4X 9564   3.522  -0.077   7.237  0.3243 -0.3371  1.3257
   96SAPS   H4Y 9565   3.378  -0.162   7.190 -2.3991  0.1013  2.9486
   96SAPS   C35 9566   3.353   0.015   7.323  0.4493 -0.4772  1.0071
   96SAPS   H5X 9567   3.242   0.011   7.329  0.2799  1.6788 -0.4231
   96SAPS   H5Y 9568   3.371   0.124   7.325 -0.4568 -0.3279  1.4609
   96SAPS   C36 9569   3.409  -0.046   7.454  0.1763  0.0790  0.5966
   96SAPS   H6X 9570   3.520  -0.058   7.457  0.2548  0.2537 -1.2853
   96SAPS   H6Y 9571   3.359  -0.144   7.468 -1.1796  0.7619  0.6074
   96SAPS   C37 9572   3.377   0.037   7.580 -0.0245  0.3162  0.5406
   96SAPS   H7X 9573   3.267   0.054   7.582  0.2061  1.8181  1.2750
   96SAPS   H7Y 9574   3.426   0.135   7.559 -0.5034 -0.3429 -3.9181
   96SAPS   C38 9575   3.440  -0.032   7.706  0.3265  0.3362 -0.5653
   96SAPS   H8X 9576   3.551  -0.045   7.702  0.4947  1.5566 -0.0528
   96SAPS   H8Y 9577   3.417  -0.141   7.713 -2.3478  0.9742  1.0539
   96SAPS   C39 9578   3.409   0.049   7.834  0.4889  0.3120  0.2607
   96SAPS   H9X 9579   3.299   0.046   7.847  0.1968 -2.9596 -2.3304
   96SAPS   H9Y 9580   3.440   0.155   7.819  2.5633  0.1392  3.0313
   96SAPS  C310 9581   3.468  -0.012   7.961  0.1238  0.0352  0.4914
   96SAPS  H10X 9582   3.562  -0.070   7.949 -0.6953 -1.2490  0.1136
   96SAPS  H10Y 9583   3.397  -0.089   7.997 -0.2364  0.4934  0.7606
   96SAPS  C311 9584   3.498   0.086   8.074 -0.3898 -0.1893  0.2411
   96SAPS  H11X 9585   3.410   0.152   8.091  1.4991  2.6104 -0.6252
   96SAPS  H11Y 9586   3.588   0.145   8.049 -3.0544  3.0318 -2.0948
   96SAPS  C312 9587   3.540   0.019   8.209 -1.0596  0.0423 -0.3353
   96SAPS  H12X 9588   3.616  -0.060   8.188  0.6441  1.9941 -1.7015
   96SAPS  H12Y 9589   3.455  -0.034   8.255 -0.1848  0.5755  1.9667
   96SAPS  C313 9590   3.601   0.111   8.321  0.0693 -0.5342  0.3415
   96SAPS  H13X 9591   3.534   0.200   8.320  2.2155  1.1275 -0.4824
   96SAPS  H13Y 9592   3.703   0.145   8.293  0.4551 -0.2347  2.0448
   96SAPS  C314 9593   3.620   0.026   8.455  0.2014  0.3008  1.2470
   96SAPS  H14X 9594   3.518   0.005   8.492 -0.6094  0.1520 -0.9932
   96SAPS  H14Y 9595   3.677   0.088   8.528 -0.5660  1.7507  0.6435
   96SAPS  C315 9596   3.705  -0.105   8.450  0.8379  0.0027 -0.6747
   96SAPS  H15X 9597   3.771  -0.115   8.362  1.8498 -2.8934  0.3563
   96SAPS  H15Y 9598   3.631  -0.187   8.437  1.9122 -0.8260 -1.5944
   96SAPS  C316 9599   3.779  -0.126   8.582 -0.7904 -0.0742  0.3649
   96SAPS  H16X 9600   3.712  -0.091   8.663 -0.9282  0.4112  0.0452
   96SAPS  H16Y 9601   3.868  -0.060   8.585 -2.0075  1.5361  2.2251
   96SAPS  C317 9602   3.830  -0.264   8.608 -0.5887 -0.6809 -0.2946
   96SAPS  H17X 9603   3.897  -0.281   8.520  1.5546  1.7489  0.8024
   96SAPS  H17Y 9604   3.743  -0.332   8.599 -1.5667  0.6998 -1.6795
   96SAPS  C318 9605   3.901  -0.287   8.743 -0.2583 -0.2534 -0.7610
   96SAPS  H18X 9606   3.989  -0.220   8.743 -0.7857  0.4408 -0.0524
   96SAPS  H18Y 9607   3.917  -0.397   8.745 -1.4645 -0.4694 -2.1103
   96SAPS  H18Z 9608   3.835  -0.261   8.829  0.2981 -0.0133 -0.4110
   97SAPS     N 9609   4.468   4.668   6.372 -0.9053 -0.5917 -0.0174
   97SAPS   HN1 9610   4.501   4.573   6.396  0.8553  0.0453  0.1688
   97SAPS   HN2 9611   4.548   4.735   6.363 -0.9938 -0.8990 -4.2671
   97SAPS   HN3 9612   4.403   4.702   6.446  0.4340  2.3153 -0.1076
   97SAPS   C12 9613   4.407   4.670   6.231  0.1302 -0.2717 -0.4054
   97SAPS  H12A 9614   4.398   4.773   6.198  1.5127 -0.1171 -0.3142
   97SAPS   C13 9615   4.499   4.599   6.130 -0.1825  0.3973  0.5841
   97SAPS  O13A 9616   4.603   4.535   6.173  0.6189 -0.2023  0.4843
   97SAPS  O13B 9617   4.465   4.585   6.007  0.2376  0.1193 -0.1835
   97SAPS   C11 9618   4.256   4.613   6.242 -0.3493 -0.3723 -0.1296
   97SAPS  H11A 9619   4.268   4.506   6.270 -0.4364 -0.0228  1.3227
   97SAPS  H11B 9620   4.210   4.616   6.141 -0.5983 -0.9200 -0.0349
   97SAPS     P 9621   4.037   4.624   6.379  0.1605 -0.4622 -0.5132
   97SAPS   O13 9622   3.966   4.711   6.479 -0.3172 -0.1121 -0.0868
   97SAPS   O14 9623   3.966   4.574   6.261 -0.0540  0.3347  0.4015
   97SAPS   O12 9624   4.175   4.683   6.332 -0.2274  0.0364 -0.3474
   97SAPS   O11 9625   4.092   4.492   6.451  0.0506  0.0923 -0.0313
   97SAPS    C1 9626   4.160   4.489   6.580 -0.3106 -0.2229  0.5846
   97SAPS    HA 9627   4.210   4.393   6.605  0.1106  0.1147  1.0358
   97SAPS    HB 9628   4.242   4.563   6.585 -0.8228  0.3361  0.8701
   97SAPS    C2 9629   4.060   4.506   6.699  0.1603 -0.4819 -0.4162
   97SAPS    HS 9630   4.027   4.612   6.701  2.3219  0.2083 -0.0801
   97SAPS   O21 9631   4.129   4.468   6.826  0.1518 -0.4806  0.4670
   97SAPS   C21 9632   4.224   4.559   6.873  0.6276 -0.0629  0.4140
   97SAPS   O22 9633   4.256   4.667   6.824  0.7039 -0.3734  0.1499
   97SAPS   C22 9634   4.273   4.495   7.009 -0.0068 -0.8771 -0.2886
   97SAPS   H2R 9635   4.190   4.483   7.083 -1.2720 -0.9119 -1.6758
   97SAPS   H2S 9636   4.311   4.397   6.974  2.7121  0.1820 -0.4014
   97SAPS    C3 9637   3.934   4.412   6.690 -0.1481 -0.3693 -0.4556
   97SAPS    HX 9638   3.979   4.310   6.696  2.2429  0.5157 -2.3429
   97SAPS    HY 9639   3.897   4.409   6.586 -0.8895 -1.4143 -0.1652
   97SAPS   O31 9640   3.840   4.429   6.793 -0.2545  0.1955 -0.9664
   97SAPS   C31 9641   3.755   4.529   6.780  0.4935 -0.3977 -0.3846
   97SAPS   O32 9642   3.749   4.595   6.678 -0.0510  0.0429  0.5946
   97SAPS   C32 9643   3.663   4.551   6.906 -0.3486 -0.3217  0.1400
   97SAPS   H2X 9644   3.619   4.653   6.896  0.2377  0.1997  2.4091
   97SAPS   H2Y 9645   3.741   4.554   6.986  1.6189 -0.5145 -1.7357
   97SAPS   C23 9646   4.391   4.573   7.070 -0.1349 -0.2154 -0.4511
   97SAPS   H3R 9647   4.360   4.666   7.122  0.5393 -0.1236 -0.2083
   97SAPS   H3S 9648   4.462   4.609   6.993 -1.3532 -0.4352 -1.6922
   97SAPS   C24 9649   4.479   4.478   7.164  0.2480 -1.1017  0.5224
   97SAPS   H4R 9650   4.579   4.523   7.183  0.2486 -1.1041  0.5233
   97SAPS   H4S 9651   4.501   4.384   7.107  3.3013  1.2682 -2.4597
   97SAPS   C25 9652   4.411   4.435   7.287 -0.1095  0.1588 -1.1094
   97SAPS   H5R 9653   4.309   4.395   7.275 -0.5889  0.3914  1.8181
   97SAPS   C26 9654   4.468   4.418   7.410 -0.5102 -0.1423  0.6231
   97SAPS   H6R 9655   4.408   4.390   7.498  1.7120 -1.0672  1.9027
   97SAPS   C27 9656   4.621   4.441   7.442 -0.4659 -0.2311 -0.1688
   97SAPS   H7R 9657   4.640   4.515   7.523 -0.5350 -0.9278  0.4842
   97SAPS   H7S 9658   4.677   4.492   7.360 -1.3694  1.2224  0.1054
   97SAPS   C28 9659   4.673   4.305   7.456 -0.0468  0.4365 -0.2052
   97SAPS   H8R 9660   4.651   4.239   7.370 -0.5720  1.3811 -0.7974
   97SAPS   C29 9661   4.737   4.239   7.555 -0.1617 -1.1323  0.6012
   97SAPS   H9R 9662   4.763   4.132   7.551 -1.5722 -1.4367 -0.8515
   97SAPS  C210 9663   4.764   4.307   7.687  0.1432 -0.1432 -0.4193
   97SAPS  H10R 9664   4.700   4.398   7.695 -0.9274 -0.9290  0.1045
   97SAPS  H10S 9665   4.870   4.337   7.675 -0.2172  0.6746 -1.6565
   97SAPS  C211 9666   4.727   4.222   7.804  0.0695  0.1327 -0.1850
   97SAPS  H11R 9667   4.625   4.182   7.804 -0.2815  0.9912 -2.4248
   97SAPS  C212 9668   4.805   4.173   7.910 -0.4350  0.1009 -0.1954
   97SAPS  H12R 9669   4.750   4.120   7.989 -2.1629 -0.2248 -1.5853
   97SAPS  C213 9670   4.955   4.210   7.929  0.2249  0.1259  0.1510
   97SAPS  H13R 9671   5.010   4.220   7.833 -0.2229  2.4844  0.1146
   97SAPS  H13S 9672   4.998   4.118   7.976 -2.0003  1.1574  4.4353
   97SAPS  C214 9673   4.986   4.329   8.020  0.1635  0.0807 -0.5879
   97SAPS  H14R 9674   5.016   4.424   7.975  2.3879  0.4602  1.5899
   97SAPS  C215 9675   4.969   4.336   8.155  0.0669  0.9736 -0.0761
   97SAPS  H15R 9676   4.990   4.433   8.203  0.3540  1.2268 -0.7037
   97SAPS  C216 9677   4.925   4.230   8.246  0.2431 -0.0161 -0.1712
   97SAPS  H16R 9678   4.881   4.148   8.185 -0.1284  0.6613 -0.8298
   97SAPS  H16S 9679   4.842   4.260   8.314  0.0338 -3.1779  1.0466
   97SAPS  C217 9680   5.032   4.171   8.333  0.1772 -0.4014  0.4171
   97SAPS  H17R 9681   5.106   4.126   8.263  0.1145  2.6247 -1.6980
   97SAPS  H17S 9682   4.981   4.100   8.402  2.1769 -2.2216  0.0747
   97SAPS  C218 9683   5.124   4.270   8.414  0.0441 -0.5896 -0.4871
   97SAPS  H18R 9684   5.172   4.328   8.333  0.6861  1.2528  1.1691
   97SAPS  H18S 9685   5.212   4.218   8.458 -0.1766 -0.7546 -0.2381
   97SAPS  C219 9686   5.046   4.350   8.517 -0.4478 -0.7472  0.1276
   97SAPS  H19R 9687   4.973   4.284   8.570 -0.9697 -0.8473 -0.7097
   97SAPS  H19S 9688   4.990   4.431   8.465  0.3772 -0.0235  0.3561
   97SAPS  C220 9689   5.145   4.390   8.625 -0.3069 -0.1791  0.0112
   97SAPS  H20R 9690   5.219   4.462   8.585  1.2562 -1.7337  0.0780
   97SAPS  H20S 9691   5.211   4.310   8.666 -2.4500 -1.9987  0.0419
   97SAPS  H20T 9692   5.096   4.437   8.713 -0.8049  2.4244 -1.6052
   97SAPS   C33 9693   3.560   4.442   6.928 -0.0202  0.0569  0.0515
   97SAPS   H3X 9694   3.611   4.344   6.940 -1.8650 -0.8562  0.7789
   97SAPS   H3Y 9695   3.497   4.416   6.840 -0.7572 -1.2841  0.9448
   97SAPS   C34 9696   3.466   4.471   7.046  0.2668 -0.2694  0.1414
   97SAPS   H4X 9697   3.388   4.393   7.059  0.0557  0.0852  1.0445
   97SAPS   H4Y 9698   3.418   4.567   7.017 -0.4379 -1.0699 -1.4085
   97SAPS   C35 9699   3.538   4.495   7.180 -0.0594  0.3426  0.1424
   97SAPS   H5X 9700   3.622   4.568   7.168  0.1923 -0.0187 -0.3321
   97SAPS   H5Y 9701   3.593   4.400   7.196  1.2630  0.4460 -3.2108
   97SAPS   C36 9702   3.444   4.534   7.292  0.0086 -0.2979  0.1317
   97SAPS   H6X 9703   3.349   4.476   7.283  0.7456 -1.7650  1.4886
   97SAPS   H6Y 9704   3.408   4.638   7.278 -0.6209 -0.4602  0.5314
   97SAPS   C37 9705   3.518   4.531   7.426  0.9760  0.9194  0.6073
   97SAPS   H7X 9706   3.619   4.574   7.410  1.7973  0.0829  3.2724
   97SAPS   H7Y 9707   3.547   4.428   7.453 -2.2094  0.1899  1.4699
   97SAPS   C38 9708   3.434   4.594   7.542 -1.1906  0.2056  0.0813
   97SAPS   H8X 9709   3.332   4.552   7.527 -1.6183  2.0236 -2.5316
   97SAPS   H8Y 9710   3.433   4.705   7.534  1.2738  0.2750  0.4709
   97SAPS   C39 9711   3.477   4.556   7.682  0.0327  0.2284  0.3741
   97SAPS   H9X 9712   3.571   4.614   7.691 -1.8856  3.5994 -0.3044
   97SAPS   H9Y 9713   3.493   4.446   7.691 -1.1669 -0.0284 -0.4812
   97SAPS  C310 9714   3.373   4.596   7.790 -0.6063 -0.2697  0.4038
   97SAPS  H10X 9715   3.268   4.566   7.769 -1.7059  2.5114  1.6938
   97SAPS  H10Y 9716   3.380   4.706   7.785  1.1088 -0.4450 -1.5269
   97SAPS  C311 9717   3.407   4.542   7.928  0.5411 -1.4146 -0.5121
   97SAPS  H11X 9718   3.357   4.598   8.009 -1.0008 -0.1256 -2.3073
   97SAPS  H11Y 9719   3.517   4.547   7.943  0.3145  0.4585  0.7494
   97SAPS  C312 9720   3.368   4.393   7.944  0.4181 -0.2068  0.4776
   97SAPS  H12X 9721   3.433   4.329   7.881  0.0012  2.8910 -3.2657
   97SAPS  H12Y 9722   3.261   4.394   7.913  0.6035  1.0636 -0.1642
   97SAPS  C313 9723   3.375   4.339   8.091  0.2133  0.5644 -0.0274
   97SAPS  H13X 9724   3.314   4.399   8.163 -2.9480 -1.4082 -0.9823
   97SAPS  H13Y 9725   3.481   4.334   8.123  1.0149  3.0756 -2.1599
   97SAPS  C314 9726   3.302   4.204   8.099 -0.7101 -0.3796  0.3332
   97SAPS  H14X 9727   3.331   4.125   8.028 -0.6998  0.6052 -0.7766
   97SAPS  H14Y 9728   3.192   4.219   8.090 -0.8442 -1.1343  0.7298
   97SAPS  C315 9729   3.310   4.150   8.241 -0.0357  0.5176  0.5581
   97SAPS  H15X 9730   3.272   4.216   8.321  2.1448  0.9144  1.3131
   97SAPS  H15Y 9731   3.417   4.134   8.267  0.1976  2.9707  1.1879
   97SAPS  C316 9732   3.226   4.013   8.257  0.2579 -0.8290 -0.1953
   97SAPS  H16X 9733   3.244   3.950   8.166 -1.9081 -2.5266  0.5183
   97SAPS  H16Y 9734   3.123   4.054   8.255  0.5669 -0.0669 -0.7816
   97SAPS  C317 9735   3.269   3.939   8.385 -0.1408  0.0909 -0.0370
   97SAPS  H17X 9736   3.375   3.906   8.378 -0.5860 -1.4511  0.3742
   97SAPS  H17Y 9737   3.201   3.853   8.396 -2.4099  1.5601 -1.9763
   97SAPS  C318 9738   3.257   4.023   8.519 -0.0294 -0.2415  0.4262
   97SAPS  H18X 9739   3.150   4.050   8.537 -0.2491 -1.1969  0.5658
   97SAPS  H18Y 9740   3.307   4.121   8.506  1.0889 -1.0350 -1.4154
   97SAPS  H18Z 9741   3.290   3.957   8.602  0.5987 -1.1517 -0.5407
   98SAPS     N 9742   2.169   4.620   6.220  0.2295 -0.0584  0.0019
   98SAPS   HN1 9743   2.214   4.563   6.294  2.5216  0.6844 -0.7616
   98SAPS   HN2 9744   2.080   4.567   6.207  0.2166  0.1687 -0.8921
   98SAPS   HN3 9745   2.227   4.603   6.135  0.3525 -1.9572  0.4514
   98SAPS   C12 9746   2.177   4.764   6.257  0.1793  0.0939  0.3661
   98SAPS  H12A 9747   2.167   4.760   6.364  4.3822 -1.7727  0.7509
   98SAPS   C13 9748   2.314   4.835   6.231 -0.1209  0.7592  0.0922
   98SAPS  O13A 9749   2.398   4.771   6.160 -0.2655 -0.2893  0.6186
   98SAPS  O13B 9750   2.334   4.959   6.263  0.1829  0.3601  0.2391
   98SAPS   C11 9751   2.067   4.848   6.182 -0.0174 -0.2990  0.3789
   98SAPS  H11A 9752   2.098   4.837   6.076  0.9628  0.8386  0.5414
   98SAPS  H11B 9753   2.072   4.954   6.215  0.9870  0.1396 -1.1323
   98SAPS     P 9754   1.807   4.879   6.196  0.0111 -0.0096  0.0673
   98SAPS   O13 9755   1.822   4.965   6.078  0.4338 -0.2882 -0.1546
   98SAPS   O14 9756   1.689   4.789   6.188  0.3181 -0.3153 -0.0833
   98SAPS   O12 9757   1.936   4.790   6.202  0.0516  0.7515 -0.1028
   98SAPS   O11 9758   1.815   4.972   6.329  0.6709  0.1349  0.6547
   98SAPS    C1 9759   1.743   4.933   6.447 -0.5865 -0.6116  0.6164
   98SAPS    HA 9760   1.727   5.025   6.506 -0.4775  0.7044 -1.3549
   98SAPS    HB 9761   1.651   4.874   6.427 -1.2282  1.2866 -2.2383
   98SAPS    C2 9762   1.834   4.861   6.552  0.5721  0.2370  0.4320
   98SAPS    HS 9763   1.871   4.762   6.516  0.9928  0.2205  0.9033
   98SAPS   O21 9764   1.754   4.850   6.666 -0.2107  0.0198 -0.2669
   98SAPS   C21 9765   1.712   4.730   6.694  0.2165 -0.4358  0.3701
   98SAPS   O22 9766   1.723   4.625   6.634 -0.4388  0.1219  0.1119
   98SAPS   C22 9767   1.624   4.733   6.819  0.0532 -0.0039  0.6867
   98SAPS   H2R 9768   1.558   4.821   6.807 -1.5567 -1.1096  1.1703
   98SAPS   H2S 9769   1.550   4.650   6.814 -0.7862  0.8518 -1.6973
   98SAPS    C3 9770   1.959   4.953   6.592  0.1303  0.1347  0.9383
   98SAPS    HX 9771   1.911   5.020   6.666 -2.6413 -0.6870 -0.0223
   98SAPS    HY 9772   1.989   5.014   6.504 -1.0221  1.0981  1.2133
   98SAPS   O31 9773   2.067   4.881   6.649  0.2303  0.1732  0.3731
   98SAPS   C31 9774   2.181   4.953   6.685  0.5147 -0.2899  0.0808
   98SAPS   O32 9775   2.200   5.070   6.658 -0.1917 -0.0226 -0.5503
   98SAPS   C32 9776   2.274   4.867   6.765 -0.3035  0.1170  0.3809
   98SAPS   H2X 9777   2.331   4.807   6.691 -1.2692  2.1655 -2.1171
   98SAPS   H2Y 9778   2.219   4.805   6.838 -0.4569  1.4006  1.3907
   98SAPS   C23 9779   1.713   4.747   6.945  0.3957 -0.3715 -0.6627
   98SAPS   H3R 9780   1.767   4.845   6.942 -0.1573  0.1272  2.9034
   98SAPS   H3S 9781   1.786   4.663   6.942  0.5959 -0.4843  3.6180
   98SAPS   C24 9782   1.630   4.734   7.076  0.8784 -0.5420 -1.1217
   98SAPS   H4R 9783   1.698   4.706   7.159  0.6029  1.5959 -0.1414
   98SAPS   H4S 9784   1.559   4.650   7.061  1.2608 -0.8303 -1.3084
   98SAPS   C25 9785   1.549   4.863   7.106  0.0983  1.0212 -0.0274
   98SAPS   H5R 9786   1.483   4.898   7.025 -0.3591  0.3848  0.0670
   98SAPS   C26 9787   1.565   4.943   7.219  0.6107  0.0517  0.1008
   98SAPS   H6R 9788   1.515   5.040   7.223  0.0055 -0.2656  0.2462
   98SAPS   C27 9789   1.661   4.928   7.333  0.2857 -0.2054 -0.3424
   98SAPS   H7R 9790   1.695   5.032   7.356 -0.1058 -0.2084  0.2674
   98SAPS   H7S 9791   1.752   4.874   7.297  1.0855 -0.0976  1.4500
   98SAPS   C28 9792   1.604   4.858   7.455  0.5441  0.0638 -0.3730
   98SAPS   H8R 9793   1.507   4.809   7.435  1.4586 -2.1590  0.4637
   98SAPS   C29 9794   1.648   4.854   7.581 -0.4332 -0.0280 -0.1338
   98SAPS   H9R 9795   1.591   4.794   7.653 -1.1323  0.2450 -0.4505
   98SAPS  C210 9796   1.766   4.943   7.620 -0.6060  1.2117  0.2887
   98SAPS  H10R 9797   1.823   4.987   7.535 -1.8191  1.9325 -0.1586
   98SAPS  H10S 9798   1.853   4.898   7.673  0.1543  1.8930 -0.3820
   98SAPS  C211 9799   1.694   5.055   7.702 -0.4829 -0.2124  0.4567
   98SAPS  H11R 9800   1.661   5.143   7.643  0.1630  1.5809  2.6882
   98SAPS  C212 9801   1.683   5.056   7.838  0.3622 -0.2095  0.4523
   98SAPS  H12R 9802   1.632   5.141   7.884  1.1705  0.9639 -0.7821
   98SAPS  C213 9803   1.729   4.941   7.920 -0.8574  0.6680 -0.9373
   98SAPS  H13R 9804   1.791   4.980   8.003 -1.0783  0.7435 -0.8103
   98SAPS  H13S 9805   1.797   4.869   7.869 -0.8912 -1.4608  1.9150
   98SAPS  C214 9806   1.615   4.861   7.980 -0.6218 -1.0390 -0.1789
   98SAPS  H14R 9807   1.579   4.768   7.933  1.1967 -1.5368 -0.6022
   98SAPS  C215 9808   1.554   4.878   8.100 -0.5122  0.4883  0.3363
   98SAPS  H15R 9809   1.463   4.818   8.115  0.0546 -0.3538  0.3963
   98SAPS  C216 9810   1.585   4.987   8.196 -0.6759  0.4651 -0.3616
   98SAPS  H16R 9811   1.650   5.068   8.158  0.8938 -1.3502 -1.6713
   98SAPS  H16S 9812   1.650   4.941   8.273 -0.8645  0.5137 -0.1719
   98SAPS  C217 9813   1.464   5.055   8.264 -0.3521 -0.5702  0.1928
   98SAPS  H17R 9814   1.500   5.138   8.328  0.6606  1.4285 -2.8733
   98SAPS  H17S 9815   1.396   4.990   8.325 -1.6941  2.9348  2.5816
   98SAPS  C218 9816   1.387   5.134   8.153 -0.4699  0.3873  0.0149
   98SAPS  H18R 9817   1.365   5.065   8.069 -2.5118  0.8528  0.1440
   98SAPS  H18S 9818   1.454   5.210   8.108  0.5871 -1.4668 -1.6292
   98SAPS  C219 9819   1.255   5.189   8.205 -0.5523  0.0280 -0.7041
   98SAPS  H19R 9820   1.288   5.256   8.287 -0.6514  1.8277 -2.1123
   98SAPS  H19S 9821   1.197   5.106   8.252  1.3620 -1.0344 -0.1402
   98SAPS  C220 9822   1.172   5.261   8.110 -0.2165 -0.0415  0.5642
   98SAPS  H20R 9823   1.088   5.315   8.160 -0.4382 -2.1089  2.5310
   98SAPS  H20S 9824   1.135   5.192   8.032  1.9335 -0.9033  0.2772
   98SAPS  H20T 9825   1.230   5.339   8.057  0.3826 -0.7322  0.1918
   98SAPS   C33 9826   2.382   4.954   6.836 -0.6581 -0.8925  0.0956
   98SAPS   H3X 9827   2.328   5.016   6.910 -1.6343 -1.3282 -0.2419
   98SAPS   H3Y 9828   2.435   5.023   6.767 -0.6029  0.6199  1.6221
   98SAPS   C34 9829   2.486   4.862   6.898  0.2099 -0.2938  0.3538
   98SAPS   H4X 9830   2.583   4.915   6.883  1.9584 -3.0899  1.3839
   98SAPS   H4Y 9831   2.493   4.760   6.854  0.9466 -0.5829  1.1328
   98SAPS   C35 9832   2.455   4.836   7.050 -0.6094 -0.0832 -0.4413
   98SAPS   H5X 9833   2.351   4.800   7.066  0.4068 -2.3304  1.3276
   98SAPS   H5Y 9834   2.463   4.929   7.111  0.0045 -0.7445  0.5031
   98SAPS   C36 9835   2.570   4.746   7.114 -0.3477 -0.1814 -0.0212
   98SAPS   H6X 9836   2.667   4.794   7.088 -1.0549  0.8120 -0.8671
   98SAPS   H6Y 9837   2.566   4.645   7.068 -1.2474  0.2587 -0.9152
   98SAPS   C37 9838   2.558   4.727   7.269  0.8341  0.2701  1.0746
   98SAPS   H7X 9839   2.451   4.700   7.282  0.7676  0.8142  1.6442
   98SAPS   H7Y 9840   2.580   4.827   7.312 -1.2424  1.7180 -1.0628
   98SAPS   C38 9841   2.630   4.608   7.318  0.3499  0.3411 -0.6242
   98SAPS   H8X 9842   2.740   4.614   7.306  0.2393  1.5539 -1.0407
   98SAPS   H8Y 9843   2.595   4.525   7.253 -0.1900  1.4771 -1.7913
   98SAPS   C39 9844   2.600   4.569   7.466 -0.4264  0.3938 -0.0968
   98SAPS   H9X 9845   2.648   4.471   7.484  2.3852  1.9158  0.9748
   98SAPS   H9Y 9846   2.492   4.549   7.483 -0.0203 -1.9178 -0.1015
   98SAPS  C310 9847   2.651   4.652   7.588 -0.5599 -1.0942  0.2461
   98SAPS  H10X 9848   2.605   4.753   7.587 -0.1133 -0.8871 -0.1366
   98SAPS  H10Y 9849   2.759   4.675   7.571 -0.6757 -1.0646 -0.4887
   98SAPS  C311 9850   2.624   4.579   7.715 -0.6307  0.4166 -0.6192
   98SAPS  H11X 9851   2.694   4.493   7.720  1.7363  2.3845  1.3085
   98SAPS  H11Y 9852   2.517   4.548   7.719 -0.3656 -0.5515 -0.7556
   98SAPS  C312 9853   2.669   4.662   7.836  0.0517 -0.0565  0.7364
   98SAPS  H12X 9854   2.597   4.745   7.855  0.1959  0.1608  0.3441
   98SAPS  H12Y 9855   2.774   4.694   7.821  0.0904 -0.5576 -0.1359
   98SAPS  C313 9856   2.665   4.585   7.967 -0.1448  0.5182 -1.1175
   98SAPS  H13X 9857   2.673   4.661   8.048  1.7197 -2.4897  1.5892
   98SAPS  H13Y 9858   2.760   4.529   7.977 -1.0376 -0.9863 -1.0323
   98SAPS  C314 9859   2.542   4.499   7.983 -0.2877  0.1440 -0.3612
   98SAPS  H14X 9860   2.516   4.431   7.899  1.1266 -0.4515 -0.3323
   98SAPS  H14Y 9861   2.458   4.572   7.977 -0.3236 -0.0030 -1.8429
   98SAPS  C315 9862   2.537   4.436   8.122 -0.3138  0.0948 -0.3632
   98SAPS  H15X 9863   2.596   4.497   8.194  0.5257 -0.9459 -0.1520
   98SAPS  H15Y 9864   2.587   4.337   8.127 -1.1973 -0.3251  0.2779
   98SAPS  C316 9865   2.398   4.433   8.190  0.2847 -0.2766 -0.2591
   98SAPS  H16X 9866   2.335   4.362   8.133  0.4656 -0.1337 -0.6355
   98SAPS  H16Y 9867   2.347   4.529   8.168  0.6814 -0.4645 -2.0276
   98SAPS  C317 9868   2.410   4.407   8.342  0.0522 -0.2190 -0.7429
   98SAPS  H17X 9869   2.473   4.490   8.379  0.2175 -1.2351  1.3310
   98SAPS  H17Y 9870   2.462   4.310   8.360 -1.7771 -1.0366  0.3006
   98SAPS  C318 9871   2.273   4.407   8.415  0.1496  0.1511  0.2852
   98SAPS  H18X 9872   2.259   4.512   8.449  0.5988  0.8426 -1.5549
   98SAPS  H18Y 9873   2.267   4.338   8.501 -1.2521  0.3321  0.3456
   98SAPS  H18Z 9874   2.188   4.399   8.343 -0.0941  0.7409  0.5006
   99SAPS     N 9875   1.184   2.561   6.365  0.1003  0.1820 -0.5255
   99SAPS   HN1 9876   1.221   2.592   6.272 -1.1671  1.0483 -0.7460
   99SAPS   HN2 9877   1.089   2.596   6.386 -0.3557 -1.0174 -0.5826
   99SAPS   HN3 9878   1.244   2.599   6.440 -0.1463  1.1470 -0.8090
   99SAPS   C12 9879   1.193   2.402   6.338 -0.1817 -0.9580  0.1866
   99SAPS  H12A 9880   1.222   2.352   6.429  0.0161 -2.6403 -0.7809
   99SAPS   C13 9881   1.053   2.339   6.307 -0.0718  0.5355  0.5605
   99SAPS  O13A 9882   0.954   2.422   6.298  0.6121  0.5334  0.3523
   99SAPS  O13B 9883   1.048   2.221   6.273 -0.1048  0.3136 -0.1884
   99SAPS   C11 9884   1.281   2.366   6.219  0.0270 -0.2373 -0.2681
   99SAPS  H11A 9885   1.233   2.404   6.126 -1.9185 -3.1643 -0.5390
   99SAPS  H11B 9886   1.283   2.256   6.200  2.4298 -0.4089  0.8047
   99SAPS     P 9887   1.528   2.330   6.287 -0.0330 -0.1889 -0.5144
   99SAPS   O13 9888   1.520   2.191   6.239 -0.1156  0.1635  0.4874
   99SAPS   O14 9889   1.658   2.395   6.270  0.4554 -0.3849  0.6436
   99SAPS   O12 9890   1.416   2.416   6.227  0.0737 -0.2223  0.0535
   99SAPS   O11 9891   1.493   2.329   6.435  0.2914  0.2925  0.0130
   99SAPS    C1 9892   1.507   2.438   6.521 -0.1013  0.0045 -0.3455
   99SAPS    HA 9893   1.544   2.531   6.474 -0.1800  0.3091  0.1827
   99SAPS    HB 9894   1.406   2.470   6.554  0.3558  3.5524 -2.1398
   99SAPS    C2 9895   1.588   2.394   6.642  0.3346 -0.6026 -0.5994
   99SAPS    HS 9896   1.691   2.367   6.610  0.1635 -1.3732 -0.5031
   99SAPS   O21 9897   1.526   2.288   6.709  0.3069  0.2160  0.8394
   99SAPS   C21 9898   1.551   2.169   6.663  0.4399 -0.2877 -0.5324
   99SAPS   O22 9899   1.650   2.140   6.595 -0.4551  0.2874 -0.0622
   99SAPS   C22 9900   1.446   2.073   6.709 -0.1260 -0.3541  0.0733
   99SAPS   H2R 9901   1.468   1.972   6.666 -0.5560 -0.1670 -0.5874
   99SAPS   H2S 9902   1.461   2.073   6.819  0.2154 -2.5570  0.0481
   99SAPS    C3 9903   1.592   2.509   6.736  0.4622 -0.5060 -0.0278
   99SAPS    HX 9904   1.485   2.524   6.761  0.8813  1.1437  0.8433
   99SAPS    HY 9905   1.632   2.595   6.679 -1.6750  1.2771  1.0904
   99SAPS   O31 9906   1.676   2.479   6.852 -0.3329  0.5038 -0.6135
   99SAPS   C31 9907   1.804   2.514   6.844  0.4132 -0.3425  0.5863
   99SAPS   O32 9908   1.860   2.564   6.748 -0.0155  0.4645 -0.0080
   99SAPS   C32 9909   1.881   2.459   6.963 -0.2916 -0.3579 -0.0870
   99SAPS   H2X 9910   1.978   2.422   6.924 -0.0820  0.4035 -0.2981
   99SAPS   H2Y 9911   1.826   2.369   6.997 -2.5520  0.8229 -0.5614
   99SAPS   C23 9912   1.303   2.111   6.658 -0.0232  0.1216 -0.4415
   99SAPS   H3R 9913   1.314   2.141   6.552 -2.1325 -0.5752 -0.8786
   99SAPS   H3S 9914   1.276   2.200   6.718  2.9427  1.9160 -1.6453
   99SAPS   C24 9915   1.206   2.004   6.672 -0.2791 -0.4520 -0.5348
   99SAPS   H4R 9916   1.198   1.979   6.780 -0.3320  1.5580 -0.0572
   99SAPS   H4S 9917   1.245   1.923   6.607  2.5415 -0.4936  1.1427
   99SAPS   C25 9918   1.072   2.042   6.622 -0.1443  0.1716  0.2546
   99SAPS   H5R 9919   1.055   2.038   6.514  0.9590 -1.7899  0.1291
   99SAPS   C26 9920   0.966   2.087   6.693  0.2834  0.5961 -0.2718
   99SAPS   H6R 9921   0.869   2.111   6.646  0.1932 -3.2470 -2.2437
   99SAPS   C27 9922   0.969   2.094   6.839  0.5350 -0.0685  1.0035
   99SAPS   H7R 9923   0.984   2.200   6.868  0.7024 -0.3640  1.9933
   99SAPS   H7S 9924   1.037   2.022   6.890 -0.8483 -1.5919  0.7375
   99SAPS   C28 9925   0.830   2.051   6.884 -0.0836  0.6362  0.2795
   99SAPS   H8R 9926   0.762   2.004   6.812  0.4789 -0.2857  0.3396
   99SAPS   C29 9927   0.789   2.071   7.010 -0.0931  0.0206 -0.5771
   99SAPS   H9R 9928   0.683   2.052   7.033 -0.0610  0.2162 -0.2607
   99SAPS  C210 9929   0.862   2.139   7.125 -0.5436  0.1921 -0.5381
   99SAPS  H10R 9930   0.969   2.117   7.103 -0.2928  0.0717  0.7310
   99SAPS  H10S 9931   0.845   2.093   7.225  0.0988 -1.0925 -0.9983
   99SAPS  C211 9932   0.835   2.288   7.121 -0.4288  0.3359 -0.0209
   99SAPS  H11R 9933   0.796   2.326   7.026  0.5142  2.2747  0.3338
   99SAPS  C212 9934   0.843   2.374   7.228 -0.1863 -0.4244  0.3663
   99SAPS  H12R 9935   0.823   2.481   7.209 -0.1893 -0.5681 -0.4367
   99SAPS  C213 9936   0.890   2.329   7.367  0.6041 -0.0341  0.0610
   99SAPS  H13R 9937   0.947   2.236   7.347  0.8826 -0.0139  0.7513
   99SAPS  H13S 9938   0.795   2.294   7.413 -0.5711  0.9044 -1.6119
   99SAPS  C214 9939   0.967   2.422   7.453 -0.0409 -0.0223  0.0202
   99SAPS  H14R 9940   1.039   2.486   7.400  0.7704 -0.2344  0.8610
   99SAPS  C215 9941   0.957   2.437   7.586 -0.4952  0.4431 -0.6275
   99SAPS  H15R 9942   1.032   2.508   7.625 -0.7010  0.1561  0.3038
   99SAPS  C216 9943   0.870   2.366   7.687  0.1620  0.6467  0.2180
   99SAPS  H16R 9944   0.782   2.317   7.639  0.7400 -0.5009  0.3238
   99SAPS  H16S 9945   0.820   2.429   7.764 -1.3214 -1.8302  1.3263
   99SAPS  C217 9946   0.934   2.236   7.755 -0.6744  0.7013 -0.5997
   99SAPS  H17R 9947   0.979   2.176   7.673  0.2281 -0.0484  0.4453
   99SAPS  H17S 9948   0.864   2.170   7.809  3.2430 -2.1297  1.2592
   99SAPS  C218 9949   1.035   2.287   7.859 -0.0123 -0.0714  0.2712
   99SAPS  H18R 9950   1.104   2.360   7.811  0.0636  0.0829  0.6160
   99SAPS  H18S 9951   1.097   2.201   7.891  1.0653  0.6491  0.1511
   99SAPS  C219 9952   0.967   2.359   7.980  0.4539  0.5562 -0.3297
   99SAPS  H19R 9953   0.891   2.287   8.019 -1.2697  1.4824 -1.8754
   99SAPS  H19S 9954   0.904   2.449   7.961 -1.3782 -1.0061 -1.9843
   99SAPS  C220 9955   1.066   2.374   8.103 -0.1523 -0.0847  0.6874
   99SAPS  H20R 9956   1.015   2.412   8.194 -1.1902 -0.7740  0.3954
   99SAPS  H20S 9957   1.151   2.436   8.067  0.2270 -0.6949  0.5188
   99SAPS  H20T 9958   1.106   2.276   8.136  0.3181 -0.4606 -0.9262
   99SAPS   C33 9959   1.903   2.562   7.075 -0.1267  0.0671  0.4286
   99SAPS   H3X 9960   1.808   2.598   7.118 -0.3961  0.8165 -0.7622
   99SAPS   H3Y 9961   1.963   2.645   7.032  0.0868 -0.5150 -0.4118
   99SAPS   C34 9962   2.001   2.497   7.176  0.2017 -0.7381  0.2547
   99SAPS   H4X 9963   2.080   2.442   7.121  1.7327  1.8241 -0.1773
   99SAPS   H4Y 9964   1.945   2.426   7.239 -2.1266 -1.4880 -2.5262
   99SAPS   C35 9965   2.086   2.597   7.256  0.0380 -0.2714 -1.2486
   99SAPS   H5X 9966   2.029   2.686   7.291 -0.0779 -1.5619  2.0379
   99SAPS   H5Y 9967   2.171   2.632   7.193  1.3129 -0.7700  0.1639
   99SAPS   C36 9968   2.139   2.543   7.392 -0.1594  0.3193 -0.2116
   99SAPS   H6X 9969   2.050   2.491   7.435 -0.2583  0.3717 -0.3543
   99SAPS   H6Y 9970   2.170   2.630   7.454  0.7748  0.4849 -0.9088
   99SAPS   C37 9971   2.257   2.443   7.381 -0.4189  0.1492  0.1313
   99SAPS   H7X 9972   2.238   2.378   7.293 -1.1076 -1.3751  1.3793
   99SAPS   H7Y 9973   2.256   2.384   7.475 -0.1129  1.9944  1.3330
   99SAPS   C38 9974   2.392   2.508   7.365 -0.5981 -0.6053 -0.1328
   99SAPS   H8X 9975   2.397   2.579   7.279 -1.6805 -1.5259 -0.9642
   99SAPS   H8Y 9976   2.465   2.430   7.334 -0.3297 -0.4941  0.2220
   99SAPS   C39 9977   2.452   2.591   7.479 -0.7347 -0.0394  0.0185
   99SAPS   H9X 9978   2.402   2.691   7.482 -0.6262  0.0019  0.5029
   99SAPS   H9Y 9979   2.561   2.599   7.457 -0.1157 -1.1263  2.5170
   99SAPS  C310 9980   2.441   2.512   7.614  0.3322  0.4224 -0.3696
   99SAPS  H10X 9981   2.443   2.401   7.600 -2.0615  0.4638 -1.3324
   99SAPS  H10Y 9982   2.344   2.543   7.657 -0.4320 -0.8921 -1.0815
   99SAPS  C311 9983   2.544   2.566   7.719 -0.4516  0.1931  0.9401
   99SAPS  H11X 9984   2.565   2.672   7.697 -0.2454  0.3294  1.7882
   99SAPS  H11Y 9985   2.638   2.514   7.691 -0.0287  1.2249  0.4438
   99SAPS  C312 9986   2.503   2.545   7.858  0.1750  0.8086 -0.6968
   99SAPS  H12X 9987   2.418   2.473   7.864  2.8524 -2.3306  1.8990
   99SAPS  H12Y 9988   2.476   2.634   7.919 -3.1146 -1.0425  0.7076
   99SAPS  C313 9989   2.617   2.477   7.934  0.4613  0.2718  0.6090
   99SAPS  H13X 9990   2.692   2.557   7.952  0.7262  0.0998  0.2743
   99SAPS  H13Y 9991   2.659   2.396   7.870  1.1933  2.0370 -1.1998
   99SAPS  C314 9992   2.565   2.405   8.056 -1.0325 -0.4958 -0.4916
   99SAPS  H14X 9993   2.496   2.324   8.024  0.5507 -2.2468  0.4548
   99SAPS  H14Y 9994   2.507   2.477   8.117  2.4583  1.3053  0.8409
   99SAPS  C315 9995   2.673   2.338   8.147  0.0965 -0.5090  0.4147
   99SAPS  H15X 9996   2.729   2.424   8.190 -4.3432  2.1055  1.3699
   99SAPS  H15Y 9997   2.754   2.294   8.085 -1.7031 -3.4241  0.0381
   99SAPS  C316 9998   2.617   2.235   8.251 -0.3917  0.4641  0.8794
   99SAPS  H16X 9999   2.549   2.155   8.215 -1.0279  1.5627 -0.4007
   99SAPS  H16Y10000   2.552   2.287   8.325 -1.3329 -0.6843  0.8636
   99SAPS  C31710001   2.715   2.172   8.343  0.4689  0.4755 -0.0416
   99SAPS  H17X10002   2.795   2.123   8.284  1.1492  0.9038  0.5048
   99SAPS  H17Y10003   2.665   2.090   8.399 -1.8118  1.5065 -0.5060
   99SAPS  C31810004   2.768   2.274   8.441 -0.3193  0.2133  0.1489
   99SAPS  H18X10005   2.834   2.348   8.392  0.4836 -0.9349 -0.5346
   99SAPS  H18Y10006   2.811   2.221   8.528 -0.2481 -0.4996 -0.3144
   99SAPS  H18Z10007   2.686   2.338   8.480  0.4606 -0.7202  3.4272
  100SAPS     N10008   4.540   4.301   6.047 -0.1148 -0.1045 -0.3041
  100SAPS   HN110009   4.574   4.330   5.953  2.6902 -1.7693  0.1519
  100SAPS   HN210010   4.550   4.383   6.111  1.4287 -0.1323 -0.4958
  100SAPS   HN310011   4.609   4.233   6.084 -1.1818 -1.7318 -1.2704
  100SAPS   C1210012   4.405   4.235   6.051 -0.2338 -0.1889  0.4705
  100SAPS  H12A10013   4.339   4.319   6.033 -1.1958 -0.1057  4.1385
  100SAPS   C1310014   4.384   4.113   5.966 -0.5817  0.0468  0.2591
  100SAPS  O13A10015   4.465   4.090   5.871  0.5009  0.2387 -0.3392
  100SAPS  O13B10016   4.266   4.073   5.960  0.6119 -0.0552  0.0167
  100SAPS   C1110017   4.366   4.194   6.199 -0.8179 -0.1754 -0.4577
  100SAPS  H11A10018   4.416   4.100   6.230 -1.5896  0.0111  1.3959
  100SAPS  H11B10019   4.260   4.165   6.215 -0.9271  1.3176  1.7356
  100SAPS     P10020   4.485   4.285   6.406  0.3978 -0.1842  0.2112
  100SAPS   O1310021   4.609   4.209   6.380  0.4217  0.5305  0.5002
  100SAPS   O1410022   4.499   4.420   6.464 -0.1678  0.0339 -0.4548
  100SAPS   O1210023   4.402   4.306   6.280  0.2139 -0.4257  0.3191
  100SAPS   O1110024   4.368   4.208   6.497  0.3318 -0.5591  0.1636
  100SAPS    C110025   4.405   4.076   6.543  0.4514  0.1133 -0.3683
  100SAPS    HA10026   4.436   4.011   6.459 -0.9130 -1.1114  0.0503
  100SAPS    HB10027   4.498   4.086   6.603 -0.6132  0.2448  1.2837
  100SAPS    C210028   4.299   4.002   6.617 -1.5865 -0.4815 -0.5951
  100SAPS    HS10029   4.218   3.970   6.548 -0.6482 -0.3405 -1.7932
  100SAPS   O2110030   4.245   4.094   6.709  0.1979 -0.1342 -0.6434
  100SAPS   C2110031   4.152   4.044   6.794 -0.2799 -0.5667  0.0471
  100SAPS   O2210032   4.101   3.936   6.785 -0.5924  0.0695 -0.1877
  100SAPS   C2210033   4.146   4.127   6.916  0.0666 -0.5912 -0.5670
  100SAPS   H2R10034   4.227   4.097   6.986 -2.3848 -3.2685  1.2250
  100SAPS   H2S10035   4.160   4.235   6.892  0.8850 -0.4943  0.3104
  100SAPS    C310036   4.352   3.865   6.689  0.0536 -0.0201 -0.1941
  100SAPS    HX10037   4.419   3.825   6.610  0.6596  0.0150  0.3052
  100SAPS    HY10038   4.268   3.796   6.709  0.4248 -0.5359 -0.4130
  100SAPS   O3110039   4.420   3.901   6.814  0.0562 -0.0575  0.1412
  100SAPS   C3110040   4.548   3.875   6.812  0.0244 -0.2856 -0.5657
  100SAPS   O3210041   4.611   3.823   6.718 -0.3845  0.3661  0.8022
  100SAPS   C3210042   4.609   3.902   6.954  0.4298  0.5026  1.1193
  100SAPS   H2X10043   4.526   3.922   7.024  0.9142 -1.2927  2.2453
  100SAPS   H2Y10044   4.662   3.999   6.949  1.2451  0.0802  1.3564
  100SAPS   C2310045   4.002   4.124   6.992  0.0383 -0.1145  0.4836
  100SAPS   H3R10046   3.986   4.022   7.035 -1.2759  0.9266  2.5742
  100SAPS   H3S10047   3.922   4.161   6.924  1.9614  1.4544 -0.9723
  100SAPS   C2410048   3.985   4.224   7.116  0.2409  0.4044  0.0914
  100SAPS   H4R10049   3.881   4.223   7.155  0.5417  1.2340  0.9492
  100SAPS   H4S10050   3.993   4.324   7.067  1.9404  0.4274  0.3872
  100SAPS   C2510051   4.089   4.229   7.226  0.3036 -0.5866 -0.4953
  100SAPS   H5R10052   4.195   4.241   7.196  0.0832 -1.4668 -1.6644
  100SAPS   C2610053   4.056   4.225   7.353 -0.0928 -0.3843 -0.8699
  100SAPS   H6R10054   4.131   4.223   7.433 -1.3117 -4.1890  0.3115
  100SAPS   C2710055   3.916   4.212   7.410 -0.6108 -0.5975 -0.3472
  100SAPS   H7R10056   3.907   4.116   7.465 -1.3675 -1.1540 -1.4147
  100SAPS   H7S10057   3.832   4.200   7.338 -1.6035 -0.8536  0.8438
  100SAPS   C2810058   3.881   4.346   7.472  0.5482  0.1129 -0.5335
  100SAPS   H8R10059   3.888   4.432   7.404 -0.8688 -0.3734 -1.3057
  100SAPS   C2910060   3.844   4.356   7.601 -0.1282  0.0353 -0.5318
  100SAPS   H9R10061   3.805   4.451   7.639 -1.8131 -0.3284 -1.3049
  100SAPS  C21010062   3.831   4.236   7.692  0.3838  0.5882  0.7465
  100SAPS  H10R10063   3.931   4.206   7.729  0.9709  2.1741  0.4942
  100SAPS  H10S10064   3.770   4.154   7.649  0.9678  1.1513 -1.2193
  100SAPS  C21110065   3.745   4.260   7.812  1.0482 -0.2466 -0.2518
  100SAPS  H11R10066   3.636   4.261   7.796  0.8891 -0.1316  0.8068
  100SAPS  C21210067   3.777   4.282   7.943  0.5159  0.2976  0.2682
  100SAPS  H12R10068   3.701   4.302   8.020  0.3198 -2.7120  0.8893
  100SAPS  C21310069   3.914   4.285   7.996  0.4765 -0.0631  1.0530
  100SAPS  H13R10070   3.974   4.361   7.941  2.1884 -2.3263 -0.3252
  100SAPS  H13S10071   3.967   4.189   7.974  1.0889  0.3493  0.7239
  100SAPS  C21410072   3.929   4.301   8.147 -0.2079  0.2233  0.3145
  100SAPS  H14R10073   3.919   4.216   8.216  0.8829 -0.0429  0.1566
  100SAPS  C21510074   3.951   4.413   8.204 -0.6269 -1.1825  0.9676
  100SAPS  H15R10075   3.961   4.411   8.314  2.1034 -1.2750  0.7560
  100SAPS  C21610076   3.976   4.555   8.139  0.0248  0.5117  0.6772
  100SAPS  H16R10077   3.894   4.621   8.174 -2.0388 -1.9545  0.6544
  100SAPS  H16S10078   3.959   4.556   8.029 -0.8880 -0.6471  0.7949
  100SAPS  C21710079   4.115   4.618   8.175  1.3155 -0.4566  0.0724
  100SAPS  H17R10080   4.195   4.558   8.127  1.6337  0.0985 -0.0947
  100SAPS  H17S10081   4.125   4.610   8.286  1.5542  2.5440  0.3020
  100SAPS  C21810082   4.128   4.767   8.140 -0.0600  0.1352 -0.8024
  100SAPS  H18R10083   4.042   4.816   8.191 -0.6514  0.0442 -1.7080
  100SAPS  H18S10084   4.108   4.784   8.032 -1.8718  1.4531 -0.2869
  100SAPS  C21910085   4.257   4.828   8.190 -0.3258 -0.0850 -0.4264
  100SAPS  H19R10086   4.339   4.764   8.150 -0.6545  0.1716 -1.5223
  100SAPS  H19S10087   4.260   4.807   8.299  0.2252 -1.4045 -0.6874
  100SAPS  C22010088   4.263   4.972   8.168 -0.1843  0.0566  0.3493
  100SAPS  H20R10089   4.258   4.982   8.057 -0.5585  0.1278  0.3733
  100SAPS  H20S10090   4.361   5.015   8.200 -0.1581 -0.6831  1.2508
  100SAPS  H20T10091   4.181   5.019   8.225 -0.6520  0.1321 -0.3793
  100SAPS   C3310092   4.690   3.783   7.021 -0.5678  0.1549  0.2473
  100SAPS   H3X10093   4.787   3.790   6.969 -0.7937 -1.0834 -0.3698
  100SAPS   H3Y10094   4.642   3.684   7.000 -0.9493  0.7564 -1.9004
  100SAPS   C3410095   4.693   3.803   7.171 -0.1024  0.4862 -0.2006
  100SAPS   H4X10096   4.611   3.745   7.218  0.2024  0.1409 -0.0939
  100SAPS   H4Y10097   4.681   3.905   7.214 -0.5095 -0.3423  1.7340
  100SAPS   C3510098   4.829   3.745   7.233  0.5775 -0.5060 -0.2600
  100SAPS   H5X10099   4.908   3.820   7.212  0.9644 -0.9616 -0.4379
  100SAPS   H5Y10100   4.862   3.653   7.180 -1.7706 -0.0856 -2.5262
  100SAPS   C3610101   4.811   3.723   7.390 -0.2673  0.8786 -0.8528
  100SAPS   H6X10102   4.908   3.686   7.432  0.2724  0.9526 -2.0283
  100SAPS   H6Y10103   4.722   3.659   7.408  1.2343 -0.9631  0.2984
  100SAPS   C3710104   4.791   3.852   7.468  0.1972 -1.0879 -0.2101
  100SAPS   H7X10105   4.691   3.889   7.437  0.0314 -0.6374  0.8271
  100SAPS   H7Y10106   4.868   3.929   7.448 -0.6585  0.2079  1.3611
  100SAPS   C3810107   4.788   3.837   7.617 -0.5063  0.0040  0.0377
  100SAPS   H8X10108   4.785   3.932   7.675  0.9905  0.3157 -0.3730
  100SAPS   H8Y10109   4.885   3.792   7.649 -1.5429 -1.0663  1.8053
  100SAPS   C3910110   4.669   3.758   7.676  0.3474  0.1282  0.7030
  100SAPS   H9X10111   4.671   3.750   7.787 -4.4827  1.6264  1.0358
  100SAPS   H9Y10112   4.681   3.657   7.630 -0.9906 -0.0809  0.7640
  100SAPS  C31010113   4.533   3.815   7.630 -0.3700  0.0471 -0.4536
  100SAPS  H10X10114   4.529   3.797   7.521  3.2723 -2.0895 -0.3068
  100SAPS  H10Y10115   4.523   3.925   7.635  0.9983  0.1630 -0.1499
  100SAPS  C31110116   4.415   3.753   7.702 -0.4818 -0.2309  0.7991
  100SAPS  H11X10117   4.434   3.644   7.698  1.0209 -0.0336  1.8515
  100SAPS  H11Y10118   4.326   3.768   7.637  1.0121 -1.0655 -1.4945
  100SAPS  C31210119   4.387   3.819   7.841 -0.6786  0.0274  1.0200
  100SAPS  H12X10120   4.484   3.801   7.892  0.1152  1.1344 -0.0527
  100SAPS  H12Y10121   4.313   3.756   7.895  0.4862  0.2940  2.9726
  100SAPS  C31310122   4.350   3.972   7.845  0.1139  0.5675 -0.6146
  100SAPS  H13X10123   4.271   3.999   7.772 -0.0289 -1.3520 -1.2062
  100SAPS  H13Y10124   4.441   4.025   7.810 -0.0301  0.7454 -0.7186
  100SAPS  C31410125   4.320   4.015   7.990  0.1690  0.1976  0.1842
  100SAPS  H14X10126   4.399   3.987   8.063  1.2436  1.2078 -0.5578
  100SAPS  H14Y10127   4.225   3.974   8.030  1.3929 -1.3434  1.5822
  100SAPS  C31510128   4.317   4.170   7.986 -0.5815 -0.3986 -0.2519
  100SAPS  H15X10129   4.214   4.196   7.953 -0.0442  0.4505 -1.2537
  100SAPS  H15Y10130   4.375   4.203   7.898  0.7766 -0.5662  0.5628
  100SAPS  C31610131   4.355   4.232   8.121 -0.2446 -0.1937  0.3264
  100SAPS  H16X10132   4.303   4.171   8.198  0.2792 -0.5309  0.4126
  100SAPS  H16Y10133   4.314   4.336   8.125  3.4623  1.3517 -0.0318
  100SAPS  C31710134   4.507   4.244   8.143 -0.3015  0.2518 -0.2058
  100SAPS  H17X10135   4.552   4.317   8.073  1.3881 -0.0908  0.5095
  100SAPS  H17Y10136   4.551   4.143   8.134 -2.1490 -0.5623 -0.3448
  100SAPS  C31810137   4.541   4.299   8.284  0.3922  0.1294 -0.1193
  100SAPS  H18X10138   4.510   4.230   8.365 -1.2372 -0.1178 -0.9214
  100SAPS  H18Y10139   4.481   4.393   8.291 -0.7924 -0.5489 -1.0213
  100SAPS  H18Z10140   4.647   4.331   8.293  0.2743  0.1103  1.4765
  101OSM      N10141   3.465   4.995  10.965 -0.1275 -0.1287  0.1674
  101OSM    C1510142   3.493   4.975  11.108 -0.4537 -0.0649  0.1733
  101OSM   H15A10143   3.540   5.061  11.154  1.0682 -0.6054 -0.3645
  101OSM   H15B10144   3.553   4.891  11.140  1.5048  1.8713  1.7042
  101OSM   H15C10145   3.399   4.946  11.153 -1.3708 -0.9074 -2.2313
  101OSM    C1410146   3.378   5.116  10.948 -0.1133 -0.0938  0.3093
  101OSM   H14A10147   3.432   5.203  10.980 -1.3705  0.7137  0.2789
  101OSM   H14B10148   3.292   5.110  11.013  0.6836 -0.4749  1.3251
  101OSM   H14C10149   3.346   5.129  10.845  1.1625 -2.0667 -0.3735
  101OSM    C1310150   3.589   5.022  10.887 -0.2374 -0.0748  0.8960
  101OSM   H13A10151   3.566   5.032  10.782  3.3821  1.5201  0.1521
  101OSM   H13B10152   3.666   4.946  10.896  0.5308  0.6372  0.3767
  101OSM   H13C10153   3.631   5.113  10.928 -0.3011  0.1316  0.5027
  101OSM    C1210154   3.390   4.874  10.908  0.0195 -0.0840 -0.5629
  101OSM   H12A10155   3.453   4.787  10.909 -0.4761 -0.4295  1.0623
  101OSM   H12B10156   3.389   4.889  10.801  0.8137  0.1317 -0.5397
  101OSM    C1110157   3.252   4.822  10.959  0.2781  0.0682 -0.1922
  101OSM   H11A10158   3.264   4.811  11.068  1.1261  0.6046 -0.2338
  101OSM   H11B10159   3.230   4.718  10.925 -0.9911  0.1515  0.3589
  101OSM      P10160   3.099   4.924  10.779  0.4291  0.2276 -0.6629
  101OSM    O1310161   2.950   4.943  10.782  0.3409 -0.3456  0.1825
  101OSM    O1410162   3.177   5.035  10.716  0.0213  0.0119 -0.0070
  101OSM    O1110163   3.134   4.788  10.700 -0.2714 -0.0326  0.1556
  101OSM    O1210164   3.147   4.907  10.931  0.3444 -0.1498  0.1640
  101OSM    C1S10165   3.091   4.758  10.572  0.3625 -0.3522  0.3245
  101OSM    H1S10166   3.005   4.824  10.548  0.0314 -0.6692  0.6333
  101OSM    H1T10167   3.070   4.650  10.563 -0.8199 -0.2127  1.3214
  101OSM     NF10168   3.141   4.805  10.325  0.7453  0.1007 -0.4347
  101OSM    HNF10169   3.187   4.736  10.269 -0.3222 -2.0546  1.2780
  101OSM    C2S10170   3.191   4.804  10.461 -0.1422 -0.8158  0.2899
  101OSM    H2S10171   3.215   4.911  10.480 -0.7548 -0.7382  0.6257
  101OSM    C3S10172   3.328   4.726  10.471  0.1057  0.0230  0.4945
  101OSM    H3S10173   3.299   4.621  10.449 -0.0498 -0.3611  2.4520
  101OSM     O310174   3.391   4.740  10.606 -0.1337  0.0346  0.6699
  101OSM    HO310175   3.322   4.766  10.667  0.0428 -1.4379  1.5176
  101OSM    C4S10176   3.423   4.771  10.363  1.0199 -0.0270  0.4726
  101OSM    H4S10177   3.453   4.685  10.301 -1.5176  0.8432 -2.0677
  101OSM    C5S10178   3.479   4.896  10.351  0.4141 -0.1845 -0.2625
  101OSM    H5S10179   3.459   4.960  10.438 -1.1649 -2.3189  1.0186
  101OSM    C6S10180   3.583   4.954  10.257 -0.2132 -0.1608 -0.0568
  101OSM    H6S10181   3.676   4.982  10.311 -0.5506  1.2766 -0.1982
  101OSM    H6T10182   3.540   5.048  10.217 -0.8782 -0.6796 -0.5865
  101OSM    C7S10183   3.616   4.843  10.148 -0.0150  0.4189  0.3537
  101OSM    H7S10184   3.525   4.800  10.101  1.0506 -0.2881 -1.1407
  101OSM    H7T10185   3.684   4.768  10.192 -0.3174  0.0261  0.1513
  101OSM    C8S10186   3.697   4.900  10.029 -0.2695  0.5884  0.5617
  101OSM    H8S10187   3.794   4.935  10.072  0.5354 -1.6719  0.6536
  101OSM    H8T10188   3.638   4.983   9.985  0.3278 -0.5134 -2.4684
  101OSM    C9S10189   3.738   4.800   9.913  0.5427 -0.6535  0.2731
  101OSM    H9S10190   3.647   4.739   9.899  0.6233 -0.5861 -0.5194
  101OSM    H9T10191   3.824   4.743   9.956  0.9745  1.0963  1.7939
  101OSM   C10S10192   3.785   4.868   9.783 -1.3138 -0.1397 -0.1821
  101OSM   H10S10193   3.877   4.926   9.803 -0.5904 -1.5662  0.7536
  101OSM   H10T10194   3.704   4.940   9.762 -0.2680  0.4208 -2.4540
  101OSM   C11S10195   3.797   4.779   9.663 -0.2724  0.1235  0.1275
  101OSM   H11S10196   3.710   4.710   9.652  0.3648 -0.7423  0.4949
  101OSM   H11T10197   3.892   4.720   9.664  1.8008  3.3263 -0.9650
  101OSM   C12S10198   3.783   4.858   9.536 -0.8260 -0.7117 -0.4195
  101OSM   H12S10199   3.844   4.950   9.547  1.7630 -2.3400 -0.7119
  101OSM   H12T10200   3.676   4.879   9.517 -0.8100  1.2919  1.4182
  101OSM   C13S10201   3.835   4.785   9.412 -0.4752  0.7633 -0.7402
  101OSM   H13S10202   3.771   4.701   9.377  1.8112 -0.9536 -0.8575
  101OSM   H13T10203   3.936   4.751   9.444 -0.7580  0.8198  0.2366
  101OSM   C14S10204   3.845   4.884   9.296 -1.0364  0.1355  0.0652
  101OSM   H14S10205   3.915   4.969   9.309 -0.7741  0.2783 -2.2048
  101OSM   H14T10206   3.749   4.937   9.280 -1.7281 -0.6413  1.4691
  101OSM   C15S10207   3.882   4.799   9.173 -0.5857 -0.2466  0.1499
  101OSM   H15S10208   3.885   4.689   9.191  4.5909 -0.6798 -2.2859
  101OSM   H15T10209   3.984   4.841   9.163 -1.6088  1.9715 -1.2236
  101OSM   C16S10210   3.796   4.832   9.051 -0.2895 -0.3634  0.1224
  101OSM   H16S10211   3.799   4.932   9.002 -2.2709 -0.2929  0.0974
  101OSM   H16T10212   3.690   4.829   9.086 -0.9166  0.9931 -1.5718
  101OSM   C17S10213   3.818   4.719   8.952 -0.4946  0.0265 -0.2132
  101OSM   H17S10214   3.750   4.727   8.864  0.7937 -1.5562 -1.3864
  101OSM   H17T10215   3.783   4.624   8.998 -0.6258 -2.3229 -4.8465
  101OSM   C18S10216   3.958   4.687   8.905  0.7033  0.6171  0.4443
  101OSM   H18S10217   3.953   4.598   8.838  0.6190  1.7069 -1.0101
  101OSM   H18T10218   4.015   4.640   8.989 -0.6802 -2.8493 -0.4588
  101OSM   H18U10219   4.016   4.770   8.858 -0.0668  1.2653  0.6356
  101OSM    C1F10220   3.037   4.879  10.278 -0.2699  0.0444  0.0578
  101OSM     OF10221   2.988   4.968  10.348 -0.3913  0.3102  0.0649
  101OSM    C2F10222   2.993   4.867  10.139 -0.2954  0.3242  0.1656
  101OSM    H2F10223   2.964   4.762  10.114  0.3367  0.2269 -0.1871
  101OSM    H2G10224   3.080   4.893  10.075  0.7190 -0.6875  1.1064
  101OSM    C3F10225   2.883   4.965  10.105  0.9487  0.1401  0.2660
  101OSM    H3F10226   2.919   5.070  10.109 -2.9911  1.6021 -0.3480
  101OSM    H3G10227   2.798   4.965  10.177  0.8875  0.3548  0.1921
  101OSM    C4F10228   2.805   4.933   9.976 -0.6148 -0.2770  0.1880
  101OSM    H4F10229   2.720   5.003   9.964 -1.1378 -0.9364  0.0162
  101OSM    H4G10230   2.776   4.826   9.981  0.8830 -0.8624 -2.6825
  101OSM    C5F10231   2.888   4.928   9.845 -0.0894 -0.6535  0.6248
  101OSM    H5F10232   2.831   4.887   9.759  1.7083 -2.8250  0.4263
  101OSM    H5G10233   2.966   4.850   9.861  0.3254  0.2308  3.0461
  101OSM    C6F10234   2.946   5.056   9.793 -0.6500 -0.8525  0.4395
  101OSM    H6F10235   2.991   5.104   9.883 -2.0917  1.3876  0.0135
  101OSM    H6G10236   2.864   5.122   9.758 -0.7784 -1.4814 -0.4562
  101OSM    C7F10237   3.058   5.044   9.694  0.3337  0.0765  0.0663
  101OSM    H7F10238   3.130   4.978   9.745 -0.1094 -1.1026 -0.8141
  101OSM    H7G10239   3.102   5.144   9.673  0.7797  0.1453  1.2728
  101OSM    C8F10240   3.036   4.980   9.559  0.3018 -0.0146  0.3155
  101OSM    H8F10241   3.027   4.872   9.583  2.5786 -0.2828  0.0493
  101OSM    H8G10242   3.129   4.971   9.499 -0.5075 -4.6121 -0.3955
  101OSM    C9F10243   2.909   5.027   9.486 -0.1497  0.8425  0.2578
  101OSM    H9F10244   2.811   5.010   9.534  0.0224 -2.6279 -0.5420
  101OSM   C10F10245   2.898   5.090   9.368  0.1631 -0.7391 -0.6647
  101OSM   H10F10246   2.795   5.116   9.340 -0.6655 -2.6574  0.5042
  101OSM   C11F10247   2.999   5.128   9.269 -0.4272  0.4530 -0.3142
  101OSM   H11F10248   3.101   5.118   9.313 -0.5594  1.6363  0.2803
  101OSM   H11G10249   2.998   5.237   9.246 -0.8519  0.5993  0.3761
  101OSM   C12F10250   2.984   5.059   9.133 -0.1919  0.1300 -0.0551
  101OSM   H12F10251   3.062   5.100   9.065 -1.2556  0.9701 -0.7935
  101OSM   H12G10252   2.884   5.087   9.092 -0.4555 -1.8549 -0.7913
  101OSM   C13F10253   3.007   4.904   9.139  0.4425  0.4120 -0.2352
  101OSM   H13F10254   2.910   4.855   9.162  1.8400 -2.8103 -0.8959
  101OSM   H13G10255   3.077   4.880   9.222  0.3971  0.9720 -0.0341
  101OSM   C14F10256   3.067   4.847   9.014 -0.5807 -0.2145 -0.3043
  101OSM   H14F10257   3.081   4.737   9.011  0.8083 -0.0643  0.0460
  101OSM   H14G10258   3.168   4.895   9.007 -0.5858 -0.2035 -0.2971
  101OSM   C15F10259   3.005   4.869   8.872  0.5463 -0.3090  0.3034
  101OSM   H15F10260   3.060   4.808   8.797 -0.0662 -0.5216  0.0264
  101OSM   H15G10261   3.019   4.971   8.830 -0.2634  0.1398  1.1044
  101OSM   C16F10262   2.855   4.837   8.862 -0.7659 -0.1021  0.2061
  101OSM   H16F10263   2.792   4.898   8.929  3.2549 -0.0107  4.0941
  101OSM   H16G10264   2.837   4.728   8.877 -1.3336  0.0530  0.6850
  101OSM   C17F10265   2.799   4.863   8.718 -0.2018 -0.2844 -1.1264
  101OSM   H17F10266   2.855   4.806   8.640  1.2497 -2.1032  1.1726
  101OSM   H17G10267   2.806   4.972   8.698 -0.4725  0.2305  1.4998
  101OSM   C18F10268   2.650   4.826   8.704  0.8216 -0.5768  0.2896
  101OSM   H18F10269   2.632   4.718   8.685  0.9180 -0.1357 -2.5765
  101OSM   H18G10270   2.612   4.877   8.613  1.6428  1.9723  1.3151
  101OSM   H18H10271   2.585   4.873   8.782  0.2491 -1.2840  0.2381
  102OSM      N10272   2.386   3.717  10.795  0.4520  0.4243  0.5920
  102OSM    C1510273   2.241   3.694  10.793 -0.1867 -0.9091 -0.5504
  102OSM   H15A10274   2.200   3.658  10.700 -1.0347  0.7437 -0.8192
  102OSM   H15B10275   2.194   3.791  10.800  2.2568  0.3500 -0.8649
  102OSM   H15C10276   2.214   3.641  10.884  0.7443  0.6367  0.6552
  102OSM    C1410277   2.434   3.812  10.898 -0.6888  0.1369 -0.3258
  102OSM   H14A10278   2.541   3.819  10.901 -0.3018 -4.1892  0.0548
  102OSM   H14B10279   2.404   3.781  10.997  0.6675 -1.2048 -0.3195
  102OSM   H14C10280   2.392   3.909  10.877  0.8875  1.0238  0.5324
  102OSM    C1310281   2.454   3.587  10.823 -0.5913  0.9118  0.3077
  102OSM   H13A10282   2.450   3.544  10.922  0.0713 -1.9673 -0.8643
  102OSM   H13B10283   2.558   3.583  10.796 -1.0486 -0.0428 -1.4237
  102OSM   H13C10284   2.403   3.506  10.773  0.3322  1.8756 -2.3048
  102OSM    C1210285   2.425   3.768  10.661 -0.1457  0.2804 -0.2365
  102OSM   H12A10286   2.376   3.707  10.586 -0.0243 -0.9149  0.6387
  102OSM   H12B10287   2.533   3.764  10.659 -0.1711 -0.3365 -0.9560
  102OSM    C1110288   2.391   3.920  10.618  0.3183  0.4726  0.2361
  102OSM   H11A10289   2.282   3.939  10.610  0.5767  1.5297 -0.9631
  102OSM   H11B10290   2.409   3.929  10.509 -0.9944  1.8534  0.1101
  102OSM      P10291   2.598   4.077  10.672 -0.2639  0.2741  0.3052
  102OSM    O1310292   2.605   4.220  10.710 -0.4000  0.6929 -0.6965
  102OSM    O1410293   2.696   3.987  10.736  0.7648 -0.7063  0.2699
  102OSM    O1110294   2.613   4.071  10.517 -0.1833 -0.1340  0.0702
  102OSM    O1210295   2.454   4.027  10.698 -0.0225  0.7302  0.7162
  102OSM    C1S10296   2.551   4.168  10.436  0.2434  0.5961 -0.7282
  102OSM    H1S10297   2.574   4.274  10.458  1.0548  0.3312 -0.2924
  102OSM    H1T10298   2.441   4.175  10.449 -0.0659 -0.4000 -2.6212
  102OSM     NF10299   2.522   4.268  10.201  0.7468 -0.1493  0.4576
  102OSM    HNF10300   2.448   4.266  10.133  0.9147 -0.4236  0.2851
  102OSM    C2S10301   2.572   4.157  10.280  0.6523  0.1387  0.4409
  102OSM    H2S10302   2.683   4.147  10.274  0.4964 -0.1601 -2.7619
  102OSM    C3S10303   2.517   4.020  10.240  0.0263  0.5470 -0.1479
  102OSM    H3S10304   2.414   4.013  10.282 -0.2909  1.0088 -0.8436
  102OSM     O310305   2.586   3.907  10.300  0.3944 -0.2508  0.1986
  102OSM    HO310306   2.625   3.945  10.380 -1.2733 -0.4503  1.1359
  102OSM    C4S10307   2.511   4.009  10.090 -0.4666 -0.2873  0.4063
  102OSM    H4S10308   2.420   4.051  10.043 -0.0946  1.0400  0.8540
  102OSM    C5S10309   2.608   3.960  10.012 -0.1595 -0.2819  0.3339
  102OSM    H5S10310   2.700   3.930  10.064 -0.5804 -1.0881  0.6162
  102OSM    C6S10311   2.619   3.963   9.869  0.0009  1.1991 -0.8083
  102OSM    H6S10312   2.574   3.869   9.829 -2.1466  2.4548 -1.4255
  102OSM    H6T10313   2.725   3.964   9.835  0.2294 -0.4729 -0.1783
  102OSM    C7S10314   2.541   4.076   9.795 -0.2004  0.1681  0.2085
  102OSM    H7S10315   2.564   4.172   9.846  0.7780 -0.7080  1.4469
  102OSM    H7T10316   2.433   4.055   9.810  0.0996 -1.0272  0.8102
  102OSM    C8S10317   2.559   4.092   9.639  0.0658  0.0928 -0.1545
  102OSM    H8S10318   2.523   3.996   9.595  0.5389 -0.8674  1.4936
  102OSM    H8T10319   2.668   4.099   9.622 -0.0392  0.4048 -0.7037
  102OSM    C9S10320   2.502   4.215   9.577  1.0380  0.4622  0.5204
  102OSM    H9S10321   2.548   4.283   9.651 -0.4888  1.2994  0.7181
  102OSM    H9T10322   2.391   4.216   9.588  0.9623 -1.4814  0.0941
  102OSM   C10S10323   2.549   4.243   9.434  0.7108  0.2030 -0.9387
  102OSM   H10S10324   2.485   4.315   9.379  0.1469 -0.8063 -1.6147
  102OSM   H10T10325   2.551   4.150   9.374 -0.5435  0.0231 -0.7152
  102OSM   C11S10326   2.689   4.305   9.408  0.1180  0.0362  0.3062
  102OSM   H11S10327   2.760   4.229   9.447  1.7044  2.2191  1.7876
  102OSM   H11T10328   2.680   4.392   9.476 -0.8518  0.9742 -0.9919
  102OSM   C12S10329   2.718   4.343   9.266 -0.0287 -1.1979  0.3030
  102OSM   H12S10330   2.631   4.392   9.216 -0.0329  1.0266  2.3567
  102OSM   H12T10331   2.742   4.248   9.214  3.0025 -0.3275  0.0157
  102OSM   C13S10332   2.838   4.434   9.262  0.7974  0.9012  0.5814
  102OSM   H13S10333   2.932   4.376   9.279  0.7019 -0.1432 -2.2115
  102OSM   H13T10334   2.823   4.512   9.339  0.3274  1.4439 -0.0567
  102OSM   C14S10335   2.858   4.494   9.124  0.2334 -0.0554  0.0160
  102OSM   H14S10336   2.939   4.569   9.129 -0.3384  0.5649 -0.0883
  102OSM   H14T10337   2.774   4.555   9.086 -0.2539 -1.0348 -0.5070
  102OSM   C15S10338   2.877   4.403   9.007  0.2649  0.7282 -0.2209
  102OSM   H15S10339   2.881   4.457   8.909  2.7996 -2.8486 -2.2034
  102OSM   H15T10340   2.788   4.338   9.001  0.7203 -0.3423  3.4791
  102OSM   C16S10341   2.993   4.302   9.015  0.0907 -0.3334  0.2012
  102OSM   H16S10342   2.974   4.246   9.109  0.9307  2.0216  1.8367
  102OSM   H16T10343   3.090   4.357   9.009  0.1198 -0.4831 -0.7449
  102OSM   C17S10344   2.992   4.204   8.895  0.5254  0.5639  0.6090
  102OSM   H17S10345   2.960   4.259   8.804  0.3917 -2.5834 -1.3426
  102OSM   H17T10346   2.908   4.132   8.911 -0.9554  2.0403 -0.3266
  102OSM   C18S10347   3.129   4.148   8.861 -0.0597  0.7848 -0.3552
  102OSM   H18S10348   3.187   4.236   8.823  1.0655  0.8755  1.5143
  102OSM   H18T10349   3.125   4.072   8.780  1.1604  0.9717 -0.6071
  102OSM   H18U10350   3.177   4.111   8.954 -2.0896  1.2837  0.9034
  102OSM    C1F10351   2.564   4.395  10.211 -0.4396  0.3902 -0.4425
  102OSM     OF10352   2.651   4.424  10.293 -0.3854 -0.0278  0.4140
  102OSM    C2F10353   2.499   4.494  10.123 -0.0837  0.2887  0.5746
  102OSM    H2F10354   2.460   4.587  10.170 -0.9835  1.1350 -1.7567
  102OSM    H2G10355   2.411   4.454  10.067 -0.3081 -0.9704  1.8075
  102OSM    C3F10356   2.601   4.557  10.019 -0.2239  0.2936  0.0413
  102OSM    H3F10357   2.674   4.616  10.078 -0.4165  1.4033 -0.8023
  102OSM    H3G10358   2.545   4.629   9.955  1.4871  1.3606 -0.2873
  102OSM    C4F10359   2.677   4.448   9.937  0.0440 -0.0050 -0.2611
  102OSM    H4F10360   2.602   4.380   9.892 -0.1388 -0.7589  1.1452
  102OSM    H4G10361   2.729   4.384  10.012  1.6758  2.0951  0.4563
  102OSM    C5F10362   2.762   4.505   9.823 -0.3147 -0.4388  0.1327
  102OSM    H5F10363   2.812   4.419   9.775 -0.9844 -0.6031 -0.2805
  102OSM    H5G10364   2.848   4.567   9.856  0.4183  0.1871 -2.8541
  102OSM    C6F10365   2.692   4.587   9.714  0.1772  0.2149  0.0792
  102OSM    H6F10366   2.650   4.680   9.758 -0.0996 -0.5082  1.3713
  102OSM    H6G10367   2.605   4.530   9.676  2.2766 -1.4804 -2.4032
  102OSM    C7F10368   2.783   4.623   9.595  0.4802  0.2403 -0.4069
  102OSM    H7F10369   2.832   4.533   9.550 -1.9868 -1.3116 -0.1009
  102OSM    H7G10370   2.871   4.685   9.624  1.8690 -1.3230 -1.1537
  102OSM    C8F10371   2.705   4.686   9.481 -0.0587  0.3056 -0.1479
  102OSM    H8F10372   2.635   4.610   9.440 -2.1523  2.3244 -0.4952
  102OSM    H8G10373   2.766   4.730   9.399 -1.1605  2.1481 -0.0127
  102OSM    C9F10374   2.617   4.804   9.512  0.5929 -0.0228 -0.4699
  102OSM    H9F10375   2.570   4.803   9.611 -0.7890  0.2152 -1.1102
  102OSM   C10F10376   2.563   4.889   9.424  0.9085 -0.1111 -0.4800
  102OSM   H10F10377   2.497   4.969   9.461 -0.9472 -1.0470 -1.6908
  102OSM   C11F10378   2.596   4.892   9.272 -0.6040 -0.0221  0.5000
  102OSM   H11F10379   2.689   4.839   9.242 -0.5797 -0.6885  1.7142
  102OSM   H11G10380   2.599   4.997   9.236 -0.7221 -0.7037 -1.5523
  102OSM   C12F10381   2.473   4.839   9.183  0.4106 -0.3500  0.0898
  102OSM   H12F10382   2.495   4.877   9.081 -2.1471  1.6589  0.2310
  102OSM   H12G10383   2.378   4.881   9.224 -0.1303 -0.8289 -0.6682
  102OSM   C13F10384   2.468   4.682   9.188  0.7885  0.1820 -0.4324
  102OSM   H13F10385   2.470   4.648   9.293 -1.6212  0.2532 -0.3398
  102OSM   H13G10386   2.560   4.649   9.134  0.6723  2.0968 -1.8536
  102OSM   C14F10387   2.342   4.630   9.128 -0.2944 -0.7335  0.2854
  102OSM   H14F10388   2.251   4.680   9.167 -1.0409 -1.4434 -0.5375
  102OSM   H14G10389   2.335   4.521   9.148  0.7011 -0.6475  1.1810
  102OSM   C15F10390   2.326   4.643   8.975 -0.0114  0.0549 -0.4651
  102OSM   H15F10391   2.403   4.582   8.923 -0.7987 -0.4579 -1.0390
  102OSM   H15G10392   2.365   4.738   8.934 -2.3560 -0.5063 -4.2673
  102OSM   C16F10393   2.182   4.614   8.930 -0.6368 -1.3093  0.0815
  102OSM   H16F10394   2.109   4.678   8.983 -0.5852 -0.5707 -0.7213
  102OSM   H16G10395   2.146   4.511   8.949 -1.6974 -1.0659 -0.5645
  102OSM   C17F10396   2.157   4.641   8.781 -0.0464  0.2317  0.1400
  102OSM   H17F10397   2.253   4.667   8.731 -1.0401  2.3029 -0.7480
  102OSM   H17G10398   2.096   4.733   8.768 -1.0871 -0.1719  1.9142
  102OSM   C18F10399   2.076   4.530   8.709  0.2257  0.2079  0.0365
  102OSM   H18F10400   2.128   4.434   8.730  1.9085  0.5438 -2.4073
  102OSM   H18G10401   2.078   4.542   8.599  0.2273 -3.3108 -0.3960
  102OSM   H18H10402   1.971   4.523   8.744  0.6608 -0.9575  1.1517
  103OSM      N10403   3.843   0.283  11.334  0.2991 -0.5636 -0.3487
  103OSM    C1510404   3.991   0.320  11.332 -0.0539  0.3957  0.3121
  103OSM   H15A10405   4.034   0.277  11.243  0.0613  2.2070 -0.5350
  103OSM   H15B10406   4.050   0.285  11.416 -1.1514  0.4815  1.1287
  103OSM   H15C10407   3.998   0.428  11.330 -1.3733  0.4942  0.6865
  103OSM    C1410408   3.836   0.132  11.336  0.1456 -0.1769  0.7238
  103OSM   H14A10409   3.733   0.102  11.327  0.0502  0.2062  0.5219
  103OSM   H14B10410   3.884   0.096  11.426  3.1049  1.4748 -0.1158
  103OSM   H14C10411   3.887   0.073  11.262 -3.2965 -1.8899 -0.3867
  103OSM    C1310412   3.787   0.337  11.464  0.6583  0.0153  0.0581
  103OSM   H13A10413   3.844   0.312  11.552  0.4853  1.0697  0.4764
  103OSM   H13B10414   3.688   0.296  11.479  0.2965  0.8914  0.0540
  103OSM   H13C10415   3.781   0.445  11.460 -1.8212 -0.0831  0.4888
  103OSM    C1210416   3.772   0.343  11.212  0.0662  0.4953 -0.0054
  103OSM   H12A10417   3.672   0.302  11.207  0.0902  0.4324  0.0332
  103OSM   H12B10418   3.830   0.319  11.125 -0.7794  0.4191 -0.5585
  103OSM    C1110419   3.762   0.500  11.202  0.7134 -0.3695 -0.2009
  103OSM   H11A10420   3.730   0.548  11.297 -0.9167  1.6371 -1.7164
  103OSM   H11B10421   3.691   0.531  11.122 -0.0323 -1.2377  0.1123
  103OSM      P10422   3.939   0.570  11.024 -0.2924  0.0603  0.2695
  103OSM    O1310423   3.879   0.694  10.969 -0.6468  0.2002  0.7068
  103OSM    O1410424   4.089   0.568  11.025 -0.2886  0.3595 -0.9953
  103OSM    O1110425   3.889   0.444  10.946  0.2842 -0.4543  0.0642
  103OSM    O1210426   3.892   0.548  11.174 -0.0286  0.0410 -0.1433
  103OSM    C1S10427   3.765   0.433  10.875  0.0668 -0.2339  0.0321
  103OSM    H1S10428   3.720   0.533  10.861  3.4067  1.2431 -0.7698
  103OSM    H1T10429   3.686   0.376  10.927 -0.2685  0.3347  0.1382
  103OSM     NF10430   3.686   0.390  10.640  0.2876  0.3125  0.7354
  103OSM    HNF10431   3.649   0.302  10.609  1.0253 -0.4373  1.9593
  103OSM    C2S10432   3.795   0.379  10.731 -0.1273 -0.0259 -0.1521
  103OSM    H2S10433   3.887   0.437  10.706  0.4989  0.3427  2.7844
  103OSM    C3S10434   3.844   0.235  10.745  0.5186  0.3200 -0.6698
  103OSM    H3S10435   3.762   0.178  10.794  0.8996  0.9892  0.7761
  103OSM     O310436   3.943   0.220  10.850  0.1702 -0.4037 -0.4959
  103OSM    HO310437   3.952   0.305  10.894 -0.5640 -1.1059  1.0568
  103OSM    C4S10438   3.893   0.179  10.608  0.7147 -0.0406 -0.1045
  103OSM    H4S10439   3.838   0.090  10.572 -0.1483  0.6284 -0.4627
  103OSM    C5S10440   4.002   0.209  10.532  0.3311 -0.4581 -0.6907
  103OSM    H5S10441   4.070   0.290  10.563 -0.1069  0.4319 -2.0184
  103OSM    C6S10442   4.042   0.140  10.407 -0.2608 -0.4383 -0.3878
  103OSM    H6S10443   4.126   0.067  10.415 -1.1885 -1.4254  0.3829
  103OSM    H6T10444   4.085   0.216  10.338 -2.1801  2.0585  1.1071
  103OSM    C7S10445   3.931   0.076  10.329  0.3484  0.1864 -0.2364
  103OSM    H7S10446   3.855   0.155  10.313 -0.4889 -0.4985  0.2815
  103OSM    H7T10447   3.874  -0.006  10.377  1.3713 -1.0027 -0.9943
  103OSM    C8S10448   3.978   0.024  10.186  0.2029 -0.8155  0.7326
  103OSM    H8S10449   4.050  -0.059  10.199  1.4881  0.4928  2.2280
  103OSM    H8T10450   4.032   0.105  10.133  2.0253 -2.4982 -0.0199
  103OSM    C9S10451   3.876  -0.015  10.086  0.4912  0.2579 -0.1000
  103OSM    H9S10452   3.797   0.061  10.068 -2.0277 -1.7156  2.1172
  103OSM    H9T10453   3.834  -0.113  10.117 -1.5476  0.8632 -0.8653
  103OSM   C10S10454   3.935  -0.049   9.952 -0.1371 -0.7110  0.6270
  103OSM   H10S10455   3.883  -0.135   9.905  1.3643 -1.9820  1.2486
  103OSM   H10T10456   4.033  -0.094   9.974  0.4003  0.3646  0.4924
  103OSM   C11S10457   3.947   0.074   9.864 -0.1450 -0.1207  0.0764
  103OSM   H11S10458   4.009   0.153   9.911 -0.5681  1.4567 -1.9251
  103OSM   H11T10459   3.846   0.119   9.853  0.7013  1.7837 -0.1072
  103OSM   C12S10460   4.019   0.028   9.740 -0.1148  0.0822  0.1235
  103OSM   H12S10461   3.958  -0.037   9.673  0.1286  0.5616 -0.5690
  103OSM   H12T10462   4.111  -0.034   9.750  0.2669  0.8168  1.2102
  103OSM   C13S10463   4.067   0.145   9.651 -0.9327 -0.1028 -0.2418
  103OSM   H13S10464   4.161   0.188   9.691  0.5901 -1.5226 -2.1658
  103OSM   H13T10465   3.987   0.222   9.642  2.4912  3.7106  0.4697
  103OSM   C14S10466   4.096   0.094   9.510 -0.3659  0.4546 -0.2111
  103OSM   H14S10467   4.004   0.043   9.476 -0.6857 -0.8663  2.5210
  103OSM   H14T10468   4.177   0.017   9.515 -0.0400  0.9377  2.7522
  103OSM   C15S10469   4.125   0.224   9.424 -0.3151  0.4199 -0.4944
  103OSM   H15S10470   4.197   0.281   9.486  0.7526 -1.7408  0.3242
  103OSM   H15T10471   4.034   0.287   9.422  0.0801  1.1092  1.7620
  103OSM   C16S10472   4.206   0.179   9.302 -0.1560  0.0064 -0.5284
  103OSM   H16S10473   4.144   0.119   9.232 -1.1418  0.4539 -0.0575
  103OSM   H16T10474   4.282   0.105   9.333  1.2653  1.6649  0.0493
  103OSM   C17S10475   4.282   0.290   9.225 -0.5423 -0.5924 -0.4098
  103OSM   H17S10476   4.374   0.295   9.286 -0.9002  0.9621  0.0161
  103OSM   H17T10477   4.226   0.385   9.235 -2.3189 -1.6167 -0.4080
  103OSM   C18S10478   4.309   0.273   9.075  0.2422  0.0577 -0.5982
  103OSM   H18S10479   4.210   0.275   9.024 -0.3176 -0.8991  0.4520
  103OSM   H18T10480   4.353   0.173   9.058  2.2045  0.3320  2.6221
  103OSM   H18U10481   4.388   0.338   9.030  1.2491 -1.2941 -0.8039
  103OSM    C1F10482   3.639   0.507  10.581 -0.1973  0.1024  1.2751
  103OSM     OF10483   3.675   0.616  10.622  0.0493  0.1310  0.3713
  103OSM    C2F10484   3.556   0.477  10.465  0.4353 -0.9324 -0.6974
  103OSM    H2F10485   3.472   0.415  10.502 -0.1688  0.2643 -0.0286
  103OSM    H2G10486   3.613   0.425  10.384  0.1722 -1.1257 -0.7599
  103OSM    C3F10487   3.489   0.598  10.399 -0.9686  0.1472 -0.4696
  103OSM    H3F10488   3.571   0.668  10.372  0.5123 -1.1958  0.4757
  103OSM    H3G10489   3.421   0.648  10.471  0.1764  0.8761  0.1276
  103OSM    C4F10490   3.409   0.557  10.280  0.2359  0.1925 -0.2127
  103OSM    H4F10491   3.313   0.517  10.318  1.6721 -1.9013  1.3225
  103OSM    H4G10492   3.463   0.473  10.232  0.7255 -0.3485  1.2572
  103OSM    C5F10493   3.398   0.673  10.182  0.0682 -0.1506  0.6526
  103OSM    H5F10494   3.492   0.679  10.123  0.4488  0.9381  1.3563
  103OSM    H5G10495   3.390   0.771  10.234 -1.7073  1.2459 -2.1318
  103OSM    C6F10496   3.262   0.664  10.092  0.0369  0.3401  0.0518
  103OSM    H6F10497   3.228   0.764  10.058  1.7614  0.8082 -0.3400
  103OSM    H6G10498   3.181   0.647  10.165  0.1917  2.2174  0.6867
  103OSM    C7F10499   3.268   0.562   9.984  0.6161 -0.0065  0.2339
  103OSM    H7F10500   3.320   0.469  10.018 -0.9488 -0.3298  1.8172
  103OSM    H7G10501   3.342   0.596   9.908  1.5441 -1.7426  0.3396
  103OSM    C8F10502   3.127   0.531   9.936 -0.0092  0.0239  0.4527
  103OSM    H8F10503   3.083   0.625   9.898 -1.0464 -1.2333 -1.5854
  103OSM    H8G10504   3.059   0.511  10.021 -0.1418 -1.8681 -0.0675
  103OSM    C9F10505   3.122   0.414   9.839  0.9311 -0.1291 -0.9399
  103OSM    H9F10506   3.156   0.321   9.888 -0.7275 -0.0089  0.4743
  103OSM   C10F10507   3.106   0.406   9.707 -0.0459  0.3580  0.0163
  103OSM   H10F10508   3.114   0.319   9.640 -3.0685  1.5112 -1.9522
  103OSM   C11F10509   3.083   0.536   9.624 -0.3571 -0.5490  0.3244
  103OSM   H11F10510   3.049   0.611   9.698 -1.7491 -1.7502  0.9374
  103OSM   H11G10511   3.010   0.515   9.543  0.0860 -1.6879  0.2079
  103OSM   C12F10512   3.215   0.595   9.578  0.6172  0.1161  0.2806
  103OSM   H12F10513   3.290   0.610   9.658  1.4876 -1.2927 -0.2598
  103OSM   H12G10514   3.204   0.696   9.533  0.7420 -0.9179 -2.1393
  103OSM   C13F10515   3.296   0.516   9.473 -0.0376 -0.4497  0.1531
  103OSM   H13F10516   3.325   0.411   9.496 -0.6089 -0.6901 -0.2213
  103OSM   H13G10517   3.238   0.529   9.379  0.9510 -0.0495 -0.4151
  103OSM   C14F10518   3.434   0.585   9.445  0.1249 -0.2977  0.1804
  103OSM   H14F10519   3.465   0.630   9.541  1.0631  2.0296 -1.1819
  103OSM   H14G10520   3.424   0.670   9.375 -1.6194 -0.0489  0.7097
  103OSM   C15F10521   3.532   0.486   9.385  0.0260 -0.0226 -0.1230
  103OSM   H15F10522   3.497   0.456   9.284  3.4003  2.0144 -1.9895
  103OSM   H15G10523   3.532   0.394   9.447 -1.6228  1.5169  2.2383
  103OSM   C16F10524   3.674   0.527   9.353 -0.1032 -0.3948 -0.1477
  103OSM   H16F10525   3.731   0.573   9.437  0.4574 -1.7530  0.2287
  103OSM   H16G10526   3.661   0.598   9.269 -3.4419 -2.5977 -1.5982
  103OSM   C17F10527   3.754   0.401   9.308 -0.3707 -0.2149  0.2662
  103OSM   H17F10528   3.683   0.364   9.230  0.4678 -2.1302  0.3958
  103OSM   H17G10529   3.752   0.321   9.385 -0.9203 -2.4410 -1.9862
  103OSM   C18F10530   3.891   0.437   9.252 -0.0720 -0.7135  0.2738
  103OSM   H18F10531   3.877   0.511   9.171  0.9233 -1.6294 -0.7559
  103OSM   H18G10532   3.939   0.352   9.199  2.1348  0.7493 -0.1623
  103OSM   H18H10533   3.957   0.478   9.332  0.9852  2.5014 -2.1539
  104OSM      N10534   1.174   6.365  11.026  0.1312 -0.7237  0.1498
  104OSM    C1510535   1.281   6.473  11.030  0.5877 -0.2205  0.2448
  104OSM   H15A10536   1.241   6.554  10.972  1.0900 -0.4801 -0.4719
  104OSM   H15B10537   1.375   6.439  10.989 -0.9142 -2.1297 -1.7385
  104OSM   H15C10538   1.289   6.497  11.135 -1.9330 -0.5953  0.5367
  104OSM    C1410539   1.226   6.247  11.095 -0.0015  0.4598  0.4112
  104OSM   H14A10540   1.316   6.206  11.051 -1.4019 -1.0245 -1.1338
  104OSM   H14B10541   1.159   6.164  11.076  1.4289 -0.1176 -2.4634
  104OSM   H14C10542   1.237   6.263  11.201  2.1847 -1.1448  0.4669
  104OSM    C1310543   1.061   6.414  11.098  0.3123  0.4390  0.5887
  104OSM   H13A10544   0.976   6.347  11.089  1.0607 -0.5079  0.4419
  104OSM   H13B10545   1.032   6.507  11.053 -4.5999 -1.5307 -0.6642
  104OSM   H13C10546   1.085   6.428  11.202  2.4299  1.5237 -0.0214
  104OSM    C1210547   1.156   6.331  10.881  0.4066  0.5238  0.0297
  104OSM   H12A10548   1.090   6.245  10.880  0.3765  0.4888  1.9308
  104OSM   H12B10549   1.237   6.289  10.824  0.0783 -0.0534 -0.0215
  104OSM    C1110550   1.101   6.440  10.788  0.0875 -0.1333  0.1651
  104OSM   H11A10551   1.011   6.493  10.827  0.7529 -0.7529  2.6251
  104OSM   H11B10552   1.059   6.392  10.697 -0.4228 -0.7069  0.6986
  104OSM      P10553   1.309   6.512  10.662 -0.0755  0.0372  0.1878
  104OSM    O1310554   1.414   6.618  10.675  0.6062  0.5057 -0.1774
  104OSM    O1410555   1.364   6.375  10.682  0.0881 -0.0355  0.1556
  104OSM    O1110556   1.227   6.526  10.526  0.5554  0.0484  0.0763
  104OSM    O1210557   1.187   6.540  10.758 -0.3566 -0.5198 -0.6551
  104OSM    C1S10558   1.184   6.657  10.469 -0.0698 -0.8548 -0.6973
  104OSM    H1S10559   1.264   6.731  10.488 -0.3272 -0.5098 -0.9347
  104OSM    H1T10560   1.094   6.684  10.529  0.4798  0.6332 -0.5382
  104OSM     NF10561   1.140   6.787  10.262  0.1121  0.0773 -0.1810
  104OSM    HNF10562   1.044   6.811  10.258  0.0623  0.0703  0.8524
  104OSM    C2S10563   1.159   6.651  10.314 -0.5581 -0.3103 -0.0814
  104OSM    H2S10564   1.244   6.604  10.260  1.0982  1.7867  0.6008
  104OSM    C3S10565   1.038   6.557  10.290  0.3173  0.4795 -0.1583
  104OSM    H3S10566   0.950   6.600  10.342  0.1788  1.1750 -0.9665
  104OSM     O310567   1.058   6.429  10.346 -0.3999  0.5037 -0.6589
  104OSM    HO310568   1.122   6.442  10.416  0.4178 -0.9648 -1.1093
  104OSM    C4S10569   1.006   6.541  10.150 -0.3759 -0.1014 -0.2687
  104OSM    H4S10570   1.087   6.491  10.095 -1.1519  0.5894 -2.0738
  104OSM    C5S10571   0.885   6.576  10.100  0.0522 -0.4969 -0.2511
  104OSM    H5S10572   0.804   6.597  10.171  2.3867  0.2232  2.2623
  104OSM    C6S10573   0.845   6.562   9.954 -0.6603  0.0989  0.1349
  104OSM    H6S10574   0.850   6.662   9.907  2.8591  1.1015  2.4371
  104OSM    H6T10575   0.743   6.519   9.962 -0.2731 -0.9729 -0.6239
  104OSM    C7S10576   0.936   6.460   9.870 -0.1871 -0.3994  0.6701
  104OSM    H7S10577   0.953   6.360   9.917  0.1339 -0.3966  0.5603
  104OSM    H7T10578   1.032   6.511   9.849  0.3829 -0.7690  2.2718
  104OSM    C8S10579   0.879   6.444   9.724  0.2777  0.3275  0.8516
  104OSM    H8S10580   0.879   6.549   9.686  2.4384 -0.4044 -1.3560
  104OSM    H8T10581   0.776   6.404   9.734  0.9531 -1.3237  1.4320
  104OSM    C9S10582   0.959   6.354   9.630 -0.4182  0.4926 -0.6508
  104OSM    H9S10583   0.956   6.249   9.668 -0.4060  0.3683 -0.9933
  104OSM    H9T10584   1.061   6.397   9.622  0.5023 -1.8533 -2.2100
  104OSM   C10S10585   0.901   6.358   9.487  0.2986  0.1671  0.0766
  104OSM   H10S10586   0.915   6.458   9.440  0.8358 -0.3938 -0.9571
  104OSM   H10T10587   0.789   6.356   9.489  0.2198  2.9270  1.3678
  104OSM   C11S10588   0.947   6.245   9.408  0.8265 -0.2336 -0.0265
  104OSM   H11S10589   0.903   6.149   9.444  5.1645 -1.8113  1.4534
  104OSM   H11T10590   1.056   6.240   9.428  0.6843 -1.9213  0.4047
  104OSM   C12S10591   0.920   6.262   9.261 -0.1820 -0.0795 -0.2324
  104OSM   H12S10592   0.972   6.355   9.229  0.6984 -0.9301 -1.3423
  104OSM   H12T10593   0.815   6.288   9.238 -0.7806 -1.6216  0.6642
  104OSM   C13S10594   0.940   6.140   9.172  0.6795  0.2155  0.5644
  104OSM   H13S10595   0.861   6.064   9.191 -0.1903  1.0244  0.1812
  104OSM   H13T10596   1.035   6.083   9.185  0.1744 -0.9989 -0.8889
  104OSM   C14S10597   0.933   6.163   9.017 -0.4087 -0.1672  0.7283
  104OSM   H14S10598   1.009   6.237   8.984  1.2877 -1.4429  1.6872
  104OSM   H14T10599   0.828   6.194   8.998  0.1598  0.2992 -1.8594
  104OSM   C15S10600   0.954   6.040   8.931 -0.1090  0.1989 -0.3336
  104OSM   H15S10601   0.860   5.982   8.919  0.4590 -0.7087 -0.4515
  104OSM   H15T10602   1.028   5.978   8.985  0.1332  2.6399  2.2804
  104OSM   C16S10603   0.998   6.086   8.786  0.1734 -0.2399  0.6563
  104OSM   H16S10604   1.106   6.111   8.789 -0.6657  3.3628  2.6812
  104OSM   H16T10605   0.955   6.186   8.765  0.1492 -0.0770  1.4839
  104OSM   C17S10606   0.977   5.974   8.683  0.0830 -0.1793  0.1402
  104OSM   H17S10607   0.868   5.953   8.685 -0.0525  0.4595 -0.6047
  104OSM   H17T10608   1.026   5.882   8.722  0.4735  0.2204  0.6091
  104OSM   C18S10609   1.033   6.004   8.542  0.1402  1.0734 -0.0343
  104OSM   H18S10610   1.005   6.109   8.520  0.9398  0.7895 -2.5729
  104OSM   H18T10611   0.989   5.933   8.469  0.6312 -0.1671  0.8594
  104OSM   H18U10612   1.144   5.994   8.544  0.1690  1.4178  1.7500
  104OSM    C1F10613   1.240   6.872  10.238 -0.1176 -0.5947 -0.3454
  104OSM     OF10614   1.354   6.843  10.278  0.3548  0.3113  0.5031
  104OSM    C2F10615   1.209   7.000  10.165 -0.0099 -0.9988 -0.4832
  104OSM    H2F10616   1.256   7.084  10.221 -0.6212 -0.6802 -0.4451
  104OSM    H2G10617   1.099   7.011  10.175  0.1810  0.1449  0.6158
  104OSM    C3F10618   1.260   7.000  10.016  0.4486 -0.2440  0.2043
  104OSM    H3F10619   1.359   6.949  10.012 -0.3454 -1.9206  1.2563
  104OSM    H3G10620   1.262   7.104   9.978  1.7203 -0.0152  0.8756
  104OSM    C4F10621   1.160   6.922   9.929 -0.1662  0.2835 -0.5331
  104OSM    H4F10622   1.054   6.947   9.949  0.8168  3.1865  1.4686
  104OSM    H4G10623   1.165   6.815   9.956 -0.3097  0.1919 -0.8726
  104OSM    C5F10624   1.188   6.942   9.783  0.4004  0.1295  0.6714
  104OSM    H5F10625   1.294   6.914   9.761  0.3035  1.5551 -1.8071
  104OSM    H5G10626   1.179   7.050   9.761  0.4558  0.1956  0.9861
  104OSM    C6F10627   1.090   6.874   9.696 -0.6779  0.3611  0.5871
  104OSM    H6F10628   1.025   6.943   9.638 -1.4961  0.4330  1.5704
  104OSM    H6G10629   1.012   6.819   9.753 -0.6124  0.7586  1.0615
  104OSM    C7F10630   1.162   6.780   9.595 -0.1932 -0.2615 -0.0741
  104OSM    H7F10631   1.212   6.700   9.654  0.5196  0.2378  0.0004
  104OSM    H7G10632   1.251   6.829   9.552  0.0028 -1.8909 -1.5632
  104OSM    C8F10633   1.069   6.728   9.480  0.8307 -0.0391  0.0448
  104OSM    H8F10634   1.031   6.809   9.414  0.0258 -0.6979 -0.3041
  104OSM    H8G10635   0.984   6.679   9.532  0.2611  0.6232 -0.2411
  104OSM    C9F10636   1.135   6.633   9.387 -0.0325  0.1241  0.1341
  104OSM    H9F10637   1.174   6.537   9.425  1.1328 -0.5350 -2.6154
  104OSM   C10F10638   1.167   6.651   9.255 -0.4358 -1.0958 -0.0698
  104OSM   H10F10639   1.207   6.566   9.198  1.6616 -0.6261  0.6584
  104OSM   C11F10640   1.153   6.785   9.184  0.3299  0.2758  0.0459
  104OSM   H11F10641   1.221   6.807   9.100  0.7384  0.9780  0.5519
  104OSM   H11G10642   1.172   6.867   9.257  1.0974 -1.2784  1.6415
  104OSM   C12F10643   1.009   6.800   9.130 -0.0006  0.1520 -0.5094
  104OSM   H12F10644   1.007   6.904   9.091  1.3043  0.1928 -0.4902
  104OSM   H12G10645   0.937   6.785   9.212  0.6069 -0.1339 -0.0235
  104OSM   C13F10646   0.968   6.706   9.016 -0.7506 -0.2231  0.1588
  104OSM   H13F10647   0.863   6.723   8.982 -1.2091 -3.2681 -0.0428
  104OSM   H13G10648   0.957   6.603   9.056  1.7021 -0.0908  1.2385
  104OSM   C14F10649   1.061   6.707   8.898  0.5633 -0.3689  0.4384
  104OSM   H14F10650   1.161   6.665   8.922  0.0546 -0.7334  1.9624
  104OSM   H14G10651   1.091   6.808   8.864  1.3278 -0.5895  0.4543
  104OSM   C15F10652   0.979   6.644   8.774  0.1002 -0.3773  0.3013
  104OSM   H15F10653   1.029   6.682   8.682  0.6524  2.0376  1.5523
  104OSM   H15G10654   0.882   6.697   8.777 -0.3594 -1.2969  2.8458
  104OSM   C16F10655   0.967   6.493   8.774 -0.3497  0.4001 -0.0228
  104OSM   H16F10656   0.922   6.440   8.861  1.4539 -1.0355  0.0863
  104OSM   H16G10657   1.069   6.451   8.760 -0.6897 -0.2881 -0.4787
  104OSM   C17F10658   0.895   6.452   8.642 -0.2743 -0.1212  0.9337
  104OSM   H17F10659   0.798   6.506   8.638  0.8472  1.9110  0.4537
  104OSM   H17G10660   0.888   6.341   8.653 -3.7144 -0.0711 -0.0842
  104OSM   C18F10661   0.973   6.469   8.509 -0.3191 -0.2159  0.0595
  104OSM   H18F10662   0.922   6.430   8.419  2.9793  0.3805 -2.1523
  104OSM   H18G10663   1.076   6.434   8.529 -0.2146 -1.3425 -2.3737
  104OSM   H18H10664   0.989   6.576   8.486  0.9885 -0.7397 -1.5414
  105OSM      N10665   0.253   6.231  10.747 -0.0457  0.1453 -0.3122
  105OSM    C1510666   0.164   6.291  10.846 -0.1290 -0.1498  0.1536
  105OSM   H15A10667   0.126   6.218  10.916 -1.0520  0.8224  0.6735
  105OSM   H15B10668   0.074   6.337  10.808  0.6125 -0.1770 -1.6832
  105OSM   H15C10669   0.219   6.361  10.906 -1.4214  0.6163  0.4495
  105OSM    C1410670   0.375   6.164  10.822  0.2537  0.2190 -0.2072
  105OSM   H14A10671   0.446   6.242  10.847 -1.8905  2.5845 -1.3297
  105OSM   H14B10672   0.429   6.111  10.744  1.3875  0.2087  0.5750
  105OSM   H14C10673   0.344   6.095  10.899 -1.1793 -0.3296 -1.2425
  105OSM    C1310674   0.183   6.120  10.678 -0.2672 -0.2025  0.3593
  105OSM   H13A10675   0.097   6.168  10.633  1.7065  2.0819 -1.0399
  105OSM   H13B10676   0.140   6.051  10.749  0.5916 -0.5822  0.5108
  105OSM   H13C10677   0.243   6.068  10.605 -3.9694 -2.2429 -1.4025
  105OSM    C1210678   0.310   6.331  10.646 -0.4701  0.7135 -0.4500
  105OSM   H12A10679   0.226   6.353  10.582 -2.1182 -1.1736  1.0132
  105OSM   H12B10680   0.393   6.288  10.592  0.9059  1.4490  1.0543
  105OSM    C1110681   0.347   6.472  10.696  0.0433 -0.2383 -0.5839
  105OSM   H11A10682   0.258   6.532  10.726  1.3252  0.8543  1.0930
  105OSM   H11B10683   0.390   6.537  10.618 -1.7803  0.5474 -0.9640
  105OSM      P10684   0.598   6.460  10.783 -0.0148  0.0957  0.2730
  105OSM    O1310685   0.651   6.601  10.790 -0.2860  0.7267 -0.2703
  105OSM    O1410686   0.646   6.361  10.880 -0.3195 -0.3294  0.3099
  105OSM    O1110687   0.614   6.399  10.637  0.1415  0.1372  0.4141
  105OSM    O1210688   0.441   6.463  10.807  0.3557 -0.1953  0.5258
  105OSM    C1S10689   0.747   6.368  10.600  0.3197 -0.3783  0.9299
  105OSM    H1S10690   0.806   6.319  10.681  3.4770  0.5333 -0.7089
  105OSM    H1T10691   0.793   6.463  10.565 -0.0163  0.6836  3.2432
  105OSM     NF10692   0.883   6.221  10.454  0.3043  0.0290  0.0048
  105OSM    HNF10693   0.943   6.295  10.426  0.1962  0.8669  1.9478
  105OSM    C2S10694   0.747   6.274  10.475  0.9624 -0.0118  0.5209
  105OSM    H2S10695   0.675   6.191  10.487 -0.4471  0.9834 -0.9328
  105OSM    C3S10696   0.699   6.356  10.348  0.3383  0.3609  0.6578
  105OSM    H3S10697   0.754   6.451  10.334  0.9618 -0.2264 -1.0681
  105OSM     O310698   0.563   6.399  10.364 -0.2119  0.0339 -0.7575
  105OSM    HO310699   0.552   6.395  10.460 -0.2134  0.3165 -0.7464
  105OSM    C4S10700   0.717   6.278  10.219  0.3490  0.5747  0.6659
  105OSM    H4S10701   0.817   6.289  10.174  1.3128  1.1906  2.9081
  105OSM    C5S10702   0.625   6.190  10.166 -0.4287  0.4202 -0.5505
  105OSM    H5S10703   0.530   6.174  10.218  1.0722  0.1683  2.2229
  105OSM    C6S10704   0.639   6.108  10.041 -0.3532 -0.6095 -0.0466
  105OSM    H6S10705   0.558   6.134   9.969  0.0652  2.0891  0.4191
  105OSM    H6T10706   0.625   6.000  10.065  0.1114 -0.3585  1.3934
  105OSM    C7S10707   0.777   6.128   9.973  0.0862 -0.5931 -0.0201
  105OSM    H7S10708   0.862   6.122  10.044  1.4800  0.6804 -1.5315
  105OSM    H7T10709   0.781   6.231   9.932  2.2299 -0.5034  0.3769
  105OSM    C8S10710   0.788   6.034   9.851 -0.7466  0.4787  0.0552
  105OSM    H8S10711   0.788   5.925   9.871  3.0427  0.2737 -0.5678
  105OSM    H8T10712   0.884   6.071   9.808 -0.2723  0.9188  1.4412
  105OSM    C9S10713   0.672   6.059   9.752  0.2897 -0.7773  0.0553
  105OSM    H9S10714   0.668   6.165   9.719 -1.3420  0.3246  3.5305
  105OSM    H9T10715   0.575   6.036   9.801  0.1731  0.8402  0.6126
  105OSM   C10S10716   0.681   5.965   9.629 -0.0894 -0.1518 -0.7228
  105OSM   H10S10717   0.681   5.856   9.650  2.9763 -0.3607 -1.4776
  105OSM   H10T10718   0.777   5.993   9.581 -0.4054  1.8141 -0.2222
  105OSM   C11S10719   0.576   5.998   9.529  0.5228  0.3171  1.0978
  105OSM   H11S10720   0.564   6.108   9.519  1.1686  0.1485 -1.6993
  105OSM   H11T10721   0.477   5.957   9.560  0.3806  0.5411  0.9443
  105OSM   C12S10722   0.598   5.938   9.393 -0.7149 -0.1674  0.1831
  105OSM   H12S10723   0.605   5.830   9.417  0.2894 -0.1506 -0.0213
  105OSM   H12T10724   0.688   5.977   9.340 -0.3160 -1.9254 -0.4601
  105OSM   C13S10725   0.484   5.963   9.300  0.3328 -0.3720  0.3543
  105OSM   H13S10726   0.451   6.069   9.296 -0.9034 -0.7428  0.4058
  105OSM   H13T10727   0.393   5.903   9.323 -1.2945  1.4691 -1.1191
  105OSM   C14S10728   0.498   5.914   9.157 -0.5600  0.2837 -0.0282
  105OSM   H14S10729   0.498   5.803   9.154 -1.3040  0.2684  0.5270
  105OSM   H14T10730   0.599   5.953   9.132  0.7332 -0.4970  3.7065
  105OSM   C15S10731   0.388   5.963   9.057 -0.1348 -0.0074 -0.0203
  105OSM   H15S10732   0.339   6.059   9.081  0.2678  0.2969 -0.4025
  105OSM   H15T10733   0.300   5.896   9.054  0.2143 -0.4294 -1.7061
  105OSM   C16S10734   0.442   5.979   8.913 -0.4706  0.4321  0.2353
  105OSM   H16S10735   0.471   5.874   8.890 -1.1687 -0.0559  1.5621
  105OSM   H16T10736   0.532   6.043   8.910  0.4442 -0.8600 -0.0698
  105OSM   C17S10737   0.344   6.026   8.806  0.9330 -0.2259 -0.1043
  105OSM   H17S10738   0.390   6.081   8.721  0.0230  0.4044 -0.2062
  105OSM   H17T10739   0.275   6.097   8.858 -1.1840 -0.4092 -2.5654
  105OSM   C18S10740   0.269   5.912   8.748  0.5040  0.7924 -0.1199
  105OSM   H18S10741   0.333   5.826   8.717  2.5542  2.7816 -1.5918
  105OSM   H18T10742   0.221   5.947   8.654 -0.7377  0.5336  0.4134
  105OSM   H18U10743   0.195   5.878   8.823 -0.5699  1.8653 -0.6857
  105OSM    C1F10744   0.923   6.111  10.526 -0.5551  0.0313  0.7753
  105OSM     OF10745   0.851   6.058  10.611  0.3005  0.0441  0.2319
  105OSM    C2F10746   1.063   6.056  10.498  1.0029 -0.1676  0.2102
  105OSM    H2F10747   1.077   5.957  10.546 -1.0703 -0.4944  0.1896
  105OSM    H2G10748   1.151   6.109  10.540  1.4688  0.9188 -2.0427
  105OSM    C3F10749   1.097   6.059  10.348  0.3571 -0.1160 -0.4453
  105OSM    H3F10750   1.135   6.161  10.327 -2.5999  0.7560 -1.8445
  105OSM    H3G10751   1.013   6.038  10.279 -0.2154 -1.3758  0.5905
  105OSM    C4F10752   1.207   5.963  10.312  0.1731  0.7525  0.2683
  105OSM    H4F10753   1.186   5.855  10.326  1.6162  0.2497 -1.2943
  105OSM    H4G10754   1.285   5.987  10.387  0.3860  2.4815 -0.4741
  105OSM    C5F10755   1.269   5.984  10.169 -0.4164 -0.4762 -0.1322
  105OSM    H5F10756   1.349   5.907  10.160 -0.9706 -1.1860  0.8531
  105OSM    H5G10757   1.311   6.086  10.159  0.1159 -0.6715  0.1290
  105OSM    C6F10758   1.179   5.964  10.050 -0.0415  0.2924 -0.0723
  105OSM    H6F10759   1.155   6.051   9.985  2.4622  0.0440 -1.3803
  105OSM    H6G10760   1.087   5.919  10.093 -1.4215  1.5164 -1.6837
  105OSM    C7F10761   1.226   5.861   9.950 -0.5125  0.3254  1.1830
  105OSM    H7F10762   1.258   5.774  10.010  3.5925  0.5601 -0.5202
  105OSM    H7G10763   1.324   5.879   9.902 -1.2020 -1.5451 -1.0079
  105OSM    C8F10764   1.118   5.830   9.838  0.3432  0.0954 -0.1846
  105OSM    H8F10765   1.026   5.804   9.895 -0.7618  0.5673 -1.7316
  105OSM    H8G10766   1.154   5.737   9.790 -0.5387  0.0793 -0.8194
  105OSM    C9F10767   1.087   5.938   9.729  0.0630  0.3665 -0.0018
  105OSM    H9F10768   1.082   6.039   9.770  2.3259  0.9309 -1.0670
  105OSM   C10F10769   1.063   5.924   9.596  0.1790  0.2784 -0.4599
  105OSM   H10F10770   1.042   6.011   9.532 -1.6145  1.8015  2.1178
  105OSM   C11F10771   1.064   5.801   9.507 -0.3137 -0.2532  0.7043
  105OSM   H11F10772   1.037   5.711   9.566  0.0292  0.6774  2.3097
  105OSM   H11G10773   1.163   5.782   9.460  0.1515 -0.4773  1.7589
  105OSM   C12F10774   0.951   5.820   9.402 -0.7333  0.3018  0.3791
  105OSM   H12F10775   0.973   5.900   9.328  0.1601 -2.2037 -2.1597
  105OSM   H12G10776   0.852   5.830   9.452 -0.4562  0.4731  0.8965
  105OSM   C13F10777   0.939   5.694   9.308  0.4684 -0.0179  0.1747
  105OSM   H13F10778   0.932   5.606   9.377 -0.5984 -0.3653 -0.3644
  105OSM   H13G10779   1.038   5.690   9.257  0.3377 -1.8335  0.0220
  105OSM   C14F10780   0.834   5.709   9.210 -0.3885 -0.5039  0.6219
  105OSM   H14F10781   0.841   5.812   9.169  0.4040 -0.7733  0.0573
  105OSM   H14G10782   0.738   5.685   9.262 -0.5880 -1.0443  0.0191
  105OSM   C15F10783   0.832   5.605   9.095 -0.7933 -0.0660 -0.1298
  105OSM   H15F10784   0.841   5.506   9.144 -3.1066 -0.8992 -1.2841
  105OSM   H15G10785   0.923   5.634   9.038 -1.7203 -0.2699 -1.7386
  105OSM   C16F10786   0.706   5.620   9.006  0.9075 -0.0922 -0.1136
  105OSM   H16F10787   0.683   5.728   9.001 -1.1544 -0.5290 -0.6120
  105OSM   H16G10788   0.619   5.563   9.045 -2.1161  3.6723 -1.0517
  105OSM   C17F10789   0.727   5.557   8.869  0.2606 -0.3310 -0.7161
  105OSM   H17F10790   0.626   5.538   8.827  0.4407 -0.7278 -0.9704
  105OSM   H17G10791   0.772   5.455   8.871 -4.0548 -2.3150  0.5287
  105OSM   C18F10792   0.802   5.651   8.771  0.0134  0.4177 -0.0484
  105OSM   H18F10793   0.804   5.597   8.674  0.5016 -1.5454  1.0364
  105OSM   H18G10794   0.908   5.658   8.802 -0.0867  0.3527  0.3029
  105OSM   H18H10795   0.751   5.750   8.764  0.7710  0.8248  0.1809
  106OSM      N10796   2.415   4.597  10.777 -0.5425  0.0275 -0.1709
  106OSM    C1510797   2.474   4.716  10.715  0.1881 -0.3880 -1.1336
  106OSM   H15A10798   2.480   4.797  10.785  4.1475  0.8483 -2.7704
  106OSM   H15B10799   2.417   4.752  10.631 -1.0756  1.3443  0.4427
  106OSM   H15C10800   2.574   4.707  10.674  0.4702  1.4351 -0.8521
  106OSM    C1410801   2.507   4.558  10.897  0.6129  0.3994  0.5997
  106OSM   H14A10802   2.454   4.476  10.943  0.2140  0.8988  1.0252
  106OSM   H14B10803   2.516   4.638  10.968  0.3631  0.7733  0.2125
  106OSM   H14C10804   2.602   4.519  10.865  0.1211  0.6543 -1.2395
  106OSM    C1310805   2.281   4.633  10.839 -0.3890  0.1849  0.4539
  106OSM   H13A10806   2.235   4.554  10.897 -0.7220  0.9257  1.2060
  106OSM   H13B10807   2.208   4.667  10.768  0.3877 -1.3768 -1.1250
  106OSM   H13C10808   2.295   4.713  10.910  1.8246 -1.2699  1.7418
  106OSM    C1210809   2.411   4.473  10.693  0.1950 -0.1019 -0.5303
  106OSM   H12A10810   2.363   4.391  10.745  1.0863  0.8368  1.8692
  106OSM   H12B10811   2.509   4.443  10.660  0.4596 -1.1107  1.0719
  106OSM    C1110812   2.331   4.494  10.560 -0.8429 -0.0859 -0.3392
  106OSM   H11A10813   2.360   4.409  10.494  0.7123  0.6599 -0.6379
  106OSM   H11B10814   2.361   4.592  10.518 -1.1488  0.4644  0.7166
  106OSM      P10815   2.101   4.383  10.581  0.2210 -0.1164 -0.0412
  106OSM    O1310816   2.108   4.324  10.715  0.5221 -0.8122 -0.6532
  106OSM    O1410817   1.960   4.428  10.549 -0.2286  0.6015  0.4949
  106OSM    O1110818   2.150   4.278  10.472 -0.1454 -0.1555 -0.1348
  106OSM    O1210819   2.191   4.516  10.565  0.0931 -0.1597 -0.5054
  106OSM    C1S10820   2.108   4.298  10.334 -0.1315 -0.0658  0.5495
  106OSM    H1S10821   2.176   4.369  10.283 -3.4133  3.2062  0.4855
  106OSM    H1T10822   2.008   4.348  10.334  0.5925  1.4852  2.5849
  106OSM     NF10823   2.081   4.199  10.119 -0.4170 -0.2197  0.1218
  106OSM    HNF10824   1.984   4.223  10.115 -0.1710  0.5171 -1.8327
  106OSM    C2S10825   2.125   4.170  10.250  0.5802  0.7161 -0.0552
  106OSM    H2S10826   2.233   4.143  10.243  0.0302 -1.9008  1.1305
  106OSM    C3S10827   2.047   4.058  10.313  0.0826  0.8086  0.1361
  106OSM    H3S10828   1.944   4.100  10.322 -0.2224  0.2715 -0.7167
  106OSM     O310829   2.071   4.021  10.454 -0.1396 -0.1519 -0.1752
  106OSM    HO310830   2.119   4.100  10.478 -1.1280  0.4882 -0.2610
  106OSM    C4S10831   2.049   3.932  10.229  0.0541 -0.1295  0.0760
  106OSM    H4S10832   1.961   3.916  10.166  0.7311 -0.3769 -0.8032
  106OSM    C5S10833   2.147   3.836  10.234 -0.0245 -0.2340  0.1861
  106OSM    H5S10834   2.232   3.842  10.305  0.3807  1.5594 -0.4186
  106OSM    C6S10835   2.152   3.702  10.155  0.0100  0.7499 -0.2543
  106OSM    H6S10836   2.049   3.678  10.120 -0.1812  0.8851  0.2008
  106OSM    H6T10837   2.183   3.620  10.224  1.2849  1.2846 -0.1763
  106OSM    C7S10838   2.259   3.706  10.045  0.3300 -0.2307 -0.1463
  106OSM    H7S10839   2.289   3.607  10.005 -1.2222 -0.1568 -1.5588
  106OSM    H7T10840   2.358   3.743  10.078 -0.1717  1.7890 -0.8059
  106OSM    C8S10841   2.217   3.783   9.917  0.3151  0.4771  0.0638
  106OSM    H8S10842   2.218   3.893   9.928  2.0578  0.4189  0.5845
  106OSM    H8T10843   2.111   3.756   9.898  0.9356 -1.3530 -0.9212
  106OSM    C9S10844   2.297   3.742   9.786 -0.8152  0.0386  0.1883
  106OSM    H9S10845   2.304   3.633   9.768  3.0834  0.4790 -1.5998
  106OSM    H9T10846   2.404   3.763   9.811 -1.1962  0.5934  1.4048
  106OSM   C10S10847   2.249   3.806   9.654 -0.7339  0.4155 -0.0548
  106OSM   H10S10848   2.256   3.916   9.671  2.0452  0.1242  1.1056
  106OSM   H10T10849   2.141   3.785   9.643 -0.4372 -2.0622  1.3194
  106OSM   C11S10850   2.322   3.774   9.525 -0.2794  0.1079 -0.0039
  106OSM   H11S10851   2.431   3.768   9.546 -0.3168 -0.8075 -0.0749
  106OSM   H11T10852   2.298   3.850   9.448 -0.9088  0.6094  0.6724
  106OSM   C12S10853   2.282   3.633   9.470 -0.4760  0.2958 -0.1138
  106OSM   H12S10854   2.174   3.618   9.449 -0.1952 -0.7280 -0.8710
  106OSM   H12T10855   2.319   3.565   9.549 -0.6791  0.2717 -0.0381
  106OSM   C13S10856   2.372   3.600   9.349 -0.2476  0.5812 -0.1564
  106OSM   H13S10857   2.472   3.567   9.385 -0.1647  1.9932  0.9193
  106OSM   H13T10858   2.382   3.687   9.280  0.0656 -0.0759 -0.9543
  106OSM   C14S10859   2.327   3.488   9.263  0.4106  0.3607 -0.1336
  106OSM   H14S10860   2.317   3.392   9.317  0.8438 -0.6409 -1.7954
  106OSM   H14T10861   2.398   3.464   9.181  1.7840 -1.5324  1.5731
  106OSM   C15S10862   2.203   3.517   9.184 -0.2475  0.2913  0.2209
  106OSM   H15S10863   2.213   3.606   9.118  1.5793 -0.1546 -0.1194
  106OSM   H15T10864   2.125   3.545   9.258 -1.0500  2.1716 -1.2967
  106OSM   C16S10865   2.167   3.397   9.098  0.5466 -0.6573 -0.3222
  106OSM   H16S10866   2.148   3.319   9.174 -1.0039  1.2405  1.3069
  106OSM   H16T10867   2.255   3.370   9.037  0.8628 -0.1792 -0.0800
  106OSM   C17S10868   2.051   3.430   9.005 -0.2844 -0.2297 -0.1478
  106OSM   H17S10869   2.077   3.517   8.941  2.1197 -0.2475  0.7721
  106OSM   H17T10870   1.968   3.470   9.066  1.3274  0.6192  1.5304
  106OSM   C18S10871   2.005   3.312   8.916 -0.3228  0.2981 -0.0737
  106OSM   H18S10872   1.989   3.221   8.977 -2.1653  1.4856  1.2510
  106OSM   H18T10873   2.080   3.295   8.836 -1.4041 -0.3403 -0.9458
  106OSM   H18U10874   1.914   3.350   8.866 -0.4658  2.0445  1.4248
  106OSM    C1F10875   2.159   4.248  10.021 -0.5253  0.0168  0.0128
  106OSM     OF10876   2.280   4.254  10.029 -0.2276  0.0786 -0.2018
  106OSM    C2F10877   2.079   4.301   9.895 -0.3575  0.0517  0.3255
  106OSM    H2F10878   2.092   4.411   9.895  0.7195 -0.0714  0.0816
  106OSM    H2G10879   1.969   4.291   9.911 -0.3612  1.1155  1.0173
  106OSM    C3F10880   2.124   4.248   9.756  0.1350 -0.3296 -0.1458
  106OSM    H3F10881   2.130   4.137   9.758 -1.3537 -0.4283 -0.3728
  106OSM    H3G10882   2.225   4.292   9.748 -0.8691  1.8831 -1.1474
  106OSM    C4F10883   2.036   4.315   9.646 -0.1409 -0.0956  0.2450
  106OSM    H4F10884   2.020   4.421   9.674  0.0586  0.4809 -1.7622
  106OSM    H4G10885   1.937   4.263   9.641  0.2869 -1.0501  1.4920
  106OSM    C5F10886   2.097   4.305   9.511  0.1725 -0.1010 -0.3006
  106OSM    H5F10887   2.091   4.201   9.474  2.2115 -0.0260 -0.9118
  106OSM    H5G10888   2.202   4.338   9.492  0.1451  0.1066 -0.0946
  106OSM    C6F10889   2.004   4.391   9.419  0.2537  0.4042  0.2407
  106OSM    H6F10890   2.045   4.493   9.436 -0.2090  0.7475 -0.6608
  106OSM    H6G10891   1.897   4.375   9.444 -0.5684  3.3610 -1.1935
  106OSM    C7F10892   2.008   4.350   9.271 -0.5610 -0.1042 -0.0996
  106OSM    H7F10893   1.993   4.242   9.250 -0.9732  0.4442 -2.8228
  106OSM    H7G10894   2.112   4.355   9.232  0.4685 -1.0256  2.4131
  106OSM    C8F10895   1.920   4.438   9.180 -0.0404 -0.0112  0.6872
  106OSM    H8F10896   1.953   4.432   9.074 -0.9058  0.9546  0.3649
  106OSM    H8G10897   1.936   4.544   9.207 -0.0325 -0.6057  3.1158
  106OSM    C9F10898   1.769   4.395   9.192  0.4826 -0.0959  0.1048
  106OSM    H9F10899   1.724   4.430   9.286  0.9577  0.6172  0.0708
  106OSM   C10F10900   1.698   4.330   9.101 -0.9759 -0.4282  0.5937
  106OSM   H10F10901   1.594   4.301   9.124 -0.6301 -1.8884  0.3629
  106OSM   C11F10902   1.748   4.281   8.965 -0.3759 -1.1419 -1.1545
  106OSM   H11F10903   1.815   4.193   8.974  0.8614 -0.1104 -0.1352
  106OSM   H11G10904   1.809   4.364   8.924 -0.7759  0.4423  1.3047
  106OSM   C12F10905   1.627   4.253   8.863 -0.2006  0.2032  0.0601
  106OSM   H12F10906   1.667   4.260   8.760  0.4887 -1.1601  0.2201
  106OSM   H12G10907   1.558   4.334   8.893 -1.8706 -1.3551  0.5641
  106OSM   C13F10908   1.566   4.116   8.886  0.8100  0.1437  0.3654
  106OSM   H13F10909   1.532   4.099   8.991 -2.6679  0.3152 -0.6536
  106OSM   H13G10910   1.638   4.038   8.855  0.0807 -0.8639  1.1773
  106OSM   C14F10911   1.446   4.095   8.789 -0.7453 -1.0972 -0.5225
  106OSM   H14F10912   1.471   4.130   8.687  1.3681  1.0544  0.6981
  106OSM   H14G10913   1.369   4.168   8.820  1.5230  0.4771  1.5936
  106OSM   C15F10914   1.396   3.951   8.800 -0.4101 -0.1400  0.2101
  106OSM   H15F10915   1.285   3.948   8.794 -0.5603  4.0415 -0.7828
  106OSM   H15G10916   1.431   3.912   8.898  0.0192 -0.0672  0.0872
  106OSM   C16F10917   1.461   3.868   8.697  0.0794  0.7032  0.1471
  106OSM   H16F10918   1.572   3.872   8.705  0.0630 -0.1645  1.0280
  106OSM   H16G10919   1.428   3.882   8.592  1.8995 -0.7907 -0.6429
  106OSM   C17F10920   1.435   3.720   8.723 -0.1921 -0.6633  0.2343
  106OSM   H17F10921   1.457   3.699   8.830 -0.6845 -0.1272  0.4459
  106OSM   H17G10922   1.504   3.669   8.653  0.6359  2.1498 -1.0757
  106OSM   C18F10923   1.298   3.664   8.680  0.1467 -0.2086 -0.3814
  106OSM   H18F10924   1.214   3.700   8.743  0.0995  1.9023 -1.6340
  106OSM   H18G10925   1.295   3.554   8.696 -0.0169 -0.1747 -0.1825
  106OSM   H18H10926   1.283   3.689   8.573  1.6814  0.0090 -0.5678
  107OSM      N10927   2.851   2.324  11.368  0.4182 -0.7115  0.4974
  107OSM    C1510928   2.817   2.462  11.319  0.1798  0.0990 -0.4501
  107OSM   H15A10929   2.750   2.462  11.234 -1.8168 -1.4680  1.0733
  107OSM   H15B10930   2.907   2.511  11.284  0.9706 -2.5299 -2.1994
  107OSM   H15C10931   2.769   2.527  11.391 -0.8714 -0.2600 -0.8194
  107OSM    C1410932   2.954   2.343  11.473 -0.3402 -1.2752  0.2205
  107OSM   H14A10933   2.979   2.254  11.528 -0.0666 -0.7681  0.9161
  107OSM   H14B10934   2.913   2.414  11.544  2.2083  1.7850 -1.2168
  107OSM   H14C10935   3.050   2.378  11.436 -0.5349  0.6065  1.4364
  107OSM    C1310936   2.738   2.243  11.422 -0.5115  0.9826 -0.3598
  107OSM   H13A10937   2.680   2.310  11.484 -1.6422  0.4755 -0.8526
  107OSM   H13B10938   2.761   2.152  11.475 -0.4036  0.5459 -1.1522
  107OSM   H13C10939   2.665   2.227  11.343  1.4423 -0.7255 -1.8675
  107OSM    C1210940   2.910   2.245  11.256 -0.1576 -0.0084  0.3518
  107OSM   H12A10941   2.947   2.158  11.307 -2.9954 -0.6212  1.4832
  107OSM   H12B10942   2.990   2.292  11.201 -0.6014 -0.3309 -0.5898
  107OSM    C1110943   2.814   2.189  11.141  0.5384  0.1629 -0.1542
  107OSM   H11A10944   2.742   2.118  11.188 -1.0631  2.0239  0.2788
  107OSM   H11B10945   2.877   2.129  11.073  1.4621  1.9988 -0.9553
  107OSM      P10946   2.618   2.244  10.994  0.0741 -0.0020 -0.1332
  107OSM    O1310947   2.522   2.174  11.081 -0.4225 -0.4191 -0.8231
  107OSM    O1410948   2.568   2.347  10.904  0.0233  0.4665 -0.5391
  107OSM    O1110949   2.663   2.124  10.907 -0.0657 -0.0289 -0.7760
  107OSM    O1210950   2.743   2.292  11.074 -0.2102  0.3220 -0.1212
  107OSM    C1S10951   2.587   2.074  10.797  0.6087  0.0185  0.5462
  107OSM    H1S10952   2.497   2.134  10.771  1.8340  1.7888  0.2515
  107OSM    H1T10953   2.562   1.967  10.814  1.1895 -0.1258  0.4995
  107OSM     NF10954   2.601   2.019  10.548 -0.0910  0.3576 -0.5213
  107OSM    HNF10955   2.599   1.920  10.540  1.7252  0.4090 -1.7357
  107OSM    C2S10956   2.678   2.069  10.662 -0.3721  0.7725  0.5364
  107OSM    H2S10957   2.730   2.163  10.634  3.7161 -0.5637  3.1675
  107OSM    C3S10958   2.809   1.985  10.687  0.1775  0.1375 -0.1985
  107OSM    H3S10959   2.781   1.882  10.716  1.3007 -0.3274 -0.7347
  107OSM     O310960   2.904   2.034  10.782 -0.5384  0.2897 -0.0138
  107OSM    HO310961   2.861   2.108  10.824 -0.6521  0.5922 -0.6557
  107OSM    C4S10962   2.898   1.977  10.562 -0.0165 -0.1351 -0.6591
  107OSM    H4S10963   2.993   2.031  10.570  1.0098 -1.8491 -0.9325
  107OSM    C5S10964   2.889   1.888  10.461  0.6426  0.0035 -0.1074
  107OSM    H5S10965   2.823   1.801  10.477  0.4117  0.1212 -0.4126
  107OSM    C6S10966   2.994   1.870  10.357  0.1542  0.1236  0.0126
  107OSM    H6S10967   3.046   1.772  10.365  0.4234  0.2361 -0.3663
  107OSM    H6T10968   3.074   1.946  10.367  1.7925 -1.3633 -1.3875
  107OSM    C7S10969   2.938   1.882  10.220 -0.2616  0.1916 -0.2200
  107OSM    H7S10970   2.883   1.978  10.205 -1.7821 -0.4270  1.2208
  107OSM    H7T10971   2.872   1.799  10.189 -0.9413 -0.1057  1.9643
  107OSM    C8S10972   3.054   1.881  10.120  0.2675 -0.3139  0.4683
  107OSM    H8S10973   3.117   1.794  10.146 -0.8932 -1.3989 -0.3085
  107OSM    H8T10974   3.113   1.973  10.142 -0.0716 -0.0367  0.2354
  107OSM    C9S10975   3.020   1.870   9.964 -0.1523  0.2074  0.3388
  107OSM    H9S10976   2.968   1.964   9.936  2.6148  2.1185  1.3223
  107OSM    H9T10977   2.950   1.788   9.940 -1.5268  0.9835  1.6097
  107OSM   C10S10978   3.144   1.873   9.869  0.2883  0.2385  0.8032
  107OSM   H10S10979   3.137   1.794   9.791 -0.8607 -0.0157  1.1567
  107OSM   H10T10980   3.231   1.839   9.930 -0.4298 -1.4614  0.8935
  107OSM   C11S10981   3.167   2.004   9.795  0.0091  0.5100 -0.2425
  107OSM   H11S10982   3.200   2.072   9.877  1.9267  0.5609 -1.0518
  107OSM   H11T10983   3.069   2.038   9.755  0.1559  0.5417 -0.5793
  107OSM   C12S10984   3.279   2.015   9.694  0.0492 -0.4382  0.4467
  107OSM   H12S10985   3.374   2.000   9.751  0.6240 -2.1540 -0.9034
  107OSM   H12T10986   3.294   2.113   9.644  1.0809 -0.1272  1.3571
  107OSM   C13S10987   3.267   1.922   9.574  0.8543  1.6606  0.4588
  107OSM   H13S10988   3.166   1.937   9.530  1.0375  0.7511 -0.2876
  107OSM   H13T10989   3.269   1.822   9.621 -1.9201  1.9492  1.2897
  107OSM   C14S10990   3.372   1.944   9.460  0.5728 -0.1698 -0.0548
  107OSM   H14S10991   3.477   1.942   9.496 -0.0154 -2.2938  1.6453
  107OSM   H14T10992   3.355   2.046   9.420 -0.2710 -1.2876 -2.7081
  107OSM   C15S10993   3.372   1.853   9.339  1.3062 -0.6908  0.3301
  107OSM   H15S10994   3.271   1.848   9.292  0.7823  1.2378  1.1803
  107OSM   H15T10995   3.395   1.749   9.372  1.5384 -1.3224 -1.7589
  107OSM   C16S10996   3.477   1.895   9.241  0.2005  0.6663  1.0949
  107OSM   H16S10997   3.580   1.908   9.280  0.6917  1.7244 -0.4986
  107OSM   H16T10998   3.457   1.995   9.196 -2.2999 -0.0067  0.6121
  107OSM   C17S10999   3.475   1.808   9.121 -0.0149  0.1196  1.0938
  107OSM   H17S11000   3.377   1.810   9.069  1.2797  0.1153 -1.4228
  107OSM   H17T11001   3.495   1.703   9.149 -2.2956 -1.0611 -1.5102
  107OSM   C18S11002   3.592   1.852   9.032 -0.1480  0.3299  0.5547
  107OSM   H18S11003   3.574   1.799   8.936  1.9523  2.9177 -1.3598
  107OSM   H18T11004   3.686   1.808   9.072 -0.4015 -2.1564 -1.4543
  107OSM   H18U11005   3.600   1.962   9.016  1.0234 -0.0403 -1.6598
  107OSM    C1F11006   2.522   2.098  10.488  0.1384  0.4007  0.5049
  107OSM     OF11007   2.488   2.208  10.526  1.1738 -0.1669 -0.4118
  107OSM    C2F11008   2.464   2.038  10.364  0.3597 -0.4538 -0.8777
  107OSM    H2F11009   2.381   2.104  10.331  0.0498  0.3360  1.3914
  107OSM    H2G11010   2.428   1.935  10.383  0.5718 -0.3455  0.1498
  107OSM    C3F11011   2.567   2.029  10.254  0.4257 -0.0200 -0.3072
  107OSM    H3F11012   2.655   1.970  10.287  0.2229 -0.1981 -0.0827
  107OSM    H3G11013   2.603   2.128  10.220 -0.6154  0.4507 -0.0505
  107OSM    C4F11014   2.499   1.973  10.120  0.4809 -0.0530 -0.4745
  107OSM    H4F11015   2.414   2.044  10.108  1.1710  1.0621  1.0758
  107OSM    H4G11016   2.462   1.875  10.155  0.9279 -0.2454 -0.5418
  107OSM    C5F11017   2.591   1.967  10.001  0.5909 -0.1441 -0.1749
  107OSM    H5F11018   2.678   1.898  10.012  0.3612 -0.4002  0.0638
  107OSM    H5G11019   2.631   2.069   9.990 -1.7445  1.1306  2.3770
  107OSM    C6F11020   2.490   1.940   9.884 -0.1395 -0.3969  0.4174
  107OSM    H6F11021   2.403   2.008   9.891  0.5498  0.4539  0.9205
  107OSM    H6G11022   2.453   1.836   9.892  0.2395 -0.5227  0.5498
  107OSM    C7F11023   2.557   1.966   9.748 -0.5604  0.1231 -0.4548
  107OSM    H7F11024   2.613   2.062   9.758  0.1177 -0.3656  0.4541
  107OSM    H7G11025   2.474   1.979   9.675 -0.9675  0.4926  0.0772
  107OSM    C8F11026   2.646   1.845   9.700  0.5118  0.3019  0.5517
  107OSM    H8F11027   2.578   1.761   9.673 -2.1253  1.9160  1.9135
  107OSM    H8G11028   2.693   1.806   9.793  1.1036  2.2505  1.0817
  107OSM    C9F11029   2.744   1.907   9.595 -0.2747  0.8250  0.1207
  107OSM    H9F11030   2.795   2.001   9.623  1.2616  0.1659 -0.4151
  107OSM   C10F11031   2.778   1.853   9.473 -0.1157 -0.3550  0.0163
  107OSM   H10F11032   2.853   1.901   9.409  0.8919 -1.2326  0.5314
  107OSM   C11F11033   2.729   1.726   9.418  0.3217 -0.3663 -0.0251
  107OSM   H11F11034   2.619   1.739   9.415  0.6333  3.4129  2.0021
  107OSM   H11G11035   2.743   1.640   9.488 -0.3255 -2.1931 -2.1044
  107OSM   C12F11036   2.769   1.690   9.271 -0.8362 -1.2001  0.0680
  107OSM   H12F11037   2.690   1.615   9.247 -0.7857 -0.8618 -1.2199
  107OSM   H12G11038   2.870   1.643   9.266  0.0770  0.8028 -0.8516
  107OSM   C13F11039   2.770   1.798   9.158  0.1378  0.3469  0.3854
  107OSM   H13F11040   2.819   1.891   9.192  0.3199  0.6782 -0.7759
  107OSM   H13G11041   2.666   1.826   9.132 -0.7345 -0.8676  2.4332
  107OSM   C14F11042   2.830   1.746   9.024  0.9265  0.0848  0.2250
  107OSM   H14F11043   2.777   1.652   9.000  0.6723  0.0956  0.7441
  107OSM   H14G11044   2.939   1.734   9.038  0.9031 -2.2078 -1.4491
  107OSM   C15F11045   2.818   1.851   8.911 -0.0575 -0.1410  0.1103
  107OSM   H15F11046   2.862   1.949   8.941 -3.6819  1.9843 -1.1605
  107OSM   H15G11047   2.709   1.872   8.911 -0.3909 -1.6812 -2.8453
  107OSM   C16F11048   2.859   1.808   8.768 -0.3038  0.0724  0.2894
  107OSM   H16F11049   2.802   1.716   8.742 -0.6002  0.3591 -0.0910
  107OSM   H16G11050   2.966   1.782   8.772 -0.1862  0.5707  0.4194
  107OSM   C17F11051   2.835   1.908   8.658  0.2971 -0.2674 -0.2571
  107OSM   H17F11052   2.915   1.985   8.664 -1.6236  1.7192  0.6680
  107OSM   H17G11053   2.735   1.954   8.674  0.0009 -0.4294 -1.5627
  107OSM   C18F11054   2.841   1.844   8.521 -0.3223 -0.1238  0.0112
  107OSM   H18F11055   2.854   1.915   8.436  1.9741  1.5264  1.6718
  107OSM   H18G11056   2.749   1.785   8.498 -0.5974  0.6477 -0.9336
  107OSM   H18H11057   2.923   1.770   8.517 -0.0066  0.2542 -0.7370
  108OSM      N11058   0.220   5.751  11.229 -0.1736  0.2075  0.3531
  108OSM    C1511059   0.186   5.620  11.285 -0.0492 -0.1800  0.7726
  108OSM   H15A11060   0.079   5.602  11.276  0.0465 -0.2333 -0.3452
  108OSM   H15B11061   0.214   5.610  11.389 -1.8857 -0.7939  1.2327
  108OSM   H15C11062   0.234   5.544  11.224 -0.5982 -0.6737  0.9480
  108OSM    C1411063   0.122   5.850  11.284  0.0308 -0.5187 -0.0500
  108OSM   H14A11064   0.025   5.820  11.246 -0.4595  2.3613 -1.2774
  108OSM   H14B11065   0.133   5.947  11.236 -1.9177 -1.2963 -2.1611
  108OSM   H14C11066   0.134   5.850  11.391 -2.3646  0.8241  0.2711
  108OSM    C1311067   0.363   5.785  11.256  0.4271  0.7431 -0.0988
  108OSM   H13A11068   0.429   5.717  11.204  0.1270  1.7556 -1.8430
  108OSM   H13B11069   0.395   5.790  11.359 -1.9100  0.4599  0.6772
  108OSM   H13C11070   0.388   5.885  11.227  0.7359  0.9105  0.7314
  108OSM    C1211071   0.196   5.755  11.080 -0.1129  0.0840 -0.0783
  108OSM   H12A11072   0.268   5.689  11.032  0.5858 -0.6265  1.9118
  108OSM   H12B11073   0.218   5.857  11.049  2.8467 -0.1611  1.0075
  108OSM    C1111074   0.061   5.721  11.015  0.0782 -0.2393  0.5130
  108OSM   H11A11075   0.015   5.637  11.070  0.0926 -0.3014  0.4296
  108OSM   H11B11076   0.081   5.697  10.908  0.1891  0.5474  0.3487
  108OSM      P11077   0.001   5.978  10.948  0.1843 -0.0035 -0.2318
  108OSM    O1311078  -0.098   6.080  10.978  0.4049 -0.2583 -0.6008
  108OSM    O1411079   0.134   6.017  10.972 -0.2703  0.0367  0.2551
  108OSM    O1111080  -0.014   5.934  10.794  0.2447 -0.1064  0.1655
  108OSM    O1211081  -0.027   5.837  11.017 -0.1630 -0.4226 -0.8681
  108OSM    C1S11082  -0.139   5.875  10.752  1.2000  0.6975 -0.0975
  108OSM    H1S11083  -0.227   5.942  10.764 -1.6048 -2.6562 -1.0971
  108OSM    H1T11084  -0.151   5.779  10.807  5.1044 -0.1657 -0.6190
  108OSM     NF11085  -0.272   5.813  10.549  0.7586 -0.4308 -0.0852
  108OSM    HNF11086  -0.313   5.724  10.569 -1.1259  0.6346  0.9626
  108OSM    C2S11087  -0.138   5.840  10.594  0.5107 -0.4961 -0.3298
  108OSM    H2S11088  -0.097   5.929  10.541 -1.5263 -0.4869 -1.9746
  108OSM    C3S11089  -0.043   5.717  10.572  0.6211 -0.1144  0.6470
  108OSM    H3S11090  -0.057   5.630  10.640 -3.2037 -1.0166 -1.1635
  108OSM     O311091   0.093   5.749  10.596 -0.2148 -0.1390 -0.5628
  108OSM    HO311092   0.090   5.824  10.656 -0.1129 -0.0393 -0.6819
  108OSM    C4S11093  -0.046   5.662  10.430 -0.6598  0.2990 -0.0068
  108OSM    H4S11094   0.006   5.728  10.359  0.7460  0.2824  0.9809
  108OSM    C5S11095  -0.083   5.540  10.391 -0.7727 -0.3582  0.3834
  108OSM    H5S11096  -0.118   5.462  10.460  1.8254 -2.3974 -0.5092
  108OSM    C6S11097  -0.077   5.496  10.246 -0.2523 -0.7271  0.2515
  108OSM    H6S11098  -0.084   5.385  10.249  0.6567 -0.7945  0.0600
  108OSM    H6T11099   0.026   5.516  10.211 -0.6871 -1.6724 -1.6637
  108OSM    C7S11100  -0.187   5.553  10.151  0.4665  0.3040 -0.2800
  108OSM    H7S11101  -0.152   5.658  10.139  0.7865  0.4775  2.0225
  108OSM    H7T11102  -0.285   5.539  10.200  1.0971  1.0049  1.2135
  108OSM    C8S11103  -0.186   5.501  10.005  0.3107 -0.0562 -0.4446
  108OSM    H8S11104  -0.190   5.392   9.984  0.9097 -0.1180 -0.2612
  108OSM    H8T11105  -0.089   5.532   9.960 -0.5024  2.9640 -0.1873
  108OSM    C9S11106  -0.295   5.572   9.932  0.4953  0.0298 -0.1564
  108OSM    H9S11107  -0.276   5.681   9.943  2.1418 -0.2643  0.1571
  108OSM    H9T11108  -0.397   5.549   9.969 -0.9777  3.8457 -1.6366
  108OSM   C10S11109  -0.299   5.525   9.783 -0.3852 -0.4658 -0.2126
  108OSM   H10S11110  -0.201   5.494   9.741  0.8168  0.8712  1.5304
  108OSM   H10T11111  -0.338   5.612   9.726  0.4291 -0.4879 -0.8140
  108OSM   C11S11112  -0.399   5.416   9.753  0.1904 -0.5646  0.5361
  108OSM   H11S11113  -0.502   5.437   9.788 -0.1750 -1.5213  0.0621
  108OSM   H11T11114  -0.366   5.317   9.792  1.0111 -1.3649 -2.0705
  108OSM   C12S11115  -0.420   5.402   9.603 -0.4989 -1.1230  0.4084
  108OSM   H12S11116  -0.364   5.312   9.571  1.1761 -0.5566  1.6849
  108OSM   H12T11117  -0.377   5.484   9.541 -0.4501 -1.5630 -0.1438
  108OSM   C13S11118  -0.568   5.375   9.562 -0.7146 -0.1909 -0.2836
  108OSM   H13S11119  -0.627   5.462   9.597 -3.3240 -1.4716 -1.3718
  108OSM   H13T11120  -0.593   5.285   9.622  2.6275 -0.8474  0.2778
  108OSM   C14S11121  -0.595   5.358   9.407 -0.0202 -0.4156 -0.8885
  108OSM   H14S11122  -0.703   5.336   9.397 -0.6503  2.4626 -0.9743
  108OSM   H14T11123  -0.541   5.270   9.366  1.0504  0.6161 -1.7423
  108OSM   C15S11124  -0.566   5.477   9.321 -0.0483 -0.7381 -1.1102
  108OSM   H15S11125  -0.466   5.523   9.338  0.4028 -2.2017  0.4049
  108OSM   H15T11126  -0.644   5.546   9.361  0.9081 -0.3072  0.0580
  108OSM   C16S11127  -0.579   5.443   9.176  0.0431  0.1808  0.7270
  108OSM   H16S11128  -0.677   5.399   9.150  1.7105 -1.3944 -3.2249
  108OSM   H16T11129  -0.500   5.374   9.140  0.3336 -0.4399  2.4812
  108OSM   C17S11130  -0.566   5.574   9.083  0.2174  0.4476  0.1226
  108OSM   H17S11131  -0.471   5.624   9.113 -0.1944  1.2037  0.1623
  108OSM   H17T11132  -0.639   5.652   9.111  0.1192  0.4319 -0.0903
  108OSM   C18S11133  -0.574   5.567   8.935  0.5409  0.6064  0.3093
  108OSM   H18S11134  -0.522   5.473   8.907  0.9156 -0.0213  3.0590
  108OSM   H18T11135  -0.527   5.657   8.889 -0.9975  2.1639  1.7145
  108OSM   H18U11136  -0.678   5.557   8.899  0.2007  2.2080  0.7772
  108OSM    C1F11137  -0.356   5.907  10.511  0.1156  0.8509  0.2149
  108OSM     OF11138  -0.323   6.026  10.511 -0.2111  0.1007  0.2505
  108OSM    C2F11139  -0.484   5.864  10.459  0.1328  0.4533 -0.6236
  108OSM    H2F11140  -0.558   5.821  10.530 -1.2725 -0.6848 -2.6900
  108OSM    H2G11141  -0.465   5.783  10.385 -2.5026 -0.8678  0.0818
  108OSM    C3F11142  -0.561   5.972  10.374 -0.4801 -0.1309  0.2783
  108OSM    H3F11143  -0.541   6.074  10.415 -0.3530  0.7367 -1.9060
  108OSM    H3G11144  -0.671   5.958  10.361 -0.6340  0.1870  1.1914
  108OSM    C4F11145  -0.517   5.988  10.231  0.0793  0.7379  0.4315
  108OSM    H4F11146  -0.407   5.974  10.227 -0.3326 -2.2225 -1.6513
  108OSM    H4G11147  -0.531   6.089  10.187  2.5950  0.7273 -0.4686
  108OSM    C5F11148  -0.591   5.887  10.131 -0.2158 -0.4073 -0.2522
  108OSM    H5F11149  -0.697   5.920  10.124 -0.4453 -1.7198 -3.6683
  108OSM    H5G11150  -0.573   5.785  10.170 -0.6084 -0.1290  0.6793
  108OSM    C6F11151  -0.541   5.889   9.989 -0.2426 -1.0417  1.0300
  108OSM    H6F11152  -0.430   5.880   9.985  0.0256  0.5779  3.3790
  108OSM    H6G11153  -0.556   5.991   9.948 -1.7424 -2.2060 -1.3965
  108OSM    C7F11154  -0.615   5.791   9.903 -0.0559  0.7327 -0.1618
  108OSM    H7F11155  -0.724   5.805   9.920  0.4157  1.1450  2.5960
  108OSM    H7G11156  -0.588   5.691   9.942 -0.4006  1.4792  2.0590
  108OSM    C8F11157  -0.564   5.796   9.754 -0.0726 -0.2007  0.2811
  108OSM    H8F11158  -0.593   5.698   9.710 -0.7615  0.0116  0.2546
  108OSM    H8G11159  -0.454   5.805   9.754 -0.1427  1.1324 -2.3787
  108OSM    C9F11160  -0.647   5.912   9.693 -0.3589 -0.3152 -0.1233
  108OSM    H9F11161  -0.660   6.004   9.752  1.6747  0.6449 -1.1315
  108OSM   C10F11162  -0.696   5.915   9.558  0.4440 -0.0064  0.1456
  108OSM   H10F11163  -0.751   6.004   9.525  0.2217 -0.2647 -0.1744
  108OSM   C11F11164  -0.688   5.814   9.449 -0.5043  1.1064  0.4793
  108OSM   H11F11165  -0.782   5.794   9.393 -0.4680  0.6150  0.5957
  108OSM   H11G11166  -0.651   5.720   9.496 -0.3650  0.1417 -1.4998
  108OSM   C12F11167  -0.576   5.844   9.345 -0.2713  0.3588  0.0006
  108OSM   H12F11168  -0.580   5.751   9.285 -1.9499  0.6139 -0.3275
  108OSM   H12G11169  -0.476   5.864   9.388  0.3107 -1.3220 -0.5560
  108OSM   C13F11170  -0.617   5.959   9.256 -0.2730 -1.1529  0.2661
  108OSM   H13F11171  -0.592   6.057   9.302 -1.5855  0.7614 -2.9067
  108OSM   H13G11172  -0.726   5.954   9.233 -0.2460 -0.9560  0.0990
  108OSM   C14F11173  -0.551   5.951   9.115 -0.0692 -0.2628 -0.6348
  108OSM   H14F11174  -0.586   6.039   9.057 -0.3642  0.8863  1.2679
  108OSM   H14G11175  -0.601   5.867   9.061 -1.6780  0.1150  0.2305
  108OSM   C15F11176  -0.399   5.932   9.116 -0.0631 -0.6600  0.1699
  108OSM   H15F11177  -0.384   5.845   9.183  2.7559 -0.7759 -0.5373
  108OSM   H15G11178  -0.353   6.017   9.171 -2.1184  0.2421  0.5248
  108OSM   C16F11179  -0.327   5.914   8.983 -0.2419  0.7924 -0.5476
  108OSM   H16F11180  -0.363   5.819   8.939 -1.9441  0.3473  1.7201
  108OSM   H16G11181  -0.218   5.897   8.995 -0.3893  0.3066  0.1441
  108OSM   C17F11182  -0.331   6.034   8.886 -0.2140  0.1815 -0.1033
  108OSM   H17F11183  -0.291   6.122   8.941 -0.0342 -0.9143  1.5824
  108OSM   H17G11184  -0.436   6.053   8.858 -0.3015 -0.6708 -0.3831
  108OSM   C18F11185  -0.252   6.011   8.754 -0.0190 -0.0920  0.0787
  108OSM   H18F11186  -0.219   6.114   8.728 -0.0572 -0.1677 -0.2722
  108OSM   H18G11187  -0.324   5.983   8.675  0.5425  0.0883 -0.5011
  108OSM   H18H11188  -0.156   5.955   8.766  0.8538  1.4179  0.3155
  109OSM      N11189   0.609   0.184  10.840  0.4605  0.1253 -0.4346
  109OSM    C1511190   0.663   0.116  10.972 -0.0619 -0.5658  0.2071
  109OSM   H15A11191   0.694   0.016  10.947  1.6768 -0.0093  0.0430
  109OSM   H15B11192   0.590   0.113  11.052  0.8110  0.3512  1.0524
  109OSM   H15C11193   0.751   0.172  11.001 -0.0172  0.3637 -1.6298
  109OSM    C1411194   0.535   0.308  10.873 -0.3563 -0.5712 -0.9024
  109OSM   H14A11195   0.439   0.279  10.915 -0.7695  0.8945 -0.8249
  109OSM   H14B11196   0.528   0.375  10.788  2.4406 -0.4373 -1.0651
  109OSM   H14C11197   0.584   0.362  10.952  0.4248 -1.5020 -0.7404
  109OSM    C1311198   0.724   0.224  10.749  0.0960  0.3829 -0.3084
  109OSM   H13A11199   0.780   0.139  10.713  1.4802  0.3124  1.9059
  109OSM   H13B11200   0.788   0.297  10.797 -1.4079 -0.3118  2.8926
  109OSM   H13C11201   0.685   0.279  10.664 -1.0609  1.2654  0.7643
  109OSM    C1211202   0.513   0.089  10.772 -0.6572  1.4556 -0.7836
  109OSM   H12A11203   0.567   0.014  10.716 -1.9136 -0.9777  1.1807
  109OSM   H12B11204   0.452   0.149  10.707 -2.0864  0.9608  0.0756
  109OSM    C1111205   0.407   0.014  10.861  0.4070 -0.0317 -0.5585
  109OSM   H11A11206   0.461  -0.049  10.936 -0.1929  0.0336 -0.0656
  109OSM   H11B11207   0.369  -0.056  10.784  0.7510 -0.8477  0.0039
  109OSM      P11208   0.179   0.142  10.836  0.1317  0.0206 -0.0381
  109OSM    O1311209   0.070   0.050  10.863  0.0700 -0.2313 -0.6638
  109OSM    O1411210   0.162   0.275  10.882  0.4997 -0.2111  0.0441
  109OSM    O1111211   0.231   0.127  10.691 -0.2477  0.4321 -0.7207
  109OSM    O1211212   0.307   0.098  10.918 -0.4611  0.5606  0.2491
  109OSM    C1S11213   0.240   0.244  10.609  0.3309 -0.3428 -0.1539
  109OSM    H1S11214   0.328   0.307  10.635  1.0863 -1.6454  0.5152
  109OSM    H1T11215   0.145   0.302  10.613  0.9985  0.6966  1.2768
  109OSM     NF11216   0.332   0.310  10.389  0.0297  0.6606 -0.2295
  109OSM    HNF11217   0.279   0.387  10.352  0.1214  1.1274  0.6127
  109OSM    C2S11218   0.255   0.211  10.459  0.0941 -0.1219 -0.7182
  109OSM    H2S11219   0.319   0.120  10.452  0.4182  0.1865 -1.8082
  109OSM    C3S11220   0.121   0.188  10.398 -0.0561 -0.3455  0.8207
  109OSM    H3S11221   0.062   0.281  10.400  1.9341  0.9746 -0.0966
  109OSM     O311222   0.044   0.083  10.459 -0.1530 -0.5660 -0.0130
  109OSM    HO311223   0.095   0.061  10.537  0.5216  1.4513  0.1438
  109OSM    C4S11224   0.127   0.152  10.249 -0.4843 -0.6144  0.6586
  109OSM    H4S11225   0.151   0.046  10.231 -0.7286 -0.9619  2.3384
  109OSM    C5S11226   0.090   0.225  10.144  0.3652 -1.1880  0.0021
  109OSM    H5S11227   0.049   0.325  10.164  2.1547 -0.5242  0.4644
  109OSM    C6S11228   0.095   0.173   9.996  0.3733 -0.9075  0.4685
  109OSM    H6S11229   0.005   0.197   9.935  1.1880  0.1500 -0.3360
  109OSM    H6T11230   0.099   0.062   9.988  0.5856 -0.8955  0.3974
  109OSM    C7S11231   0.208   0.234   9.914 -0.0925  0.2506 -0.5166
  109OSM    H7S11232   0.303   0.220   9.970 -0.5552 -1.0880 -0.0555
  109OSM    H7T11233   0.186   0.343   9.914 -1.5208 -0.0343 -0.1283
  109OSM    C8S11234   0.227   0.177   9.772  0.7973  0.2923 -0.4328
  109OSM    H8S11235   0.197   0.070   9.767 -1.4407  0.8236  1.2311
  109OSM    H8T11236   0.338   0.179   9.760  0.7739  1.9759 -0.5187
  109OSM    C9S11237   0.159   0.253   9.656 -0.0366  0.5001  0.8715
  109OSM    H9S11238   0.173   0.363   9.660  1.4556  0.3133  1.0367
  109OSM    H9T11239   0.048   0.249   9.660  0.0027 -1.1777  0.7059
  109OSM   C10S11240   0.211   0.210   9.513 -0.6480 -0.4582 -0.3080
  109OSM   H10S11241   0.219   0.099   9.513  0.1787 -0.3981 -0.6979
  109OSM   H10T11242   0.312   0.251   9.491 -1.0974  2.0323  2.0413
  109OSM   C11S11243   0.107   0.238   9.399  0.3285  0.9979 -0.2003
  109OSM   H11S11244   0.099   0.348   9.390 -2.0424  0.6849 -2.2015
  109OSM   H11T11245   0.020   0.181   9.439  0.4201  1.9651  1.4272
  109OSM   C12S11246   0.165   0.190   9.260 -0.5163  0.4968 -0.0732
  109OSM   H12S11247   0.214   0.091   9.265 -1.6019 -0.1329 -1.5525
  109OSM   H12T11248   0.244   0.257   9.220  0.9804 -1.0192  0.3123
  109OSM   C13S11249   0.047   0.178   9.161  0.3241  0.0766 -0.5083
  109OSM   H13S11250  -0.028   0.259   9.168 -0.7382 -0.8145 -1.4689
  109OSM   H13T11251  -0.001   0.089   9.206 -0.4528 -0.4107 -2.2787
  109OSM   C14S11252   0.077   0.137   9.018  0.7293  0.3747 -0.2852
  109OSM   H14S11253  -0.016   0.089   8.982  1.4948  0.3649 -2.3108
  109OSM   H14T11254   0.158   0.061   9.018 -0.8890 -1.4691 -3.4061
  109OSM   C15S11255   0.101   0.255   8.925 -0.6585  0.1865 -0.7491
  109OSM   H15S11256   0.173   0.326   8.970 -1.4672  1.8486 -2.0279
  109OSM   H15T11257   0.006   0.308   8.904  0.6174  1.7926 -2.6514
  109OSM   C16S11258   0.170   0.223   8.794 -0.0597  0.0546 -0.8093
  109OSM   H16S11259   0.116   0.135   8.754 -1.8138  0.2241  1.0818
  109OSM   H16T11260   0.274   0.201   8.825  0.4712  2.5504 -0.6499
  109OSM   C17S11261   0.173   0.336   8.696  0.4562 -0.9618  0.4933
  109OSM   H17S11262   0.078   0.393   8.702  0.4978 -0.4547 -2.5643
  109OSM   H17T11263   0.175   0.297   8.592  1.2336  1.2167 -0.3506
  109OSM   C18S11264   0.289   0.434   8.701 -0.0948 -0.1345 -0.2702
  109OSM   H18S11265   0.384   0.377   8.704  0.4577  0.8143  1.0787
  109OSM   H18T11266   0.284   0.475   8.804 -0.4481 -2.5306  0.7005
  109OSM   H18U11267   0.292   0.502   8.613 -0.2148 -0.1772 -0.3075
  109OSM    C1F11268   0.456   0.321  10.409 -0.0360 -0.3912  0.0234
  109OSM     OF11269   0.524   0.245  10.478 -0.3577  0.0724 -0.0951
  109OSM    C2F11270   0.519   0.444  10.346  0.7673  0.4353 -0.6023
  109OSM    H2F11271   0.575   0.512  10.413 -0.6540  0.7206  0.3303
  109OSM    H2G11272   0.440   0.511  10.307 -2.3610 -1.9952  1.2911
  109OSM    C3F11273   0.621   0.409  10.230 -0.1037 -0.2421 -0.0697
  109OSM    H3F11274   0.703   0.345  10.269  0.4392 -0.3164 -1.3023
  109OSM    H3G11275   0.671   0.502  10.194  1.3650 -1.6153 -1.6764
  109OSM    C4F11276   0.552   0.332  10.109 -0.0837  0.4048  0.2873
  109OSM    H4F11277   0.454   0.374  10.079  0.2921  1.4927  0.5378
  109OSM    H4G11278   0.525   0.225  10.123 -0.4279  0.5417  0.6727
  109OSM    C5F11279   0.638   0.351   9.982  0.2201  0.4606  0.1427
  109OSM    H5F11280   0.723   0.292  10.022 -1.3589 -1.3126  0.9642
  109OSM    H5G11281   0.674   0.450   9.947  0.3028  0.2629 -0.3234
  109OSM    C6F11282   0.583   0.267   9.866  0.0561  0.4344  0.1688
  109OSM    H6F11283   0.497   0.327   9.829  0.9883  1.0143 -1.0855
  109OSM    H6G11284   0.545   0.169   9.901 -1.7176  1.9083  2.5783
  109OSM    C7F11285   0.692   0.260   9.752  0.6940  0.6284 -0.7411
  109OSM    H7F11286   0.791   0.221   9.784 -0.9855 -1.0978  2.6790
  109OSM    H7G11287   0.705   0.363   9.712  0.7544  1.0504  0.3449
  109OSM    C8F11288   0.644   0.175   9.629  0.1972 -0.4633  0.3122
  109OSM    H8F11289   0.568   0.237   9.579  2.1477  0.7260 -1.2397
  109OSM    H8G11290   0.581   0.092   9.668 -0.5538  0.8182  1.8670
  109OSM    C9F11291   0.755   0.129   9.543  0.2608 -0.4705  0.1468
  109OSM    H9F11292   0.820   0.044   9.572 -0.3764 -1.5653 -1.5867
  109OSM   C10F11293   0.777   0.184   9.419  0.3334 -0.1216  0.6170
  109OSM   H10F11294   0.854   0.135   9.357  0.2423  0.6802 -0.1503
  109OSM   C11F11295   0.713   0.311   9.366  0.7808  0.4287 -0.0828
  109OSM   H11F11296   0.760   0.393   9.423 -0.9802  1.1618  0.3306
  109OSM   H11G11297   0.604   0.314   9.385  0.0622 -1.6245 -3.4836
  109OSM   C12F11298   0.742   0.343   9.213  0.0202  0.1469 -0.4908
  109OSM   H12F11299   0.850   0.355   9.189  0.8917 -1.0618  2.6234
  109OSM   H12G11300   0.690   0.438   9.189 -0.4234  0.1776  0.5700
  109OSM   C13F11301   0.693   0.231   9.118 -0.5750  0.4619  0.2893
  109OSM   H13F11302   0.759   0.142   9.130  1.0222  1.5325 -0.4913
  109OSM   H13G11303   0.720   0.276   9.020  0.4665 -0.3871  0.1730
  109OSM   C14F11304   0.549   0.202   9.121  0.1331 -0.1013 -0.5623
  109OSM   H14F11305   0.494   0.299   9.122  1.8070  0.8468  2.2975
  109OSM   H14G11306   0.509   0.160   9.216 -0.6548  0.1825 -0.7649
  109OSM   C15F11307   0.498   0.145   8.984  0.3385 -0.4407 -0.6090
  109OSM   H15F11308   0.495   0.225   8.906  1.2601 -0.8133 -1.0376
  109OSM   H15G11309   0.391   0.117   8.993 -0.5758  2.8246 -0.5179
  109OSM   C16F11310   0.579   0.023   8.931  0.5295  0.2198 -0.1669
  109OSM   H16F11311   0.582  -0.044   9.020  1.6542  2.6761  1.7280
  109OSM   H16G11312   0.686   0.040   8.907  0.7812  0.1422  0.8550
  109OSM   C17F11313   0.510  -0.046   8.812  0.0037  0.3846 -0.2040
  109OSM   H17F11314   0.504   0.019   8.721  1.4054 -1.8118 -1.9153
  109OSM   H17G11315   0.410  -0.078   8.848 -0.2591 -0.8507 -1.9596
  109OSM   C18F11316   0.573  -0.186   8.776 -0.1487  0.7823 -0.4684
  109OSM   H18F11317   0.679  -0.172   8.746 -0.2214  2.0078 -0.1810
  109OSM   H18G11318   0.530  -0.243   8.691  4.2190 -1.3599 -1.4031
  109OSM   H18H11319   0.573  -0.253   8.865 -1.8847  0.9695 -0.3002
  110OSM      N11320   1.971   6.630  10.781 -0.9838 -0.1338  0.1093
  110OSM    C1511321   1.923   6.550  10.895 -0.1037 -0.3107  0.1448
  110OSM   H15A11322   1.850   6.479  10.861  1.5551 -1.6130 -0.7124
  110OSM   H15B11323   1.889   6.601  10.985  0.2514  0.0699  0.0666
  110OSM   H15C11324   1.995   6.478  10.930  2.1599  2.5989  1.7149
  110OSM    C1411325   1.846   6.694  10.720  0.4932 -0.1128 -0.4661
  110OSM   H14A11326   1.790   6.736  10.802  0.7348 -2.0375  0.7256
  110OSM   H14B11327   1.786   6.626  10.663 -1.1860  0.7900  0.2019
  110OSM   H14C11328   1.868   6.780  10.659  2.4893 -0.0719  0.2676
  110OSM    C1311329   2.063   6.738  10.824  0.0709  0.2048  0.1997
  110OSM   H13A11330   2.116   6.778  10.739  2.5662  1.3565  2.2283
  110OSM   H13B11331   2.152   6.701  10.874  0.8166  1.7473  0.0306
  110OSM   H13C11332   2.011   6.810  10.884  1.0160  1.9537 -1.0397
  110OSM    C1211333   2.031   6.538  10.679 -0.2287 -0.8374 -0.0334
  110OSM   H12A11334   2.066   6.609  10.604 -0.3142 -2.2664 -1.4541
  110OSM   H12B11335   1.950   6.481  10.637 -0.5657  1.3736 -2.5811
  110OSM    C1111336   2.149   6.452  10.710  0.4233  0.5588 -0.2921
  110OSM   H11A11337   2.233   6.508  10.758  1.2289  0.3297 -1.4248
  110OSM   H11B11338   2.202   6.419  10.618 -0.5957 -0.3654 -0.5503
  110OSM      P11339   2.035   6.224  10.747  0.3335  0.2180  0.1877
  110OSM    O1311340   2.116   6.095  10.749 -0.2556 -0.7731  0.4691
  110OSM    O1411341   1.905   6.214  10.823 -0.1164  0.3279  0.2932
  110OSM    O1111342   2.004   6.254  10.596  0.1904 -0.5331 -0.0372
  110OSM    O1211343   2.114   6.343  10.798 -0.1292 -0.4647  0.0182
  110OSM    C1S11344   1.877   6.216  10.553  0.3470 -0.3993  0.5428
  110OSM    H1S11345   1.802   6.283  10.601  2.3123  1.2443  1.3428
  110OSM    H1T11346   1.861   6.112  10.589 -2.4923  0.0045  0.5595
  110OSM     NF11347   1.731   6.186  10.360  0.6962 -0.7546  0.3581
  110OSM    HNF11348   1.717   6.092  10.333  1.4707 -0.7119 -0.2139
  110OSM    C2S11349   1.866   6.219  10.394 -0.4509  0.5365 -0.2500
  110OSM    H2S11350   1.884   6.325  10.367  1.0413 -0.2237 -2.3074
  110OSM    C3S11351   1.976   6.128  10.324  0.7349 -0.8125  0.0731
  110OSM    H3S11352   1.958   6.023  10.356  0.7263 -0.4106  1.4388
  110OSM     O311353   2.110   6.158  10.367  0.3823  0.2281  0.1610
  110OSM    HO311354   2.090   6.225  10.432 -0.8326 -1.2032  1.2875
  110OSM    C4S11355   1.961   6.145  10.180  0.1324  0.5385  0.5998
  110OSM    H4S11356   1.989   6.244  10.138  1.3738  0.9702  2.3997
  110OSM    C5S11357   1.920   6.053  10.093  0.0864  0.0291  0.0511
  110OSM    H5S11358   1.904   5.950  10.127  0.7049 -0.2669 -0.5526
  110OSM    C6S11359   1.918   6.065   9.942  0.0617 -0.0127  0.6411
  110OSM    H6S11360   2.007   6.007   9.909 -0.1767 -0.4241  0.7196
  110OSM    H6T11361   1.948   6.158   9.889 -2.3582  1.1907  1.3463
  110OSM    C7S11362   1.785   6.014   9.880  0.1592  0.4614 -0.1886
  110OSM    H7S11363   1.712   6.067   9.946 -2.8830 -0.0522 -2.9925
  110OSM    H7T11364   1.781   5.906   9.904 -0.8805  0.8070  1.3641
  110OSM    C8S11365   1.762   6.035   9.732  0.1332  0.1173 -0.1514
  110OSM    H8S11366   1.750   6.144   9.716  1.7017  0.1979 -0.9445
  110OSM    H8T11367   1.663   5.997   9.701  0.5144 -0.5504 -0.5666
  110OSM    C9S11368   1.874   5.980   9.637 -0.4422  0.1180  0.1534
  110OSM    H9S11369   1.897   5.875   9.664 -0.9939 -0.0388  0.0211
  110OSM    H9T11370   1.974   6.028   9.646 -0.4290  0.7341 -2.8343
  110OSM   C10S11371   1.833   5.991   9.489  0.7557  0.6073 -0.0677
  110OSM   H10S11372   1.840   6.096   9.454 -0.8441  0.3714 -1.1537
  110OSM   H10T11373   1.726   5.959   9.489  0.7622  0.5740  0.3777
  110OSM   C11S11374   1.910   5.892   9.396 -0.5272 -0.6105 -0.2939
  110OSM   H11S11375   1.929   5.794   9.445  0.4665 -0.0277  0.5070
  110OSM   H11T11376   2.013   5.930   9.376 -0.1171 -1.8945 -0.6674
  110OSM   C12S11377   1.832   5.843   9.273  0.2019  0.0343 -0.5525
  110OSM   H12S11378   1.785   5.930   9.223  1.2038 -0.0665 -1.6904
  110OSM   H12T11379   1.750   5.772   9.299 -0.3645  0.8898  0.0093
  110OSM   C13S11380   1.918   5.790   9.155 -0.1017 -0.1196  0.1692
  110OSM   H13S11381   1.981   5.710   9.199  1.2445  2.1433  2.5231
  110OSM   H13T11382   1.976   5.876   9.115 -2.3193  0.7206 -1.3689
  110OSM   C14S11383   1.836   5.734   9.032 -0.8046 -0.6999 -0.3148
  110OSM   H14S11384   1.803   5.814   8.963 -0.4187  1.8172  2.2971
  110OSM   H14T11385   1.738   5.696   9.071 -1.1883  0.6513  0.0635
  110OSM   C15S11386   1.902   5.622   8.959 -0.6103 -0.7945  0.7318
  110OSM   H15S11387   1.845   5.596   8.867 -2.0512  0.4093  1.2769
  110OSM   H15T11388   1.889   5.529   9.018 -3.1333 -2.2459 -1.9711
  110OSM   C16S11389   2.048   5.664   8.921  0.3495 -0.6908 -0.1487
  110OSM   H16S11390   2.108   5.710   9.002  0.3575 -0.8265 -0.0768
  110OSM   H16T11391   2.039   5.743   8.844  1.3249 -0.8108 -0.3897
  110OSM   C17S11392   2.128   5.554   8.855  0.1301 -0.5106 -0.6951
  110OSM   H17S11393   2.101   5.534   8.749 -1.7903 -1.5283 -0.0483
  110OSM   H17T11394   2.090   5.458   8.898 -1.2664  0.3819  0.0789
  110OSM   C18S11395   2.284   5.580   8.876  0.2862  0.4430 -0.0820
  110OSM   H18S11396   2.304   5.602   8.983  1.0356 -1.4980  0.1952
  110OSM   H18T11397   2.312   5.673   8.822  1.3469  0.4206  0.4271
  110OSM   H18U11398   2.340   5.491   8.839 -1.6193  0.2754 -2.7661
  110OSM    C1F11399   1.627   6.264  10.385  0.2980 -0.1766 -0.0044
  110OSM     OF11400   1.643   6.377  10.436  0.2908 -0.4034 -0.2704
  110OSM    C2F11401   1.496   6.206  10.344  0.2077  0.7447  0.2619
  110OSM    H2F11402   1.435   6.195  10.436 -1.7537  1.0389 -0.9853
  110OSM    H2G11403   1.510   6.106  10.298  1.2582  0.5615  0.9617
  110OSM    C3F11404   1.446   6.316  10.253 -0.3661  1.0669  0.2022
  110OSM    H3F11405   1.461   6.418  10.294  1.0784  0.1406  2.0715
  110OSM    H3G11406   1.339   6.299  10.228 -0.1872 -1.4017  0.9594
  110OSM    C4F11407   1.517   6.315  10.115 -0.5041  0.2290  0.0269
  110OSM    H4F11408   1.496   6.214  10.073 -0.9102 -0.1571  1.1284
  110OSM    H4G11409   1.626   6.324  10.138 -0.3362  0.8834 -1.0005
  110OSM    C5F11410   1.476   6.432  10.030  0.0741  0.1976  0.3469
  110OSM    H5F11411   1.563   6.501  10.039 -0.3450  0.7414  0.2929
  110OSM    H5G11412   1.387   6.484  10.072 -0.2645  0.4784 -0.6777
  110OSM    C6F11413   1.457   6.402   9.878 -0.0588 -0.5299  0.3071
  110OSM    H6F11414   1.545   6.355   9.829 -0.2052 -0.5394  0.0559
  110OSM    H6G11415   1.457   6.497   9.820 -0.5133 -0.3546  0.5959
  110OSM    C7F11416   1.334   6.324   9.846 -0.2332 -0.0789  0.0572
  110OSM    H7F11417   1.247   6.388   9.872 -1.0669 -1.3021  0.3097
  110OSM    H7G11418   1.331   6.231   9.907 -2.2939  0.1085  0.2902
  110OSM    C8F11419   1.317   6.287   9.696  0.5031  0.1479  0.0672
  110OSM    H8F11420   1.313   6.386   9.645  1.1256  0.3336  0.3741
  110OSM    H8G11421   1.218   6.237   9.699  0.7323 -0.1877  3.3076
  110OSM    C9F11422   1.424   6.195   9.646  0.0450  0.0597  0.0108
  110OSM    H9F11423   1.467   6.134   9.728 -0.4017 -0.3372 -0.0454
  110OSM   C10F11424   1.453   6.167   9.518 -0.2162  0.4225  0.2339
  110OSM   H10F11425   1.545   6.110   9.497 -0.2410  0.7286 -0.7104
  110OSM   C11F11426   1.388   6.221   9.396 -0.3423  0.1399  0.5055
  110OSM   H11F11427   1.468   6.268   9.334 -1.0002  0.4174 -0.1447
  110OSM   H11G11428   1.320   6.306   9.414  0.3459  1.1118 -1.2504
  110OSM   C12F11429   1.309   6.125   9.297 -0.3640 -0.9856  0.4508
  110OSM   H12F11430   1.279   6.188   9.211  1.4918 -2.0827 -1.0286
  110OSM   H12G11431   1.222   6.079   9.348 -1.3247  1.5460  1.1487
  110OSM   C13F11432   1.400   6.011   9.238  0.3882 -0.2984  0.0507
  110OSM   H13F11433   1.341   5.933   9.185  0.1128  0.3878 -0.6581
  110OSM   H13G11434   1.459   5.968   9.322  5.2592  4.0556 -0.8830
  110OSM   C14F11435   1.506   6.066   9.143 -0.5909  0.5301 -0.2309
  110OSM   H14F11436   1.591   5.995   9.135 -1.0669  0.0955 -1.5095
  110OSM   H14G11437   1.538   6.165   9.183 -2.7339  1.3790 -0.5385
  110OSM   C15F11438   1.449   6.089   9.002 -0.7713 -0.9043  0.4005
  110OSM   H15F11439   1.352   6.139   9.024 -1.3659 -1.7343 -0.3310
  110OSM   H15G11440   1.425   5.992   8.954 -1.0475  0.4162 -2.2022
  110OSM   C16F11441   1.531   6.185   8.915 -0.1289 -0.2240 -0.1312
  110OSM   H16F11442   1.618   6.138   8.866 -1.2205 -1.1033 -1.2648
  110OSM   H16G11443   1.571   6.269   8.977 -0.3550  0.7766 -1.3317
  110OSM   C17F11444   1.453   6.243   8.796  0.2220  0.4632 -0.3062
  110OSM   H17F11445   1.428   6.149   8.740  0.0410  0.8088 -0.8113
  110OSM   H17G11446   1.520   6.296   8.724  1.6508  0.6602  1.1470
  110OSM   C18F11447   1.320   6.314   8.813 -0.4559  0.2864 -0.5950
  110OSM   H18F11448   1.284   6.310   8.917 -1.4863 -0.5818 -0.9777
  110OSM   H18G11449   1.241   6.273   8.747 -2.0149  1.4402  0.5243
  110OSM   H18H11450   1.335   6.423   8.795 -0.5158  0.2806 -0.6839
  111OSM      N11451   2.856   3.430  11.051  0.0453 -0.2222 -0.4668
  111OSM    C1511452   2.890   3.571  11.092 -0.0832  0.5978  0.3114
  111OSM   H15A11453   2.805   3.634  11.112 -0.0452  1.7781 -2.9822
  111OSM   H15B11454   2.941   3.625  11.013  1.0546 -1.4329 -0.3750
  111OSM   H15C11455   2.951   3.574  11.181  0.3217  1.2178  0.0210
  111OSM    C1411456   2.984   3.347  11.055 -0.2553  0.5332  0.0944
  111OSM   H14A11457   2.949   3.250  11.020 -2.1253  1.8928 -1.9321
  111OSM   H14B11458   3.014   3.339  11.158  1.3316  0.9096 -0.3398
  111OSM   H14C11459   3.057   3.403  11.000 -0.3328  4.6528  3.8912
  111OSM    C1311460   2.754   3.378  11.144  0.6268 -0.0879  0.5573
  111OSM   H13A11461   2.667   3.441  11.149  1.1610  1.0044 -2.9689
  111OSM   H13B11462   2.787   3.367  11.247 -2.2058 -0.4034  1.4749
  111OSM   H13C11463   2.719   3.280  11.115 -2.6623  0.6928  1.6997
  111OSM    C1211464   2.806   3.445  10.909  0.1268 -0.6008 -0.2136
  111OSM   H12A11465   2.878   3.499  10.848 -0.8524  1.3222  0.3145
  111OSM   H12B11466   2.727   3.517  10.913  0.3981 -0.2993 -0.2607
  111OSM    C1111467   2.769   3.316  10.829  0.1781 -0.3014  0.7696
  111OSM   H11A11468   2.869   3.272  10.807 -0.6316 -1.7510 -0.0808
  111OSM   H11B11469   2.714   3.344  10.737 -1.5197  0.0377  1.8751
  111OSM      P11470   2.555   3.158  10.885  0.0442 -0.4590 -0.2597
  111OSM    O1311471   2.534   3.012  10.914  0.5825 -0.0719  0.0111
  111OSM    O1411472   2.464   3.255  10.953 -0.4578 -0.0784 -0.2140
  111OSM    O1111473   2.522   3.167  10.733  0.3778 -0.0393 -0.2511
  111OSM    O1211474   2.701   3.212  10.900 -0.2382  0.3449  0.4352
  111OSM    C1S11475   2.600   3.101  10.638  0.4492 -0.1255  0.2489
  111OSM    H1S11476   2.574   2.993  10.644 -0.9240  0.2173  0.7152
  111OSM    H1T11477   2.707   3.125  10.655  0.0624  1.1591  0.9370
  111OSM     NF11478   2.657   3.077  10.404 -0.1654  1.1232 -0.5260
  111OSM    HNF11479   2.734   3.129  10.369  1.6651 -1.6375 -0.6806
  111OSM    C2S11480   2.568   3.151  10.494  0.5365 -0.2347 -0.3147
  111OSM    H2S11481   2.461   3.122  10.481  0.2388  0.5071  0.4188
  111OSM    C3S11482   2.590   3.309  10.490  0.2181 -0.2708 -0.5450
  111OSM    H3S11483   2.695   3.324  10.524  1.2138 -1.5198 -2.9765
  111OSM     O311484   2.506   3.383  10.584  0.0808 -0.0540  0.4683
  111OSM    HO311485   2.483   3.323  10.656  0.6345  0.7868  1.3642
  111OSM    C4S11486   2.567   3.356  10.353 -0.0145 -0.5441  0.3496
  111OSM    H4S11487   2.656   3.408  10.315 -0.0547 -0.7458 -0.0238
  111OSM    C5S11488   2.462   3.336  10.268  0.0919 -0.0128  0.5934
  111OSM    H5S11489   2.378   3.268  10.291  0.7328 -0.4434  1.7039
  111OSM    C6S11490   2.468   3.388  10.130  0.0011 -0.3977  0.2129
  111OSM    H6S11491   2.521   3.485  10.122  0.7731 -0.9676 -1.7973
  111OSM    H6T11492   2.363   3.415  10.106  0.3527  3.4040  2.4073
  111OSM    C7S11493   2.519   3.288  10.027 -0.0821  0.2594 -0.5708
  111OSM    H7S11494   2.467   3.192  10.047  1.3560  0.0972  2.7103
  111OSM    H7T11495   2.627   3.268  10.042 -0.1667 -1.7945 -2.4563
  111OSM    C8S11496   2.484   3.339   9.876  0.6906  0.0163  0.3413
  111OSM    H8S11497   2.519   3.444   9.863  2.6857 -0.5504  0.8589
  111OSM    H8T11498   2.374   3.343   9.862  0.7014 -0.3073  0.1533
  111OSM    C9S11499   2.533   3.247   9.768  0.0627  0.2398 -0.6530
  111OSM    H9S11500   2.477   3.151   9.777  0.3525 -0.0331 -1.7589
  111OSM    H9T11501   2.642   3.230   9.780  0.0590 -0.0932 -1.0799
  111OSM   C10S11502   2.519   3.303   9.626 -0.2878  0.5799  0.4864
  111OSM   H10S11503   2.536   3.412   9.621 -2.3680  0.8352 -2.1715
  111OSM   H10T11504   2.415   3.285   9.589  0.0458 -0.6096  0.0961
  111OSM   C11S11505   2.613   3.225   9.527 -0.5496 -0.3044  0.1912
  111OSM   H11S11506   2.611   3.118   9.557 -1.5121  0.4488  2.9576
  111OSM   H11T11507   2.715   3.268   9.545 -0.6629 -1.2190  3.4252
  111OSM   C12S11508   2.561   3.249   9.385  0.0005  0.1140  0.2145
  111OSM   H12S11509   2.557   3.358   9.365  1.2679  0.0406 -0.4738
  111OSM   H12T11510   2.463   3.198   9.376  0.4755 -0.9649  1.0360
  111OSM   C13S11511   2.663   3.173   9.286 -0.0349 -0.1260 -0.2195
  111OSM   H13S11512   2.665   3.071   9.331 -1.9084 -0.8498 -1.7011
  111OSM   H13T11513   2.766   3.213   9.297 -1.3158  2.7881  1.4482
  111OSM   C14S11514   2.611   3.163   9.145 -0.7643  0.0457  0.3224
  111OSM   H14S11515   2.606   3.268   9.109 -0.0953  0.0736  0.2927
  111OSM   H14T11516   2.507   3.126   9.146 -1.1920  1.2069 -0.5229
  111OSM   C15S11517   2.699   3.082   9.052  0.2022 -0.3183  0.2783
  111OSM   H15S11518   2.716   2.978   9.086 -3.0010 -1.0607 -0.2305
  111OSM   H15T11519   2.801   3.125   9.056 -0.7017  2.0717 -1.4043
  111OSM   C16S11520   2.646   3.066   8.910  0.0159 -0.0236  0.4578
  111OSM   H16S11521   2.618   3.169   8.880  0.7293 -0.6592 -2.5401
  111OSM   H16T11522   2.564   2.991   8.912  1.0408 -1.1853 -0.0587
  111OSM   C17S11523   2.756   3.025   8.821 -0.4976  0.0522 -0.2637
  111OSM   H17S11524   2.803   2.930   8.855 -0.2466 -0.3983 -1.8017
  111OSM   H17T11525   2.832   3.106   8.833  0.5216 -1.0947  1.2810
  111OSM   C18S11526   2.717   3.014   8.674  0.5909  0.8413  1.0782
  111OSM   H18S11527   2.673   3.109   8.637  0.2778  0.0471 -0.6764
  111OSM   H18T11528   2.631   2.944   8.673  2.0937 -1.0682 -0.8101
  111OSM   H18U11529   2.799   2.976   8.610  0.1143 -1.8696  2.0125
  111OSM    C1F11530   2.622   2.952  10.374 -0.4184 -0.5671 -0.1689
  111OSM     OF11531   2.513   2.900  10.409  0.1612  0.1021  0.5788
  111OSM    C2F11532   2.726   2.871  10.296 -0.4765  0.7185  0.1654
  111OSM    H2F11533   2.742   2.772  10.345  1.0239  1.9677  2.2576
  111OSM    H2G11534   2.822   2.924  10.307  0.0998 -0.3965  0.6469
  111OSM    C3F11535   2.697   2.854  10.149 -0.4116 -0.4900 -0.0292
  111OSM    H3F11536   2.720   2.947  10.092 -1.2592 -1.0194 -1.2507
  111OSM    H3G11537   2.593   2.821  10.129 -0.4638 -0.7480  0.6254
  111OSM    C4F11538   2.788   2.743  10.081 -0.5340 -0.5056  0.2169
  111OSM    H4F11539   2.749   2.640  10.098 -0.1205 -0.6672  0.1955
  111OSM    H4G11540   2.884   2.744  10.138 -0.5900  1.0865  0.2963
  111OSM    C5F11541   2.811   2.765   9.930 -0.0620 -0.0222 -0.5626
  111OSM    H5F11542   2.890   2.693   9.901 -0.6009 -1.0381  0.4651
  111OSM    H5G11543   2.846   2.870   9.916 -0.8066 -0.0185 -2.5854
  111OSM    C6F11544   2.690   2.730   9.839 -0.9683  0.5105 -0.3599
  111OSM    H6F11545   2.592   2.737   9.890 -1.5871  1.1745 -1.6160
  111OSM    H6G11546   2.680   2.622   9.815 -1.8722  0.8433 -1.5377
  111OSM    C7F11547   2.667   2.820   9.715 -0.2818  0.1975 -0.2049
  111OSM    H7F11548   2.762   2.813   9.657  0.0829  0.4925  0.3557
  111OSM    H7G11549   2.654   2.925   9.750  1.5992  0.5106 -0.3718
  111OSM    C8F11550   2.557   2.753   9.624  0.5694 -0.4665  0.9013
  111OSM    H8F11551   2.476   2.718   9.691 -1.2534 -0.0231 -1.0042
  111OSM    H8G11552   2.601   2.658   9.585 -0.0875 -0.3689 -0.0846
  111OSM    C9F11553   2.494   2.844   9.521  0.0319 -0.7718  0.7858
  111OSM    H9F11554   2.433   2.928   9.555  0.8897  0.0415  0.3482
  111OSM   C10F11555   2.511   2.823   9.388 -0.2920 -0.2760 -0.3040
  111OSM   H10F11556   2.469   2.897   9.318  1.8575  0.2696 -1.0260
  111OSM   C11F11557   2.595   2.724   9.316  0.1991  0.4570  0.2287
  111OSM   H11F11558   2.638   2.640   9.375 -0.7108  0.1817  0.5033
  111OSM   H11G11559   2.680   2.774   9.265  0.7469  0.1905  0.8630
  111OSM   C12F11560   2.520   2.642   9.206  0.1429 -0.1576  0.1399
  111OSM   H12F11561   2.419   2.617   9.243  0.5590 -2.9343 -0.4680
  111OSM   H12G11562   2.594   2.562   9.182  0.4106 -0.3165  1.4777
  111OSM   C13F11563   2.491   2.711   9.073 -0.1596 -0.3648 -0.2353
  111OSM   H13F11564   2.587   2.752   9.036 -0.6464  0.5161 -0.5289
  111OSM   H13G11565   2.429   2.799   9.099  0.0116  0.0997 -1.3758
  111OSM   C14F11566   2.420   2.619   8.977  0.2280  0.0341 -0.1940
  111OSM   H14F11567   2.478   2.527   8.958  0.2543  0.0397 -0.1423
  111OSM   H14G11568   2.442   2.679   8.885 -0.2543 -1.3103 -1.1990
  111OSM   C15F11569   2.270   2.615   8.984 -0.4882  0.0994  0.0618
  111OSM   H15F11570   2.222   2.715   8.995  0.0119  0.4757 -1.1704
  111OSM   H15G11571   2.252   2.559   9.078 -1.4227  2.8126  1.5518
  111OSM   C16F11572   2.191   2.550   8.866  0.0288  0.5794  0.1048
  111OSM   H16F11573   2.235   2.452   8.837 -0.3577  0.8454 -1.4182
  111OSM   H16G11574   2.187   2.614   8.776  0.3843  2.2433  1.2528
  111OSM   C17F11575   2.042   2.538   8.908 -0.4271 -0.5533  0.7435
  111OSM   H17F11576   1.990   2.492   8.821 -0.8382  1.7604 -0.2885
  111OSM   H17G11577   1.997   2.639   8.919  0.5519 -0.0132 -0.1388
  111OSM   C18F11578   2.013   2.450   9.028 -0.8412 -0.4346 -0.3459
  111OSM   H18F11579   1.906   2.420   9.038 -1.3845  0.8744 -1.8371
  111OSM   H18G11580   2.046   2.504   9.119 -1.1988 -1.4459  0.3936
  111OSM   H18H11581   2.071   2.356   9.022  0.3182  0.2256  0.3662
  112OSM      N11582   3.170   0.755  10.842 -0.3001 -0.0753  0.7217
  112OSM    C1511583   3.309   0.756  10.781  0.5420 -0.5298 -0.1804
  112OSM   H15A11584   3.307   0.824  10.698  0.4472  1.8225  1.6919
  112OSM   H15B11585   3.336   0.662  10.735  2.6856 -0.8306  1.5521
  112OSM   H15C11586   3.393   0.786  10.843  0.8261  1.1020 -1.3356
  112OSM    C1411587   3.141   0.902  10.866  0.2721 -0.5203 -0.0348
  112OSM   H14A11588   3.121   0.950  10.771  0.1453  0.8118  0.6522
  112OSM   H14B11589   3.223   0.942  10.925  2.0390  1.4344 -3.6089
  112OSM   H14C11590   3.053   0.923  10.924  0.0228 -1.1825 -0.1728
  112OSM    C1311591   3.070   0.696  10.756 -0.5683 -0.2790  0.0232
  112OSM   H13A11592   3.049   0.753  10.667  0.6009 -1.5738 -1.1032
  112OSM   H13B11593   2.975   0.690  10.807  0.6191 -1.2645  2.1932
  112OSM   H13C11594   3.102   0.596  10.730  1.8494  1.0915 -2.5654
  112OSM    C1211595   3.168   0.664  10.961 -0.3892 -0.1129  0.5911
  112OSM   H12A11596   3.249   0.702  11.021  1.7046 -0.8590 -1.6757
  112OSM   H12B11597   3.196   0.563  10.936 -0.1625  0.4671 -1.5710
  112OSM    C1111598   3.034   0.650  11.040  0.3141 -0.2555  0.3325
  112OSM   H11A11599   2.994   0.750  11.065 -1.6457 -1.1496  0.8850
  112OSM   H11B11600   3.057   0.603  11.138 -0.2817  1.9673  1.5486
  112OSM      P11601   2.937   0.409  10.959 -0.3173  0.0236 -0.4157
  112OSM    O1311602   3.070   0.361  10.934  0.1238 -0.2418 -0.5559
  112OSM    O1411603   2.876   0.346  11.075  0.9160  0.5441 -0.0488
  112OSM    O1111604   2.838   0.390  10.830  0.2933 -0.6057  0.4711
  112OSM    O1211605   2.950   0.566  10.976  0.0199 -0.1738 -0.2783
  112OSM    C1S11606   2.827   0.487  10.728 -0.3148  0.1916 -0.0076
  112OSM    H1S11607   2.921   0.493  10.670 -0.7362  1.9206 -0.5472
  112OSM    H1T11608   2.806   0.592  10.759  1.1445  1.0427 -1.8313
  112OSM     NF11609   2.724   0.549  10.506 -0.7717  0.4521 -0.0322
  112OSM    HNF11610   2.669   0.631  10.512  0.6372  1.3273  1.2856
  112OSM    C2S11611   2.718   0.446  10.615 -0.4793  0.1357 -0.0204
  112OSM    H2S11612   2.753   0.349  10.575 -0.9160  0.8090 -2.0978
  112OSM    C3S11613   2.584   0.423  10.668  0.1813 -0.1971  0.0378
  112OSM    H3S11614   2.529   0.518  10.684  2.6807  1.3137 -0.1465
  112OSM     O311615   2.583   0.366  10.794  0.8175  0.1848 -0.1111
  112OSM    HO311616   2.676   0.376  10.812  0.8569  0.7259 -0.6117
  112OSM    C4S11617   2.499   0.346  10.566  0.2058  0.0298 -0.8370
  112OSM    H4S11618   2.401   0.389  10.541 -1.2263 -2.8019 -0.3294
  112OSM    C5S11619   2.519   0.224  10.515  0.1538  1.0338  0.2011
  112OSM    H5S11620   2.597   0.154  10.548 -1.5164 -0.5612  0.8572
  112OSM    C6S11621   2.419   0.162  10.416  0.0773  0.9533 -0.9100
  112OSM    H6S11622   2.334   0.230  10.391  0.2051  0.9941 -1.2423
  112OSM    H6T11623   2.368   0.070  10.451  0.7979  1.3167  1.1564
  112OSM    C7S11624   2.472   0.111  10.275  1.2352 -0.0579  0.0299
  112OSM    H7S11625   2.548   0.034  10.300  0.3845 -0.2772  2.0722
  112OSM    H7T11626   2.519   0.197  10.222 -0.7353  1.2505  0.3372
  112OSM    C8S11627   2.365   0.054  10.175 -0.5421 -0.0891  0.6096
  112OSM    H8S11628   2.266   0.104  10.179 -0.2268  0.6804 -0.9597
  112OSM    H8T11629   2.351  -0.054  10.198  0.2142 -0.0016  1.5164
  112OSM    C9S11630   2.417   0.059  10.033  0.7952 -0.4715 -0.1592
  112OSM    H9S11631   2.508  -0.004  10.029 -0.1727 -1.9516  0.5752
  112OSM    H9T11632   2.446   0.164  10.010  0.5595 -0.5556 -0.8419
  112OSM   C10S11633   2.311   0.008   9.936  0.2254  0.1125  0.4911
  112OSM   H10S11634   2.227   0.074   9.967 -0.3446 -0.3489 -0.0456
  112OSM   H10T11635   2.291  -0.100   9.953 -1.6818 -0.0028 -2.1194
  112OSM   C11S11636   2.347   0.028   9.789 -0.1088 -0.5163 -0.0868
  112OSM   H11S11637   2.446  -0.022   9.784 -0.1002 -0.7948  2.1850
  112OSM   H11T11638   2.366   0.129   9.746  1.9708  0.4590  2.9154
  112OSM   C12S11639   2.249  -0.050   9.696  0.4312  0.4194 -0.0808
  112OSM   H12S11640   2.154   0.007   9.703 -0.2067 -0.6507  0.2796
  112OSM   H12T11641   2.231  -0.153   9.735 -0.2447  1.0061  1.1453
  112OSM   C13S11642   2.301  -0.069   9.550  0.3195 -0.4454 -0.9413
  112OSM   H13S11643   2.257  -0.161   9.507  2.3973 -1.6908 -0.4818
  112OSM   H13T11644   2.412  -0.079   9.560 -0.0824 -2.3427  2.4356
  112OSM   C14S11645   2.263   0.048   9.460  0.3241 -0.5241  0.8165
  112OSM   H14S11646   2.298   0.143   9.507 -0.9636  0.2793  0.1669
  112OSM   H14T11647   2.153   0.039   9.454  0.1186  2.1172  0.1115
  112OSM   C15S11648   2.310   0.040   9.317 -0.2182 -0.8270 -0.0531
  112OSM   H15S11649   2.275  -0.049   9.261 -1.4445 -2.0673  2.6175
  112OSM   H15T11650   2.421   0.041   9.322 -0.2471  0.8690  0.5181
  112OSM   C16S11651   2.276   0.164   9.231 -0.0872  0.5704  0.1822
  112OSM   H16S11652   2.322   0.247   9.289 -1.6291  0.3346  1.8197
  112OSM   H16T11653   2.165   0.168   9.228 -0.1947 -1.6350  0.7408
  112OSM   C17S11654   2.331   0.156   9.086  0.0588  0.2543  0.4295
  112OSM   H17S11655   2.276   0.072   9.038  1.0792 -0.1681 -0.0305
  112OSM   H17T11656   2.437   0.123   9.091  0.1580  0.6268  0.8161
  112OSM   C18S11657   2.328   0.279   8.992  0.4832 -0.0861  0.4211
  112OSM   H18S11658   2.365   0.255   8.891 -0.1425  1.5371 -0.2214
  112OSM   H18T11659   2.406   0.352   9.024  1.0061 -1.3949  2.2281
  112OSM   H18U11660   2.227   0.323   8.978  1.1892  1.5659  0.3402
  112OSM    C1F11661   2.823   0.550  10.416 -0.4775  0.2229 -0.3180
  112OSM     OF11662   2.913   0.465  10.413 -0.1568 -0.6913 -0.0860
  112OSM    C2F11663   2.818   0.670  10.317  0.7136  0.2988 -0.8140
  112OSM    H2F11664   2.919   0.715  10.310  1.6693 -1.6478 -0.1107
  112OSM    H2G11665   2.746   0.742  10.360  0.2426 -1.0708  0.7514
  112OSM    C3F11666   2.758   0.635  10.176 -0.2594 -0.0436 -0.2539
  112OSM    H3F11667   2.651   0.608  10.184 -0.8361  2.1309 -0.3003
  112OSM    H3G11668   2.818   0.546  10.147 -0.7285 -0.8148  1.0963
  112OSM    C4F11669   2.776   0.737  10.063 -1.0297 -0.5048  0.1516
  112OSM    H4F11670   2.879   0.778  10.061 -1.6304  1.0988  1.0504
  112OSM    H4G11671   2.708   0.825  10.066 -0.1310  0.2012  0.1223
  112OSM    C5F11672   2.757   0.679   9.917 -0.1915  0.0833  0.2365
  112OSM    H5F11673   2.650   0.651   9.901 -0.2430  1.1043 -1.3320
  112OSM    H5G11674   2.802   0.577   9.914  0.0418  0.2118 -1.0999
  112OSM    C6F11675   2.798   0.769   9.792  0.7101 -0.2287  0.2064
  112OSM    H6F11676   2.824   0.715   9.698  1.2096  0.7253 -0.2179
  112OSM    H6G11677   2.889   0.825   9.824  0.4180  0.9684 -1.0005
  112OSM    C7F11678   2.691   0.875   9.765 -0.0052 -0.3533 -0.6532
  112OSM    H7F11679   2.673   0.929   9.860 -1.5033 -1.0307 -0.5391
  112OSM    H7G11680   2.598   0.820   9.740  0.2695 -2.0970  1.9853
  112OSM    C8F11681   2.729   0.972   9.655  0.0588  0.6052 -0.0067
  112OSM    H8F11682   2.631   1.021   9.635 -1.0208 -2.2171 -1.9104
  112OSM    H8G11683   2.758   0.914   9.565 -1.4956  2.0980 -1.5040
  112OSM    C9F11684   2.839   1.068   9.704  0.8451  0.0324 -0.1209
  112OSM    H9F11685   2.803   1.136   9.782 -1.4127 -1.0169 -0.2184
  112OSM   C10F11686   2.970   1.061   9.670  0.2537  0.3213  0.3162
  112OSM   H10F11687   3.038   1.136   9.712  1.3936 -0.5321  0.0429
  112OSM   C11F11688   3.049   0.963   9.581  0.0680  0.2249 -0.3309
  112OSM   H11F11689   2.983   0.875   9.565 -2.1542  1.4861  1.6635
  112OSM   H11G11690   3.139   0.929   9.638 -0.9120 -0.9150  0.5733
  112OSM   C12F11691   3.092   1.015   9.443  0.7326  0.0040 -0.1376
  112OSM   H12F11692   3.135   1.117   9.458 -0.1630  0.6281 -1.7683
  112OSM   H12G11693   3.008   1.027   9.372  1.7497  2.4567 -0.9903
  112OSM   C13F11694   3.215   0.941   9.388  0.7849  0.0330 -0.5532
  112OSM   H13F11695   3.188   0.841   9.347 -1.1491 -0.0959  0.9357
  112OSM   H13G11696   3.287   0.919   9.470 -0.7048 -1.8006  0.3344
  112OSM   C14F11697   3.289   1.010   9.272 -0.2555  0.0339 -0.8511
  112OSM   H14F11698   3.249   1.112   9.252 -0.0807  0.2430 -0.1471
  112OSM   H14G11699   3.264   0.954   9.180 -2.5719  0.6147 -0.5957
  112OSM   C15F11700   3.438   1.028   9.308  0.3506 -0.3733  0.6384
  112OSM   H15F11701   3.474   0.926   9.332  0.7323  0.1046  2.1629
  112OSM   H15G11702   3.439   1.085   9.403  2.2190  1.2766 -0.3335
  112OSM   C16F11703   3.523   1.106   9.208 -0.4699 -0.2234  1.2409
  112OSM   H16F11704   3.469   1.203   9.212 -2.6570 -1.3515  0.2134
  112OSM   H16G11705   3.507   1.051   9.113  0.0468 -1.5930  1.9369
  112OSM   C17F11706   3.673   1.126   9.239 -0.1842  0.5963 -0.0920
  112OSM   H17F11707   3.682   1.174   9.339 -0.4262  0.4482  0.0024
  112OSM   H17G11708   3.715   1.205   9.173  0.4054  0.9878  0.7354
  112OSM   C18F11709   3.759   1.008   9.221  0.1603  0.3321  0.4702
  112OSM   H18F11710   3.748   0.972   9.116  1.0211  1.3454  0.0227
  112OSM   H18G11711   3.735   0.920   9.285  1.4193 -0.5920 -0.3028
  112OSM   H18H11712   3.863   1.043   9.236 -0.0258 -0.1745  3.1294
  113OSM      N11713   0.302   3.644  10.836  0.1055  0.5511  0.8544
  113OSM    C1511714   0.355   3.591  10.703 -0.4303  0.2056 -0.3588
  113OSM   H15A11715   0.336   3.486  10.689  1.2549 -0.2749  0.8388
  113OSM   H15B11716   0.460   3.617  10.699 -0.7092  1.4205 -0.0765
  113OSM   H15C11717   0.309   3.654  10.628 -1.6745  2.3156  2.1095
  113OSM    C1411718   0.149   3.658  10.836  0.4865  0.8046  0.1038
  113OSM   H14A11719   0.118   3.684  10.936  0.0024  2.1760 -0.3939
  113OSM   H14B11720   0.110   3.558  10.822  0.1691  0.5358  2.6636
  113OSM   H14C11721   0.126   3.735  10.764 -0.0540  1.2189  0.7178
  113OSM    C1311722   0.346   3.544  10.936 -0.3120  0.2795 -0.5097
  113OSM   H13A11723   0.451   3.521  10.935  0.2818  2.6033  1.8614
  113OSM   H13B11724   0.306   3.447  10.912 -0.5530  0.6178 -1.5155
  113OSM   H13C11725   0.329   3.573  11.039  0.7017  0.2652 -0.3286
  113OSM    C1211726   0.354   3.781  10.869  0.6677  0.0212  1.1246
  113OSM   H12A11727   0.453   3.757  10.905  0.2431 -1.7019  1.1905
  113OSM   H12B11728   0.306   3.827  10.955  1.6440  2.1219  0.5824
  113OSM    C1111729   0.376   3.885  10.755 -0.0735  0.4254 -0.6542
  113OSM   H11A11730   0.283   3.884  10.693  0.4134  2.9106 -1.4606
  113OSM   H11B11731   0.460   3.862  10.686  1.0523 -0.9858  1.1290
  113OSM      P11732   0.278   4.105  10.876  0.1018  0.4482 -0.4909
  113OSM    O1311733   0.222   4.037  10.993 -0.2151  0.5178 -0.0290
  113OSM    O1411734   0.327   4.239  10.900 -0.1404 -0.2498 -0.4272
  113OSM    O1111735   0.160   4.101  10.780  0.3267 -0.1033  0.4746
  113OSM    O1211736   0.390   4.025  10.805 -0.1944  0.1724 -0.1031
  113OSM    C1S11737   0.160   4.120  10.639  0.2723  0.6491 -0.1025
  113OSM    H1S11738   0.158   4.026  10.579 -0.5265 -0.6879  1.9743
  113OSM    H1T11739   0.260   4.159  10.611  0.8828  0.3727  1.6319
  113OSM     NF11740   0.090   4.268  10.443 -0.6584 -0.6779 -0.3030
  113OSM    HNF11741   0.107   4.365  10.427  1.7614 -0.9376  0.4394
  113OSM    C2S11742   0.053   4.221  10.580  0.3531  0.1961 -0.4068
  113OSM    H2S11743  -0.036   4.155  10.574  1.8383 -1.7678 -1.4485
  113OSM    C3S11744   0.027   4.348  10.670  0.0575  0.2192 -0.4794
  113OSM    H3S11745   0.122   4.405  10.676  0.6466 -0.8263  0.3676
  113OSM     O311746  -0.022   4.328  10.804  0.0139 -0.2427  0.1605
  113OSM    HO311747   0.004   4.238  10.825 -1.5684 -0.8699 -0.4245
  113OSM    C4S11748  -0.070   4.432  10.600  0.5494  0.0479  0.3187
  113OSM    H4S11749  -0.176   4.404  10.607  1.2642 -2.2187  3.3271
  113OSM    C5S11750  -0.038   4.552  10.535  0.1259 -0.1375  0.7562
  113OSM    H5S11751   0.062   4.588  10.560 -0.6609  2.2238  0.5831
  113OSM    C6S11752  -0.128   4.656  10.470 -0.5998 -0.0211  0.0691
  113OSM    H6S11753  -0.121   4.750  10.528 -3.4102  0.4852 -0.3118
  113OSM    H6T11754  -0.234   4.624  10.480 -0.3281 -1.1291 -0.4375
  113OSM    C7S11755  -0.092   4.674  10.321 -0.1689 -0.0417  0.8834
  113OSM    H7S11756   0.016   4.696  10.318 -0.3629  0.8734  0.1198
  113OSM    H7T11757  -0.144   4.759  10.272 -0.1231 -0.6704 -0.2764
  113OSM    C8S11758  -0.119   4.559  10.224  0.3335 -0.5530  0.0001
  113OSM    H8S11759  -0.227   4.535  10.231  0.4820 -1.4912 -0.8457
  113OSM    H8T11760  -0.073   4.464  10.259 -1.0358 -1.0348  0.5348
  113OSM    C9S11761  -0.085   4.576  10.078 -0.1392 -0.1591  0.0945
  113OSM    H9S11762  -0.090   4.478  10.026  0.0558  0.1082 -0.4333
  113OSM    H9T11763   0.016   4.623  10.073 -0.2221 -0.0363 -0.4785
  113OSM   C10S11764  -0.173   4.672   9.995 -1.0133  0.0374 -0.0409
  113OSM   H10S11765  -0.176   4.769  10.050 -0.6259 -0.3905  0.7427
  113OSM   H10T11766  -0.273   4.624  10.002 -0.7348 -0.6440 -0.7242
  113OSM   C11S11767  -0.126   4.683   9.844 -0.6838  0.2841 -0.0258
  113OSM   H11S11768  -0.016   4.673   9.843 -0.6233  0.9351 -0.2836
  113OSM   H11T11769  -0.151   4.782   9.800 -1.3678 -0.3255 -1.0352
  113OSM   C12S11770  -0.196   4.587   9.748  0.1358  0.1091  0.4422
  113OSM   H12S11771  -0.302   4.566   9.777 -0.0864 -0.3398 -0.6869
  113OSM   H12T11772  -0.149   4.487   9.757 -0.5703 -0.4538 -1.7955
  113OSM   C13S11773  -0.187   4.629   9.601  0.0885  0.2666 -0.6426
  113OSM   H13S11774  -0.085   4.639   9.558  1.2263 -0.2782  1.8325
  113OSM   H13T11775  -0.238   4.727   9.587 -0.1789  0.3078  0.5955
  113OSM   C14S11776  -0.273   4.537   9.513  0.1307  0.1103 -0.1834
  113OSM   H14S11777  -0.352   4.500   9.581  1.5962 -3.1356 -0.1720
  113OSM   H14T11778  -0.217   4.446   9.483  1.3880  0.2302  1.7113
  113OSM   C15S11779  -0.340   4.602   9.386 -0.2213  0.3340  0.4307
  113OSM   H15S11780  -0.389   4.698   9.413  1.6796  0.9127  1.9183
  113OSM   H15T11781  -0.410   4.527   9.342  0.2773 -0.2579  0.6441
  113OSM   C16S11782  -0.235   4.646   9.277 -0.4224 -0.0906 -0.6044
  113OSM   H16S11783  -0.151   4.574   9.288  1.5725  2.2248 -0.2020
  113OSM   H16T11784  -0.186   4.743   9.298 -1.1064 -0.2039  1.7313
  113OSM   C17S11785  -0.275   4.629   9.121  0.0401 -0.4859 -0.4151
  113OSM   H17S11786  -0.300   4.524   9.097 -1.9443 -0.2695  0.5775
  113OSM   H17T11787  -0.195   4.662   9.052 -1.9154  0.9551 -2.0779
  113OSM   C18S11788  -0.399   4.715   9.093  0.6335  0.6385 -0.0373
  113OSM   H18S11789  -0.495   4.671   9.129 -0.1182  1.2458 -1.2563
  113OSM   H18T11790  -0.411   4.719   8.983  0.9481  0.7253 -0.0679
  113OSM   H18U11791  -0.397   4.817   9.136 -2.1770  1.1034 -0.8878
  113OSM    C1F11792   0.103   4.183  10.340 -0.9071  0.1258 -0.1090
  113OSM     OF11793   0.056   4.071  10.354 -0.6687 -0.8415 -0.0377
  113OSM    C2F11794   0.167   4.242  10.208  0.0987 -0.1054 -0.0887
  113OSM    H2F11795   0.276   4.220  10.205 -0.1137 -1.0086 -2.0052
  113OSM    H2G11796   0.150   4.351  10.203  0.7405 -0.0514 -1.1935
  113OSM    C3F11797   0.098   4.183  10.082 -0.1038 -0.4697 -0.0027
  113OSM    H3F11798  -0.010   4.162  10.070 -0.3723  0.9761 -0.1144
  113OSM    H3G11799   0.145   4.083  10.068  0.3510  0.0501 -2.4400
  113OSM    C4F11800   0.131   4.268   9.961 -0.2705  0.7762 -0.2999
  113OSM    H4F11801   0.239   4.293   9.966 -0.6220  1.9598  1.9276
  113OSM    H4G11802   0.068   4.360   9.957 -0.3748  0.8406  2.1346
  113OSM    C5F11803   0.112   4.187   9.834 -0.3988 -0.1669  0.4703
  113OSM    H5F11804   0.013   4.136   9.837 -0.6480  0.3241  0.6695
  113OSM    H5G11805   0.195   4.114   9.839 -1.0248 -0.9450 -0.4387
  113OSM    C6F11806   0.123   4.276   9.709  0.1959 -0.5163 -0.3516
  113OSM    H6F11807   0.222   4.325   9.722 -0.2365  0.8911 -2.0539
  113OSM    H6G11808   0.049   4.357   9.690  2.9443  2.3295  0.5732
  113OSM    C7F11809   0.134   4.199   9.569  0.1421 -0.8698  0.0114
  113OSM    H7F11810   0.031   4.156   9.562 -0.8013  1.5422 -1.3397
  113OSM    H7G11811   0.206   4.115   9.575  0.6637 -0.3549  1.0719
  113OSM    C8F11812   0.166   4.297   9.457  0.4232 -0.1229  0.2440
  113OSM    H8F11813   0.237   4.380   9.478 -0.1911  0.7112 -0.8958
  113OSM    H8G11814   0.071   4.353   9.447  0.2716 -0.1046  1.7842
  113OSM    C9F11815   0.203   4.242   9.317 -0.4891 -0.3150  0.6556
  113OSM    H9F11816   0.310   4.218   9.307 -0.1925  1.2962 -0.1885
  113OSM   C10F11817   0.118   4.216   9.220  0.5637  0.4742 -0.2957
  113OSM   H10F11818   0.158   4.162   9.133 -1.3317  0.1889 -1.0119
  113OSM   C11F11819  -0.029   4.241   9.223  0.7237  0.8657  0.8374
  113OSM   H11F11820  -0.048   4.344   9.258  0.6004  1.6429 -1.4219
  113OSM   H11G11821  -0.077   4.159   9.281  0.7316 -1.3427 -2.1254
  113OSM   C12F11822  -0.080   4.234   9.080 -0.1887 -0.3667  0.4925
  113OSM   H12F11823  -0.187   4.266   9.078  0.1281  0.6797 -1.5917
  113OSM   H12G11824  -0.082   4.136   9.028  0.7595  0.4924 -1.1859
  113OSM   C13F11825  -0.034   4.353   8.989 -0.5570 -0.9403 -0.7439
  113OSM   H13F11826   0.077   4.354   8.990 -0.5491 -1.1302 -1.5186
  113OSM   H13G11827  -0.074   4.444   9.039  0.7988  0.5746 -2.3416
  113OSM   C14F11828  -0.067   4.351   8.832  0.5290 -0.6200  0.9288
  113OSM   H14F11829  -0.052   4.249   8.791 -2.4603  0.1291 -2.2130
  113OSM   H14G11830  -0.012   4.432   8.781 -1.1994 -0.1079 -0.1764
  113OSM   C15F11831  -0.219   4.391   8.817 -0.3529  0.6516  0.2598
  113OSM   H15F11832  -0.231   4.495   8.855  1.2503  0.7838  0.4536
  113OSM   H15G11833  -0.280   4.329   8.886  1.8929  1.5509  3.1661
  113OSM   C16F11834  -0.277   4.371   8.678  0.4137 -0.4378  0.4379
  113OSM   H16F11835  -0.281   4.263   8.651  0.0762 -0.3815  0.2589
  113OSM   H16G11836  -0.212   4.429   8.609  1.8579  0.1551  2.2635
  113OSM   C17F11837  -0.416   4.427   8.656  0.0186 -0.2131  0.1534
  113OSM   H17F11838  -0.415   4.532   8.694  0.8717  0.0510 -0.5785
  113OSM   H17G11839  -0.476   4.365   8.726  1.2745 -0.1414  1.3113
  113OSM   C18F11840  -0.463   4.407   8.518 -0.3691 -0.6198 -0.0910
  113OSM   H18F11841  -0.408   4.471   8.445 -0.4453 -2.1382 -1.5066
  113OSM   H18G11842  -0.574   4.414   8.516 -0.3384  0.1164  0.6352
  113OSM   H18H11843  -0.448   4.301   8.491 -0.5714 -0.5298 -0.5623
  114OSM      N11844   2.281   0.438  11.080 -0.6063  0.0511  0.7567
  114OSM    C1511845   2.239   0.456  11.220 -0.7078  0.3379  0.4594
  114OSM   H15A11846   2.131   0.451  11.222 -0.9004  3.2864 -0.1425
  114OSM   H15B11847   2.264   0.550  11.267  1.8168  0.0807 -0.2765
  114OSM   H15C11848   2.273   0.375  11.282 -1.1886 -0.0710  0.1984
  114OSM    C1411849   2.429   0.447  11.075  0.9123 -0.9621  0.3909
  114OSM   H14A11850   2.466   0.353  11.113  1.7425  0.0224  2.0383
  114OSM   H14B11851   2.471   0.523  11.139  1.2731 -1.6518  0.9733
  114OSM   H14C11852   2.470   0.460  10.976  1.0921 -0.0106  0.5884
  114OSM    C1311853   2.247   0.300  11.033 -0.5006  0.9177  0.5379
  114OSM   H13A11854   2.142   0.278  11.049 -0.7292  0.9416 -0.8384
  114OSM   H13B11855   2.304   0.227  11.089 -0.8118 -1.7282 -2.3850
  114OSM   H13C11856   2.265   0.285  10.927 -1.5310  2.0270  0.1970
  114OSM    C1211857   2.217   0.551  11.002  0.4137 -0.7552  0.7718
  114OSM   H12A11858   2.237   0.537  10.896  1.4163 -1.3505  1.0362
  114OSM   H12B11859   2.254   0.649  11.025 -1.1326  0.0660 -0.1860
  114OSM    C1111860   2.058   0.573  11.018 -0.5595  0.0038 -0.2622
  114OSM   H11A11861   2.036   0.660  10.952 -1.6581 -0.5871 -0.6978
  114OSM   H11B11862   2.040   0.605  11.123 -1.9539  4.1639 -1.6625
  114OSM      P11863   1.831   0.481  10.961  0.3880 -0.1104  0.2798
  114OSM    O1311864   1.762   0.479  11.091  0.0494  0.3491 -0.3913
  114OSM    O1411865   1.805   0.604  10.883 -0.0730  0.6967  0.3184
  114OSM    O1111866   1.793   0.352  10.873  0.8132  0.6226 -0.4694
  114OSM    O1211867   1.981   0.456  10.987  0.2931  0.2967  0.3608
  114OSM    C1S11868   1.669   0.343  10.800 -0.4147 -0.6429 -0.3026
  114OSM    H1S11869   1.594   0.418  10.833  1.3622  0.6054  0.9883
  114OSM    H1T11870   1.627   0.241  10.818 -0.0128 -0.6008  0.9878
  114OSM     NF11871   1.569   0.352  10.583  0.5544 -0.2233 -0.3340
  114OSM    HNF11872   1.559   0.268  10.531  1.6798 -0.0636 -0.8125
  114OSM    C2S11873   1.699   0.368  10.647  0.5453  0.2452 -0.0775
  114OSM    H2S11874   1.731   0.474  10.636  1.6734 -0.1102 -0.2497
  114OSM    C3S11875   1.815   0.269  10.599 -0.7199 -0.2541  0.4993
  114OSM    H3S11876   1.783   0.163  10.606  0.9386 -0.8800 -1.1533
  114OSM     O311877   1.939   0.271  10.670 -0.0116  0.5681  0.5341
  114OSM    HO311878   1.914   0.296  10.759  0.6910  1.6611  0.4360
  114OSM    C4S11879   1.832   0.295  10.454  1.0796 -0.4329 -0.2214
  114OSM    H4S11880   1.756   0.247  10.391  0.7963  0.1720 -0.3472
  114OSM    C5S11881   1.914   0.388  10.399  0.0135  0.2130 -0.2518
  114OSM    H5S11882   1.985   0.439  10.466  2.1031 -3.4751  0.5018
  114OSM    C6S11883   1.938   0.417  10.250 -0.1236  0.0754  0.4827
  114OSM    H6S11884   2.032   0.366  10.219 -0.8824 -1.4740  0.7247
  114OSM    H6T11885   1.941   0.525  10.223  1.0767  0.1430  0.8624
  114OSM    C7S11886   1.822   0.359  10.156 -0.0089  0.1701 -0.5085
  114OSM    H7S11887   1.727   0.405  10.189 -1.1401 -1.3833 -1.5520
  114OSM    H7T11888   1.799   0.253  10.179 -0.0032 -0.0513 -1.5197
  114OSM    C8S11889   1.856   0.376  10.010 -0.5331 -0.2054  0.5173
  114OSM    H8S11890   1.884   0.479   9.979 -1.8492  0.6289  2.0468
  114OSM    H8T11891   1.766   0.347   9.952  0.4816 -0.6025 -0.8794
  114OSM    C9S11892   1.967   0.277   9.963 -0.1862 -0.7119 -1.0891
  114OSM    H9S11893   1.939   0.183  10.016  0.4650 -0.5780 -0.4949
  114OSM    H9T11894   2.060   0.315  10.010 -0.9860  0.6262 -0.5655
  114OSM   C10S11895   1.968   0.243   9.816  0.6308  0.1066 -0.2510
  114OSM   H10S11896   1.877   0.188   9.785 -1.0559  3.6379 -1.9049
  114OSM   H10T11897   2.059   0.180   9.806  0.9946  0.5869 -0.0150
  114OSM   C11S11898   1.973   0.359   9.713 -0.1388 -0.0700  0.1010
  114OSM   H11S11899   2.063   0.420   9.738 -0.7469 -0.4725  3.4371
  114OSM   H11T11900   1.883   0.421   9.733 -1.5920 -1.7957 -1.0273
  114OSM   C12S11901   1.976   0.314   9.568  0.5891 -0.4249 -0.1967
  114OSM   H12S11902   1.897   0.240   9.546 -0.7044  0.8663  0.0015
  114OSM   H12T11903   2.074   0.269   9.540  1.6926  2.5355 -1.4262
  114OSM   C13S11904   1.947   0.431   9.471 -0.5782 -0.9584  0.3784
  114OSM   H13S11905   2.020   0.513   9.489  0.4810 -1.7529 -0.2525
  114OSM   H13T11906   1.842   0.466   9.481 -0.9215 -0.0504 -4.9072
  114OSM   C14S11907   1.955   0.380   9.324 -0.2030  0.0065  0.0360
  114OSM   H14S11908   1.892   0.290   9.311  0.1250 -0.0280 -1.3880
  114OSM   H14T11909   2.056   0.337   9.304  0.0414  0.7711 -0.4124
  114OSM   C15S11910   1.927   0.491   9.218  0.3060  0.1035  0.1736
  114OSM   H15S11911   2.014   0.559   9.210  0.2325  0.1335 -0.4054
  114OSM   H15T11912   1.828   0.540   9.228  0.2415  0.4988 -2.1724
  114OSM   C16S11913   1.927   0.424   9.073  0.2546 -0.1676  0.0819
  114OSM   H16S11914   1.827   0.387   9.043  0.3366 -0.5003  0.2175
  114OSM   H16T11915   1.991   0.334   9.086 -1.6772 -1.3579  1.5268
  114OSM   C17S11916   1.984   0.521   8.957 -0.0475 -0.0170  0.1808
  114OSM   H17S11917   2.035   0.464   8.876  0.4205 -0.1739  0.5847
  114OSM   H17T11918   2.068   0.581   8.999  1.2929 -1.6630 -0.0787
  114OSM   C18S11919   1.872   0.609   8.902  0.4544  0.0549 -0.3004
  114OSM   H18S11920   1.927   0.685   8.843 -0.4162 -0.3189 -1.5985
  114OSM   H18T11921   1.811   0.660   8.981  1.5505 -1.3355  1.4883
  114OSM   H18U11922   1.804   0.558   8.831  0.1434  0.0770 -0.0226
  114OSM    C1F11923   1.467   0.444  10.587 -0.0573 -0.0840 -0.0327
  114OSM     OF11924   1.467   0.536  10.667  0.2625 -0.3113 -0.5773
  114OSM    C2F11925   1.361   0.426  10.483  0.3811  0.6749  0.2259
  114OSM    H2F11926   1.287   0.351  10.516 -0.2275  0.4318 -1.6355
  114OSM    H2G11927   1.413   0.381  10.395  0.2413  0.2104  0.3777
  114OSM    C3F11928   1.278   0.549  10.447  0.2066 -0.3458  0.3425
  114OSM    H3F11929   1.221   0.574  10.539 -1.0591  1.1757 -0.8322
  114OSM    H3G11930   1.208   0.522  10.364 -0.8233 -0.5954  1.2703
  114OSM    C4F11931   1.354   0.673  10.393  0.2770  0.5139  0.3178
  114OSM    H4F11932   1.380   0.727  10.486  1.1228  2.9144 -1.2883
  114OSM    H4G11933   1.277   0.740  10.349 -0.4404 -0.3243  0.2756
  114OSM    C5F11934   1.476   0.646  10.302 -0.2846  0.3512 -0.5024
  114OSM    H5F11935   1.553   0.613  10.376 -0.5408  4.1655  1.5943
  114OSM    H5G11936   1.525   0.740  10.268 -1.6415  1.7364  1.2086
  114OSM    C6F11937   1.448   0.563  10.179 -0.0467 -0.1045  0.7736
  114OSM    H6F11938   1.350   0.513  10.199 -0.0190  0.1215  1.4958
  114OSM    H6G11939   1.516   0.476  10.169 -0.3465 -0.0125 -2.3394
  114OSM    C7F11940   1.454   0.650  10.054  0.0997  0.2529 -0.2043
  114OSM    H7F11941   1.559   0.685  10.043 -0.4381  1.6219 -1.1689
  114OSM    H7G11942   1.393   0.737  10.087  1.1630  0.7491  0.4711
  114OSM    C8F11943   1.424   0.591   9.913  0.2630  0.5015  0.0223
  114OSM    H8F11944   1.437   0.674   9.841 -1.0740  1.8995  1.3454
  114OSM    H8G11945   1.317   0.563   9.898  0.6007 -1.9034  1.8056
  114OSM    C9F11946   1.506   0.476   9.868  0.1027  0.3768  0.2136
  114OSM    H9F11947   1.569   0.437   9.949  0.6188  0.3742 -0.1866
  114OSM   C10F11948   1.506   0.425   9.745 -0.5353  0.4853  0.4975
  114OSM   H10F11949   1.571   0.341   9.715 -2.6270 -0.5568 -1.2365
  114OSM   C11F11950   1.413   0.470   9.645 -0.6360 -0.3876  0.2008
  114OSM   H11F11951   1.387   0.574   9.671  0.4676 -0.1111  0.2216
  114OSM   H11G11952   1.324   0.403   9.648 -0.9634 -0.0485 -1.2420
  114OSM   C12F11953   1.470   0.486   9.491 -0.2324 -0.4350 -0.7435
  114OSM   H12F11954   1.557   0.555   9.488 -1.7433  1.6713  1.6564
  114OSM   H12G11955   1.386   0.533   9.438 -0.2290  0.2966 -0.1135
  114OSM   C13F11956   1.517   0.356   9.431 -0.0049  0.5609  0.3843
  114OSM   H13F11957   1.448   0.278   9.469 -0.2132 -0.6882 -2.4313
  114OSM   H13G11958   1.617   0.336   9.474  0.2942 -0.5390 -0.7860
  114OSM   C14F11959   1.519   0.363   9.278  0.4312  0.0144  0.2029
  114OSM   H14F11960   1.572   0.277   9.232 -1.9981 -1.9259  0.9204
  114OSM   H14G11961   1.579   0.450   9.243  1.3916 -1.4200 -1.8283
  114OSM   C15F11962   1.377   0.370   9.213  0.1563 -0.2538  0.5772
  114OSM   H15F11963   1.307   0.446   9.255 -1.9596 -1.2085 -1.1343
  114OSM   H15G11964   1.326   0.272   9.222 -0.9818  0.2272 -0.4740
  114OSM   C16F11965   1.396   0.402   9.065 -0.0188  1.0500  0.2727
  114OSM   H16F11966   1.446   0.309   9.028 -1.0195  0.2538  0.8922
  114OSM   H16G11967   1.455   0.494   9.048 -1.3674  1.5871 -1.6232
  114OSM   C17F11968   1.260   0.394   8.989  0.1076  0.3674 -0.0446
  114OSM   H17F11969   1.214   0.495   8.989 -3.0748 -1.0475 -0.4207
  114OSM   H17G11970   1.179   0.334   9.036  1.1388 -0.6051  0.5341
  114OSM   C18F11971   1.257   0.354   8.839 -0.3887  0.3566 -0.4994
  114OSM   H18F11972   1.152   0.358   8.804 -0.7632 -0.3996  0.5126
  114OSM   H18G11973   1.304   0.255   8.816  2.0485  1.7280 -1.6596
  114OSM   H18H11974   1.315   0.422   8.773  1.1774 -1.0158 -0.5986
  115OSM      N11975   5.486   6.582  11.253  0.0417 -0.2502 -0.8982
  115OSM    C1511976   5.335   6.570  11.277  0.2354  0.7732 -0.8757
  115OSM   H15A11977   5.301   6.606  11.373  0.8312  0.3110 -0.4881
  115OSM   H15B11978   5.300   6.468  11.268 -1.3373  1.1979  0.1378
  115OSM   H15C11979   5.281   6.613  11.194 -1.8539 -0.6161 -0.2886
  115OSM    C1411980   5.519   6.726  11.249  0.3391  0.3927  0.3165
  115OSM   H14A11981   5.622   6.747  11.227  0.8333 -1.0867  1.1129
  115OSM   H14B11982   5.501   6.772  11.345  1.3616  2.8206 -0.6189
  115OSM   H14C11983   5.461   6.780  11.176 -1.4704 -1.0458  0.6423
  115OSM    C1311984   5.572   6.536  11.366  0.0727  0.2855 -0.1432
  115OSM   H13A11985   5.670   6.581  11.363 -0.2239  0.8971 -0.9390
  115OSM   H13B11986   5.576   6.428  11.368 -1.8500  0.2041  0.4361
  115OSM   H13C11987   5.519   6.563  11.456 -1.5132 -0.3703 -0.8498
  115OSM    C1211988   5.536   6.523  11.120 -0.4059  0.2692  0.2467
  115OSM   H12A11989   5.539   6.415  11.128  0.7575  0.2916  0.1868
  115OSM   H12B11990   5.636   6.560  11.105  0.4560 -0.6797  3.3070
  115OSM    C1111991   5.460   6.530  10.990 -0.4333 -0.4962  0.4251
  115OSM   H11A11992   5.534   6.493  10.915  1.1828 -0.0323  1.7620
  115OSM   H11B11993   5.434   6.634  10.960 -1.5859 -0.0147  2.9913
  115OSM      P11994   5.312   6.320  11.003 -0.1196  0.5067  0.0004
  115OSM    O1311995   5.411   6.261  11.097  0.3449  0.4130  0.7833
  115OSM    O1411996   5.170   6.306  11.028 -0.2819 -0.9363  0.0907
  115OSM    O1111997   5.343   6.270  10.855  0.4286  0.7517  0.0158
  115OSM    O1211998   5.332   6.475  10.997  0.3573 -0.4768 -0.0006
  115OSM    C1S11999   5.281   6.340  10.746  0.1491 -0.4179 -0.5657
  115OSM    H1S12000   5.334   6.436  10.725 -1.2579  0.9735  1.9833
  115OSM    H1T12001   5.176   6.368  10.771  1.2716  1.9490  1.6855
  115OSM     NF12002   5.302   6.355  10.498 -0.0372 -0.2194  0.3309
  115OSM    HNF12003   5.228   6.389  10.440  1.2165  1.5911 -0.2566
  115OSM    C2S12004   5.291   6.263  10.614  0.2025 -0.6222  0.1575
  115OSM    H2S12005   5.379   6.195  10.613 -0.4359 -1.4977  2.5080
  115OSM    C3S12006   5.162   6.169  10.609  0.2844 -0.4782 -0.1925
  115OSM    H3S12007   5.077   6.241  10.606  1.8838  1.4260 -0.9539
  115OSM     O312008   5.145   6.085  10.723  0.4466  0.0618 -0.3635
  115OSM    HO312009   5.208   6.117  10.788  0.0616 -0.2942  0.1886
  115OSM    C4S12010   5.164   6.090  10.478 -0.6496 -0.9363 -0.4856
  115OSM    H4S12011   5.105   6.131  10.395  1.2335 -2.2965 -2.5652
  115OSM    C5S12012   5.209   5.964  10.472 -0.3666  0.0989 -1.0497
  115OSM    H5S12013   5.246   5.920  10.565 -1.6027  2.9178  0.8332
  115OSM    C6S12014   5.210   5.874  10.350  0.0170  0.2160 -0.4307
  115OSM    H6S12015   5.172   5.772  10.372 -1.5584  1.1512  1.2676
  115OSM    H6T12016   5.321   5.864  10.343  0.2333 -0.1747  2.8933
  115OSM    C7S12017   5.154   5.924  10.212 -0.1766  0.0511 -0.3296
  115OSM    H7S12018   5.197   6.024  10.191 -1.4451  0.6464 -0.2001
  115OSM    H7T12019   5.050   5.952  10.241  0.0932 -1.0542  1.8645
  115OSM    C8S12020   5.165   5.826  10.101 -0.9575  0.1276 -0.3660
  115OSM    H8S12021   5.117   5.731  10.131 -0.8157  0.1734  0.0154
  115OSM    H8T12022   5.268   5.806  10.064 -0.5169  3.5983 -1.1451
  115OSM    C9S12023   5.083   5.876   9.979 -0.2276 -0.2943 -0.4362
  115OSM    H9S12024   5.115   5.980   9.957  2.7660 -0.6220  2.0661
  115OSM    H9T12025   4.974   5.863   9.999  0.4878 -3.6535  1.6772
  115OSM   C10S12026   5.123   5.802   9.851  0.1685  0.5652  0.1867
  115OSM   H10S12027   5.112   5.693   9.867  0.3644  0.7055  1.3189
  115OSM   H10T12028   5.230   5.817   9.826  0.2706 -0.9598 -0.3462
  115OSM   C11S12029   5.038   5.854   9.738 -0.3675 -0.3634  0.5628
  115OSM   H11S12030   5.072   5.958   9.719  3.3188 -1.5280  0.3927
  115OSM   H11T12031   4.932   5.874   9.762 -0.9597 -1.2853 -1.1804
  115OSM   C12S12032   5.075   5.778   9.607  0.0710  0.4553  0.9174
  115OSM   H12S12033   5.058   5.669   9.619 -3.1327  0.5681 -1.9116
  115OSM   H12T12034   5.186   5.777   9.597 -0.1541  1.3593 -1.9446
  115OSM   C13S12035   4.991   5.823   9.486 -0.6385  0.4228  0.4322
  115OSM   H13S12036   4.993   5.934   9.476  2.5977  0.3106 -1.0214
  115OSM   H13T12037   4.888   5.798   9.517 -0.0945 -1.5984  0.6602
  115OSM   C14S12038   5.024   5.753   9.344 -0.3641 -1.1900 -0.2487
  115OSM   H14S12039   5.079   5.657   9.357 -0.4682 -0.8578  2.8434
  115OSM   H14T12040   5.095   5.815   9.286  0.5598  0.0119  2.1038
  115OSM   C15S12041   4.890   5.734   9.261 -0.3256 -0.4071 -0.2229
  115OSM   H15S12042   4.848   5.834   9.238  0.1386 -0.2914 -0.5816
  115OSM   H15T12043   4.811   5.678   9.315 -1.2526  2.0552  1.0531
  115OSM   C16S12044   4.899   5.665   9.123 -0.4046  0.5824 -0.0371
  115OSM   H16S12045   4.797   5.636   9.093 -0.5589  0.5800  0.4819
  115OSM   H16T12046   4.968   5.579   9.138 -0.9520  0.1802  0.1406
  115OSM   C17S12047   4.967   5.752   9.012  0.3388  0.1312 -0.2607
  115OSM   H17S12048   5.075   5.774   9.023  0.5652  0.3760 -2.7055
  115OSM   H17T12049   4.916   5.850   9.016 -0.3329 -0.2172 -0.1134
  115OSM   C18S12050   4.954   5.683   8.872 -0.2322  0.0371 -0.3971
  115OSM   H18S12051   4.848   5.680   8.837 -0.6881  1.6662  0.7758
  115OSM   H18T12052   5.001   5.583   8.876  1.8264  1.0449  2.4978
  115OSM   H18U12053   5.008   5.738   8.792 -0.3410 -1.3822 -1.4545
  115OSM    C1F12054   5.418   6.411  10.480 -0.6491 -0.2344  0.6171
  115OSM     OF12055   5.523   6.362  10.523 -0.3927  0.1524  0.6464
  115OSM    C2F12056   5.416   6.527  10.392 -0.2299 -0.1220  0.2103
  115OSM    H2F12057   5.318   6.539  10.341  0.1738 -0.5175 -0.6661
  115OSM    H2G12058   5.478   6.481  10.312 -0.2061 -0.9137  0.6777
  115OSM    C3F12059   5.485   6.654  10.435 -0.8042  0.3582 -0.3365
  115OSM    H3F12060   5.590   6.633  10.464 -1.5339 -0.2873  2.0338
  115OSM    H3G12061   5.435   6.692  10.527  1.7229  1.7999  0.4679
  115OSM    C4F12062   5.489   6.769  10.333 -0.0666 -0.2873  0.0589
  115OSM    H4F12063   5.561   6.756  10.249 -0.7158 -2.0234 -0.2354
  115OSM    H4G12064   5.512   6.859  10.395 -2.1581  0.0279  0.3976
  115OSM    C5F12065   5.347   6.799  10.277  0.1717  0.0807 -0.1658
  115OSM    H5F12066   5.269   6.802  10.357  0.0192 -3.5503 -0.0850
  115OSM    H5G12067   5.319   6.717  10.208  2.7485 -1.5695  0.6537
  115OSM    C6F12068   5.337   6.937  10.219 -0.3044  0.5197  0.2834
  115OSM    H6F12069   5.337   7.014  10.299 -1.4129  0.5881  0.2377
  115OSM    H6G12070   5.243   6.940  10.159 -0.4228  1.9379  0.5176
  115OSM    C7F12071   5.454   6.972  10.129 -0.3929 -0.7175 -0.0053
  115OSM    H7F12072   5.473   6.896  10.050 -2.1277 -2.7060  1.4351
  115OSM    H7G12073   5.544   6.967  10.193  1.3525  0.7590 -2.2709
  115OSM    C8F12074   5.443   7.114  10.073  0.0350 -0.0287 -0.5452
  115OSM    H8F12075   5.543   7.148  10.039  0.0997 -0.3834 -0.7133
  115OSM    H8G12076   5.418   7.172  10.165  0.0064  1.0379 -1.2187
  115OSM    C9F12077   5.337   7.111   9.968 -0.6636  0.0534  0.8968
  115OSM    H9F12078   5.235   7.122  10.009 -1.5144 -0.5200 -0.9967
  115OSM   C10F12079   5.353   7.098   9.835  0.0525  0.0682 -0.4605
  115OSM   H10F12080   5.265   7.110   9.770 -0.7730  1.0723  0.8153
  115OSM   C11F12081   5.480   7.084   9.760 -0.8252  0.2154  0.6042
  115OSM   H11F12082   5.484   6.977   9.731 -0.7378  0.4039 -0.0700
  115OSM   H11G12083   5.558   7.100   9.838 -0.2356 -0.1135  0.0819
  115OSM   C12F12084   5.509   7.159   9.629  0.0716  0.4562 -0.0137
  115OSM   H12F12085   5.618   7.168   9.608  0.5514 -0.1394  2.1297
  115OSM   H12G12086   5.479   7.263   9.654  0.3207  0.2931  0.9912
  115OSM   C13F12087   5.428   7.114   9.506 -0.8450 -0.0608  0.4210
  115OSM   H13F12088   5.327   7.158   9.512 -0.7740  0.3205 -0.8980
  115OSM   H13G12089   5.421   7.004   9.515  1.3198 -0.0181  3.6610
  115OSM   C14F12090   5.495   7.159   9.374  0.2253 -0.1052 -0.2337
  115OSM   H14F12091   5.601   7.126   9.377  0.6092  1.2319  1.6639
  115OSM   H14G12092   5.491   7.270   9.373 -2.0806 -0.1608 -0.3199
  115OSM   C15F12093   5.435   7.096   9.248 -0.3269 -0.0350 -0.2660
  115OSM   H15F12094   5.333   7.141   9.246 -0.8329 -1.1423 -0.1608
  115OSM   H15G12095   5.423   6.985   9.247  1.2266 -0.2672  2.0810
  115OSM   C16F12096   5.529   7.130   9.130 -0.0493 -0.2281  0.7347
  115OSM   H16F12097   5.623   7.073   9.149 -1.4205 -2.6767  0.4151
  115OSM   H16G12098   5.556   7.237   9.145 -3.2142  0.7967 -0.6223
  115OSM   C17F12099   5.471   7.097   8.989 -0.2969  0.3757 -1.1499
  115OSM   H17F12100   5.377   7.155   8.990 -0.7234 -0.0843  4.0759
  115OSM   H17G12101   5.455   6.989   8.968  1.5501  0.0083 -0.8004
  115OSM   C18F12102   5.564   7.144   8.879 -0.0592 -0.1658 -0.4696
  115OSM   H18F12103   5.595   7.246   8.912 -0.0729 -0.9279  2.0350
  115OSM   H18G12104   5.509   7.150   8.783  1.4544  2.0737 -1.2404
  115OSM   H18H12105   5.648   7.074   8.862  0.7087  0.3410  1.1195
  116OSM      N12106   1.698   2.573  10.813 -0.5143 -0.5001  0.6993
  116OSM    C1512107   1.550   2.569  10.803 -0.1646 -0.2989  0.4902
  116OSM   H15A12108   1.503   2.662  10.833  0.2194  0.7400 -1.9911
  116OSM   H15B12109   1.515   2.486  10.862 -0.8883 -1.9638 -2.1713
  116OSM   H15C12110   1.518   2.532  10.707  0.1351  0.2384  0.1831
  116OSM    C1412111   1.743   2.572  10.950  1.1429 -0.3560 -0.2989
  116OSM   H14A12112   1.710   2.482  11.000  0.7851 -0.0196  0.0821
  116OSM   H14B12113   1.692   2.649  11.007  0.2983 -0.1535 -1.3184
  116OSM   H14C12114   1.847   2.585  10.976  1.6355 -2.5764 -1.1209
  116OSM    C1312115   1.763   2.461  10.737  0.5957  0.3831 -0.5383
  116OSM   H13A12116   1.733   2.366  10.779  2.1135 -1.9863 -4.5056
  116OSM   H13B12117   1.870   2.472  10.730  0.5745  1.2211  0.2752
  116OSM   H13C12118   1.719   2.462  10.638 -1.3597  0.9151  0.3242
  116OSM    C1212119   1.747   2.698  10.744  0.4392 -0.3576 -0.5826
  116OSM   H12A12120   1.694   2.779  10.792 -1.3044 -1.7572 -0.0921
  116OSM   H12B12121   1.695   2.710  10.650 -0.7274  0.0880  0.1054
  116OSM    C1112122   1.886   2.739  10.736  0.1076 -0.4901  0.3494
  116OSM   H11A12123   1.888   2.846  10.705  0.4072 -1.1872 -2.1346
  116OSM   H11B12124   1.932   2.693  10.645  1.1450  0.7528  0.2231
  116OSM      P12125   2.052   2.823  10.926 -0.3409 -0.0267 -0.1079
  116OSM    O1312126   1.960   2.911  11.000 -0.6162  0.7721 -0.3677
  116OSM    O1412127   2.160   2.755  10.998  0.0630  0.3694  0.2009
  116OSM    O1112128   2.107   2.902  10.802 -0.2384  0.0746  0.3425
  116OSM    O1212129   1.972   2.706  10.848 -0.4846  0.7957 -0.7479
  116OSM    C1S12130   2.196   2.838  10.709  0.2121  0.4043 -0.4726
  116OSM    H1S12131   2.185   2.728  10.707 -2.3184  0.6663 -2.2527
  116OSM    H1T12132   2.302   2.852  10.740  0.6610 -1.2093 -1.2486
  116OSM     NF12133   2.255   2.801  10.473 -0.2851 -0.3955 -0.0693
  116OSM    HNF12134   2.327   2.863  10.443 -1.4627  0.4565 -1.1679
  116OSM    C2S12135   2.170   2.877  10.565  0.8142 -0.0459  1.0191
  116OSM    H2S12136   2.065   2.854  10.537  1.7135 -1.1594 -1.5518
  116OSM    C3S12137   2.195   3.038  10.567  0.0330  0.1828  0.0549
  116OSM    H3S12138   2.295   3.063  10.610 -0.6077  1.3728  0.8765
  116OSM     O312139   2.116   3.112  10.659  0.2116  0.1607 -0.6276
  116OSM    HO312140   2.097   3.044  10.724  2.4642 -0.1022 -0.2001
  116OSM    C4S12141   2.177   3.094  10.432  0.1542 -0.2561  0.5956
  116OSM    H4S12142   2.220   3.037  10.348  0.7938 -0.5080  1.0943
  116OSM    C5S12143   2.094   3.196  10.391  0.4682  0.3519 -0.3190
  116OSM    H5S12144   2.049   3.255  10.472  1.1218  1.9271 -1.0699
  116OSM    C6S12145   2.055   3.244  10.256  0.6074  0.0506  0.1937
  116OSM    H6S12146   2.064   3.353  10.273 -1.3266 -0.0067  1.7121
  116OSM    H6T12147   1.948   3.212  10.258  0.8319 -0.6340  1.4583
  116OSM    C7S12148   2.136   3.187  10.142  0.3175  0.6519 -0.0153
  116OSM    H7S12149   2.153   3.078  10.153 -1.9331  0.1404 -1.3631
  116OSM    H7T12150   2.239   3.229  10.138  1.1756 -1.5292 -1.5994
  116OSM    C8S12151   2.073   3.219  10.000 -0.3297 -0.4565 -0.5297
  116OSM    H8S12152   1.963   3.203  10.006 -0.3239  0.3281  2.3089
  116OSM    H8T12153   2.132   3.172   9.918  2.6909  0.7445  0.8625
  116OSM    C9S12154   2.086   3.375   9.975  0.9856  0.5944  0.0778
  116OSM    H9S12155   2.188   3.400   9.940  0.9200 -0.6526 -1.0651
  116OSM    H9T12156   2.069   3.438  10.065  1.2424  0.3908  0.2734
  116OSM   C10S12157   1.995   3.430   9.863  0.0089  0.4426 -0.6113
  116OSM   H10S12158   2.043   3.527   9.839 -3.0782  1.9691 -0.9074
  116OSM   H10T12159   1.887   3.431   9.891  0.5400  1.6310  1.5046
  116OSM   C11S12160   1.984   3.359   9.726  0.3228 -0.3191  0.2996
  116OSM   H11S12161   1.925   3.267   9.749 -0.7238  0.7475  2.0175
  116OSM   H11T12162   2.081   3.330   9.680  0.6741 -1.1470  1.5572
  116OSM   C12S12163   1.908   3.449   9.620  0.2491 -0.6066  0.1787
  116OSM   H12S12164   1.970   3.537   9.596 -0.5285 -0.0581  0.1501
  116OSM   H12T12165   1.811   3.478   9.666  0.0256  2.7315 -2.2445
  116OSM   C13S12166   1.889   3.378   9.483  0.7161  0.0704  0.1332
  116OSM   H13S12167   1.829   3.286   9.499  3.0950 -1.3561  1.0421
  116OSM   H13T12168   1.982   3.339   9.436 -0.5344 -0.9361 -1.5569
  116OSM   C14S12169   1.834   3.463   9.364  0.0792  0.6916 -0.2083
  116OSM   H14S12170   1.839   3.396   9.276 -1.8975  0.1361  0.0670
  116OSM   H14T12171   1.897   3.555   9.361  2.0143 -0.5304  1.4344
  116OSM   C15S12172   1.697   3.522   9.394 -0.6723  0.4174 -0.2502
  116OSM   H15S12173   1.707   3.614   9.456  0.7614  1.6210 -2.2076
  116OSM   H15T12174   1.644   3.448   9.458 -1.2704  1.0034 -0.0530
  116OSM   C16S12175   1.614   3.560   9.267  0.6439 -0.5961  0.5123
  116OSM   H16S12176   1.589   3.469   9.208  0.2923 -0.7133  0.8448
  116OSM   H16T12177   1.686   3.609   9.197 -1.7557 -0.5352 -1.9645
  116OSM   C17S12178   1.495   3.654   9.299 -0.2890 -0.4687 -0.3303
  116OSM   H17S12179   1.524   3.732   9.373 -1.5812  0.5519 -0.8751
  116OSM   H17T12180   1.419   3.596   9.355 -1.4782  2.3954  1.1430
  116OSM   C18S12181   1.434   3.722   9.174  0.2727 -0.4817 -0.1934
  116OSM   H18S12182   1.335   3.765   9.199 -0.0003 -1.7383  0.9716
  116OSM   H18T12183   1.410   3.657   9.087 -1.8032  1.1527 -0.8969
  116OSM   H18U12184   1.511   3.796   9.142  0.2621 -0.7077 -0.7568
  116OSM    C1F12185   2.251   2.669  10.439  0.5866 -0.3359 -0.0951
  116OSM     OF12186   2.150   2.606  10.479 -0.7969  0.2873 -0.0420
  116OSM    C2F12187   2.355   2.617  10.354 -0.1271 -0.0783  0.4352
  116OSM    H2F12188   2.451   2.643  10.403  0.6081 -2.0144  0.0471
  116OSM    H2G12189   2.357   2.665  10.253  3.4778 -2.6076 -0.7853
  116OSM    C3F12190   2.337   2.473  10.308  0.0648  0.1758  0.6799
  116OSM    H3F12191   2.243   2.462  10.249  0.4415 -1.4793  0.3566
  116OSM    H3G12192   2.327   2.410  10.399  1.6334 -0.6568  0.2994
  116OSM    C4F12193   2.450   2.402  10.236  0.2678  0.6413  0.8206
  116OSM    H4F12194   2.428   2.297  10.208 -0.8260  0.8924  0.7114
  116OSM    H4G12195   2.546   2.411  10.291 -0.5882 -2.1386  2.8735
  116OSM    C5F12196   2.483   2.461  10.100 -0.0812 -0.0524 -0.0806
  116OSM    H5F12197   2.575   2.424  10.051 -1.4821 -2.3503 -1.1056
  116OSM    H5G12198   2.497   2.571  10.106  3.7294 -0.4248 -1.2746
  116OSM    C6F12199   2.385   2.428   9.989 -0.1885  0.2882  0.7955
  116OSM    H6F12200   2.279   2.449  10.013 -0.4167 -1.1134  1.0697
  116OSM    H6G12201   2.380   2.319   9.969 -1.2212  0.3289  0.7900
  116OSM    C7F12202   2.415   2.493   9.848 -0.2038  0.5431  1.1699
  116OSM    H7F12203   2.521   2.474   9.824 -1.1194 -1.2650 -1.6586
  116OSM    H7G12204   2.391   2.601   9.859 -0.4812  0.5472  0.5646
  116OSM    C8F12205   2.335   2.415   9.738  0.0273 -0.1609 -0.3851
  116OSM    H8F12206   2.227   2.437   9.753  0.0553 -0.6207  0.4646
  116OSM    H8G12207   2.363   2.309   9.750 -0.3328 -0.3638 -1.2806
  116OSM    C9F12208   2.371   2.478   9.604  0.1338 -0.1574  0.2207
  116OSM    H9F12209   2.351   2.586   9.604 -2.0106 -0.5261  1.2299
  116OSM   C10F12210   2.432   2.421   9.494 -0.8278 -0.2289 -0.5633
  116OSM   H10F12211   2.460   2.489   9.412 -0.2574 -0.4735 -0.5731
  116OSM   C11F12212   2.487   2.284   9.493 -0.1099  0.1079  0.5166
  116OSM   H11F12213   2.443   2.226   9.577 -1.6728  1.1142  0.4064
  116OSM   H11G12214   2.597   2.292   9.510  0.0460 -0.6119 -0.1410
  116OSM   C12F12215   2.451   2.194   9.373 -0.1859  0.2240 -0.8194
  116OSM   H12F12216   2.346   2.159   9.375  0.7195 -2.5492  2.2792
  116OSM   H12G12217   2.511   2.101   9.381 -3.0942 -1.7743 -1.5207
  116OSM   C13F12218   2.489   2.256   9.237 -0.2678  0.3780  0.4405
  116OSM   H13F12219   2.599   2.274   9.232 -0.6370  2.5868 -0.4129
  116OSM   H13G12220   2.439   2.355   9.222  1.5652  1.0637 -1.5186
  116OSM   C14F12221   2.457   2.158   9.123 -0.0575  0.2412 -0.2362
  116OSM   H14F12222   2.348   2.145   9.109 -0.1605  1.1423 -0.3233
  116OSM   H14G12223   2.491   2.055   9.144 -0.0705  0.4540  0.8641
  116OSM   C15F12224   2.514   2.199   8.983  0.5290  0.3092 -0.1669
  116OSM   H15F12225   2.501   2.310   8.977 -2.0198  0.0545 -0.1424
  116OSM   H15G12226   2.465   2.149   8.897 -2.0484  0.0737  1.3758
  116OSM   C16F12227   2.665   2.193   8.970  0.5556  0.0247  0.4460
  116OSM   H16F12228   2.702   2.089   8.984  0.4416 -0.0217  0.3986
  116OSM   H16G12229   2.721   2.249   9.049 -0.3841  0.4166  0.8361
  116OSM   C17F12230   2.717   2.238   8.827 -0.0307  0.1713  0.7167
  116OSM   H17F12231   2.679   2.336   8.791  2.2695  0.4519 -1.1079
  116OSM   H17G12232   2.690   2.158   8.756  2.0906 -1.6108  1.8702
  116OSM   C18F12233   2.873   2.246   8.833 -0.3144  0.1476  0.1877
  116OSM   H18F12234   2.915   2.157   8.883 -0.7726  1.1567  2.4495
  116OSM   H18G12235   2.900   2.338   8.890 -2.2197  0.6754  0.2779
  116OSM   H18H12236   2.913   2.272   8.733 -1.3194  0.8574 -0.0363
  117OSM      N12237   6.396   4.291  11.071 -0.0472 -0.3808  0.5044
  117OSM    C1512238   6.382   4.436  11.093 -0.1222  0.7316 -0.3584
  117OSM   H15A12239   6.476   4.488  11.093  0.7617 -0.8617 -1.1855
  117OSM   H15B12240   6.353   4.460  11.194  1.1901  1.4961 -0.1542
  117OSM   H15C12241   6.309   4.472  11.022  0.5905  0.2081 -1.3667
  117OSM    C1412242   6.470   4.226  11.187 -0.4010 -0.1602  0.5226
  117OSM   H14A12243   6.422   4.233  11.284  0.3079  0.6146  0.8297
  117OSM   H14B12244   6.572   4.260  11.195 -0.6185  1.0677 -1.5141
  117OSM   H14C12245   6.468   4.120  11.170 -1.0589  0.4785 -3.9625
  117OSM    C1312246   6.259   4.224  11.052 -0.4930 -0.2337 -0.3559
  117OSM   H13A12247   6.194   4.250  11.134 -1.2624  0.7476 -1.2420
  117OSM   H13B12248   6.269   4.117  11.049  0.9690 -0.1238  0.2863
  117OSM   H13C12249   6.214   4.264  10.962 -1.6159  0.3385  0.4427
  117OSM    C1212250   6.479   4.266  10.939  0.9217 -0.5069 -1.1964
  117OSM   H12A12251   6.580   4.287  10.971  0.7296 -2.9265  1.1424
  117OSM   H12B12252   6.452   4.345  10.870  2.4551  1.6333  0.5792
  117OSM    C1112253   6.476   4.133  10.862 -0.3166  0.5296 -0.2493
  117OSM   H11A12254   6.511   4.139  10.757 -1.2683 -1.2733 -0.6967
  117OSM   H11B12255   6.372   4.095  10.857 -0.2067  0.3020 -0.7906
  117OSM      P12256   6.511   3.892  10.935  0.2743  0.6457  0.5632
  117OSM    O1312257   6.615   3.811  11.007  0.2734  0.8179 -0.2944
  117OSM    O1412258   6.371   3.885  10.978 -0.7505 -1.2134  0.4424
  117OSM    O1112259   6.517   3.869  10.779 -0.5202 -0.5675 -0.1337
  117OSM    O1212260   6.554   4.046  10.940 -0.0415 -0.3808 -0.3559
  117OSM    C1S12261   6.636   3.847  10.705  0.4912  0.5206 -0.2611
  117OSM    H1S12262   6.684   3.750  10.728  0.7679  0.2441 -1.9580
  117OSM    H1T12263   6.718   3.917  10.729  0.8381  0.4415 -1.2070
  117OSM     NF12264   6.753   3.844  10.492  0.3299  0.2450  0.5973
  117OSM    HNF12265   6.779   3.933  10.454 -2.3588  0.0946 -1.7544
  117OSM    C2S12266   6.621   3.836  10.548 -0.0575 -0.1496  1.0104
  117OSM    H2S12267   6.581   3.734  10.530  1.5507 -0.6029 -0.0711
  117OSM    C3S12268   6.529   3.948  10.483  0.1806 -0.1241  0.1122
  117OSM    H3S12269   6.567   4.052  10.497  1.3354 -0.6856  1.2372
  117OSM     O312270   6.399   3.943  10.536  0.4360  0.1916 -0.1619
  117OSM    HO312271   6.421   3.916  10.626 -1.4351 -2.7596 -0.5231
  117OSM    C4S12272   6.530   3.913  10.331  0.1220  0.0574  0.4188
  117OSM    H4S12273   6.589   3.984  10.271 -1.2761 -1.6207 -3.1280
  117OSM    C5S12274   6.459   3.818  10.270  0.2253  0.7254 -0.1215
  117OSM    H5S12275   6.390   3.765  10.337 -0.2051  0.7189 -0.5726
  117OSM    C6S12276   6.453   3.789  10.125  0.1935  0.2221  0.2372
  117OSM    H6S12277   6.353   3.805  10.080  0.5855 -2.1014 -1.6474
  117OSM    H6T12278   6.469   3.680  10.106  1.9351  0.1548  1.8871
  117OSM    C7S12279   6.556   3.862  10.035 -0.7888 -0.5837 -0.2673
  117OSM    H7S12280   6.661   3.850  10.069 -0.4240 -1.5458 -1.6911
  117OSM    H7T12281   6.517   3.966  10.035  0.5174 -0.0628 -2.6453
  117OSM    C8S12282   6.542   3.809   9.888 -0.0505 -0.0975  0.0249
  117OSM    H8S12283   6.447   3.844   9.841 -0.2255 -0.3343  0.2060
  117OSM    H8T12284   6.530   3.701   9.906  1.5610 -0.5641 -1.5696
  117OSM    C9S12285   6.666   3.835   9.811 -0.2743 -0.3478 -0.4740
  117OSM    H9S12286   6.758   3.784   9.848  0.6244  0.7075 -1.2129
  117OSM    H9T12287   6.674   3.945   9.823  1.2546 -0.3994 -0.9312
  117OSM   C10S12288   6.657   3.793   9.664 -0.1791  0.1537  0.0882
  117OSM   H10S12289   6.574   3.852   9.620 -0.0726  1.1344  1.1846
  117OSM   H10T12290   6.644   3.684   9.650  2.9082 -0.5663  2.4271
  117OSM   C11S12291   6.778   3.841   9.583 -0.1082  0.2916 -0.3405
  117OSM   H11S12292   6.866   3.831   9.650  0.0910  0.0003 -0.6449
  117OSM   H11T12293   6.771   3.951   9.570 -0.7324  0.4341  1.0839
  117OSM   C12S12294   6.797   3.749   9.456 -0.2454  0.3802  0.5274
  117OSM   H12S12295   6.816   3.642   9.479 -1.6692 -0.4053 -1.7254
  117OSM   H12T12296   6.889   3.783   9.404  0.3738  0.5705  1.7371
  117OSM   C13S12297   6.670   3.758   9.366 -0.0433 -0.4608 -0.1661
  117OSM   H13S12298   6.625   3.860   9.363 -0.3418 -0.5475  1.0358
  117OSM   H13T12299   6.590   3.694   9.409  0.1218 -0.8924 -0.5061
  117OSM   C14S12300   6.714   3.716   9.226 -0.2999 -0.0568  0.0848
  117OSM   H14S12301   6.733   3.607   9.223 -0.0328  0.0227 -4.2308
  117OSM   H14T12302   6.798   3.780   9.191 -0.9833  1.8648  1.8661
  117OSM   C15S12303   6.603   3.720   9.120  1.0011 -0.4779 -0.4751
  117OSM   H15S12304   6.576   3.827   9.125 -1.7272 -1.1537 -0.3487
  117OSM   H15T12305   6.521   3.654   9.155  1.2020  0.2603  1.4624
  117OSM   C16S12306   6.649   3.674   8.978 -0.1647  0.5107  0.1075
  117OSM   H16S12307   6.561   3.693   8.912  0.3982 -1.4901 -1.2889
  117OSM   H16T12308   6.674   3.566   8.986  0.7001  0.6617 -0.4301
  117OSM   C17S12309   6.774   3.747   8.925  0.0256 -1.1420  0.0131
  117OSM   H17S12310   6.859   3.712   8.988 -0.8991  0.5837  2.2934
  117OSM   H17T12311   6.756   3.853   8.951 -1.6589 -1.5611  0.6410
  117OSM   C18S12312   6.805   3.720   8.780  0.8133 -0.8616 -0.0331
  117OSM   H18S12313   6.821   3.612   8.756  1.1644 -1.6303  3.4167
  117OSM   H18T12314   6.893   3.779   8.748  1.7921 -2.6895 -0.7963
  117OSM   H18U12315   6.713   3.752   8.726  2.0340  2.1347 -0.4009
  117OSM    C1F12316   6.836   3.739  10.485  0.3171  0.3332  0.7842
  117OSM     OF12317   6.803   3.629  10.522  0.0349 -0.0376  0.1164
  117OSM    C2F12318   6.969   3.759  10.417  0.2390  0.0259  0.1198
  117OSM    H2F12319   7.050   3.733  10.488 -0.6377 -1.0373  0.7362
  117OSM    H2G12320   6.978   3.867  10.391 -2.4700 -0.5278 -3.4604
  117OSM    C3F12321   6.989   3.665  10.299 -0.3502  0.0528  0.0205
  117OSM    H3F12322   6.999   3.560  10.334 -0.3290  0.1106  0.1883
  117OSM    H3G12323   7.093   3.677  10.261 -0.6238 -0.9396 -1.0887
  117OSM    C4F12324   6.882   3.673  10.191 -0.3166 -0.1254  0.5604
  117OSM    H4F12325   6.873   3.768  10.134 -1.7995 -0.8226 -0.3941
  117OSM    H4G12326   6.783   3.659  10.240 -0.6918 -2.2296 -0.7432
  117OSM    C5F12327   6.900   3.557  10.090  0.6410  0.4108 -0.3604
  117OSM    H5F12328   6.809   3.553  10.028 -0.4047  0.6390  1.1304
  117OSM    H5G12329   6.904   3.463  10.151 -2.3058 -0.6193 -1.6777
  117OSM    C6F12330   7.022   3.561   9.996  0.5801  0.4592  0.1201
  117OSM    H6F12331   7.116   3.547  10.053  0.9399  1.3605 -0.2465
  117OSM    H6G12332   7.023   3.652   9.933 -0.7432  1.1915  1.1272
  117OSM    C7F12333   7.016   3.453   9.893 -0.0841 -0.3969 -0.6435
  117OSM    H7F12334   6.952   3.496   9.813  1.3208  2.9621 -0.0678
  117OSM    H7G12335   6.974   3.364   9.943 -0.7924 -0.3822 -1.2113
  117OSM    C8F12336   7.159   3.412   9.851 -0.1036 -0.5375  0.8830
  117OSM    H8F12337   7.205   3.360   9.937  0.5213 -0.9125  0.3208
  117OSM    H8G12338   7.218   3.502   9.824 -0.1262 -1.5068 -2.7653
  117OSM    C9F12339   7.185   3.305   9.748  0.0765 -0.4336  0.0755
  117OSM    H9F12340   7.240   3.221   9.793 -0.1199 -0.1942  0.7640
  117OSM   C10F12341   7.173   3.322   9.612 -0.4724 -0.5659  0.2623
  117OSM   H10F12342   7.200   3.238   9.547 -1.3619 -2.1772  1.9381
  117OSM   C11F12343   7.130   3.443   9.535  0.6435 -1.0389 -0.5116
  117OSM   H11F12344   7.205   3.525   9.530 -0.2866 -0.2961 -2.5817
  117OSM   H11G12345   7.044   3.486   9.591 -0.0002 -2.9219 -0.0375
  117OSM   C12F12346   7.052   3.428   9.407  0.2496  0.3669 -0.3256
  117OSM   H12F12347   7.013   3.529   9.382  0.8385  0.6438 -0.1345
  117OSM   H12G12348   6.970   3.355   9.424  0.8817 -0.5820 -1.2926
  117OSM   C13F12349   7.131   3.392   9.284 -0.0777  0.0319  1.2039
  117OSM   H13F12350   7.158   3.286   9.304 -1.2108 -0.1641  1.7769
  117OSM   H13G12351   7.224   3.453   9.286  0.1484 -0.1966 -1.2118
  117OSM   C14F12352   7.066   3.404   9.149 -0.4035  0.3727  0.1646
  117OSM   H14F12353   7.042   3.512   9.132  1.2320  0.7043 -0.0965
  117OSM   H14G12354   6.968   3.353   9.159 -0.1288  0.0839  1.4326
  117OSM   C15F12355   7.168   3.372   9.041  0.0798  0.0954  0.0553
  117OSM   H15F12356   7.202   3.267   9.055  2.1566  0.7996  0.3517
  117OSM   H15G12357   7.260   3.432   9.056  0.7075 -1.0135  0.6740
  117OSM   C16F12358   7.108   3.394   8.903 -0.6663  0.5664 -0.0975
  117OSM   H16F12359   7.106   3.503   8.882 -1.8320  0.9287  1.8062
  117OSM   H16G12360   7.003   3.357   8.902 -0.1005 -1.0833 -0.2193
  117OSM   C17F12361   7.189   3.316   8.799 -0.3301  0.2773  0.4598
  117OSM   H17F12362   7.261   3.249   8.852 -0.5997  0.9180  1.6505
  117OSM   H17G12363   7.257   3.387   8.746  0.2125 -0.6379 -0.0742
  117OSM   C18F12364   7.113   3.237   8.685  0.8058 -0.2566 -0.0230
  117OSM   H18F12365   7.053   3.311   8.628  0.5964  0.0473  0.5879
  117OSM   H18G12366   7.042   3.161   8.726  1.3213 -0.4860  0.4511
  117OSM   H18H12367   7.179   3.183   8.614 -1.5616 -1.7040 -1.1954
  118OSM      N12368   6.684   4.901  11.168 -0.0198  0.0479 -0.3724
  118OSM    C1512369   6.649   5.017  11.255 -0.4839  0.1669 -0.6081
  118OSM   H15A12370   6.678   5.003  11.358 -1.8055 -0.3414 -0.2966
  118OSM   H15B12371   6.542   5.018  11.266 -0.4614  3.0336 -0.4050
  118OSM   H15C12372   6.691   5.114  11.232  0.5189  0.6977  3.0951
  118OSM    C1412373   6.627   4.776  11.221  0.4754 -0.4033 -0.5834
  118OSM   H14A12374   6.669   4.752  11.318  1.4718  0.2314 -0.8462
  118OSM   H14B12375   6.651   4.695  11.152 -0.2707 -1.0911 -0.0394
  118OSM   H14C12376   6.521   4.777  11.239  1.0362  2.4886  3.0636
  118OSM    C1312377   6.640   4.924  11.026  0.1091  0.0532  0.7075
  118OSM   H13A12378   6.537   4.957  11.028 -0.0569 -0.5751  3.0371
  118OSM   H13B12379   6.664   4.844  10.958 -0.1233  0.7087 -0.1635
  118OSM   H13C12380   6.693   5.011  10.989  1.0755  0.2947  2.6254
  118OSM    C1212381   6.836   4.889  11.157 -0.1190  0.0363  0.1677
  118OSM   H12A12382   6.861   4.790  11.120 -3.0856 -1.4006  1.8679
  118OSM   H12B12383   6.870   4.876  11.258  0.8992 -3.3289 -0.5400
  118OSM    C1112384   6.913   5.007  11.082 -0.2172  0.3048  0.6600
  118OSM   H11A12385   6.871   5.043  10.986  2.1128  1.7117  0.1226
  118OSM   H11B12386   7.015   4.964  11.069 -1.9191 -3.9738  0.7529
  118OSM      P12387   6.926   5.273  11.127 -0.3789 -0.0885  0.2466
  118OSM    O1312388   6.797   5.316  11.181 -0.0623 -0.0213  0.1590
  118OSM    O1412389   7.045   5.346  11.176 -0.1412 -0.8627  0.2804
  118OSM    O1112390   6.924   5.265  10.965  0.0776  0.0988  0.3962
  118OSM    O1212391   6.937   5.123  11.165 -0.1529 -0.5402  0.4156
  118OSM    C1S12392   7.030   5.327  10.893  0.8420 -0.2502  0.0905
  118OSM    H1S12393   7.125   5.304  10.947  0.0145  0.3086  1.8286
  118OSM    H1T12394   7.020   5.437  10.885  1.6114 -0.1845  0.0277
  118OSM     NF12395   7.159   5.333  10.684 -0.1844 -0.7031 -0.1297
  118OSM    HNF12396   7.143   5.411  10.625  0.2024 -1.0390 -0.6846
  118OSM    C2S12397   7.032   5.285  10.744 -0.8015 -0.4504  0.5789
  118OSM    H2S12398   7.028   5.175  10.729 -2.9277 -0.2348 -0.7302
  118OSM    C3S12399   6.893   5.330  10.680 -0.3016  0.0008 -0.0502
  118OSM    H3S12400   6.889   5.440  10.671  0.1992  0.0879  0.7424
  118OSM     O312401   6.779   5.295  10.755 -0.0989 -0.0679  0.2466
  118OSM    HO312402   6.812   5.262  10.839  2.0210  0.0628 -0.5167
  118OSM    C4S12403   6.876   5.272  10.543 -0.3138  0.1457 -0.3836
  118OSM    H4S12404   6.894   5.348  10.465 -1.7913  2.0022  1.0480
  118OSM    C5S12405   6.854   5.146  10.510  0.3609  0.0282 -0.7288
  118OSM    H5S12406   6.846   5.071  10.590 -1.2850  0.0887 -0.8100
  118OSM    C6S12407   6.840   5.106  10.363 -0.0090  0.1229  0.4926
  118OSM    H6S12408   6.862   5.194  10.299  0.0618  2.0257  3.0706
  118OSM    H6T12409   6.737   5.068  10.350  0.5587 -1.2912 -0.0454
  118OSM    C7S12410   6.945   4.996  10.326 -0.7294 -0.3935 -0.3339
  118OSM    H7S12411   6.952   4.905  10.389  1.0259  0.1152  0.2271
  118OSM    H7T12412   7.042   5.050  10.323  0.6380 -2.6360  2.2278
  118OSM    C8S12413   6.905   4.958  10.178  1.3375 -0.3464  0.4251
  118OSM    H8S12414   6.901   5.052  10.119  0.3210 -1.7794 -1.8545
  118OSM    H8T12415   6.804   4.913  10.168 -0.0555  2.6995  0.1077
  118OSM    C9S12416   7.005   4.875  10.098  0.0932 -0.0765  0.0626
  118OSM    H9S12417   7.001   4.767  10.123  0.3561 -0.1355 -0.1505
  118OSM    H9T12418   7.107   4.914  10.119  1.1681 -3.9597  2.4815
  118OSM   C10S12419   6.978   4.886   9.951 -0.1387 -0.1240  0.3655
  118OSM   H10S12420   7.008   4.980   9.900 -0.8351  0.0076  0.1998
  118OSM   H10T12421   6.869   4.889   9.934 -0.1657  3.2016  0.9200
  118OSM   C11S12422   7.033   4.764   9.867 -0.0851 -0.3430  0.5566
  118OSM   H11S12423   6.987   4.670   9.902 -0.3359 -0.8914 -1.2234
  118OSM   H11T12424   7.141   4.755   9.895 -0.4302 -1.5175  1.5332
  118OSM   C12S12425   7.012   4.792   9.715  0.0226 -0.3573  0.1721
  118OSM   H12S12426   7.075   4.881   9.691  0.3266  0.2350  2.9641
  118OSM   H12T12427   6.906   4.824   9.712  0.2556  1.1012  4.7379
  118OSM   C13S12428   7.025   4.672   9.625 -0.1639 -0.3799 -0.2280
  118OSM   H13S12429   6.950   4.600   9.664 -3.7992  2.3459 -1.8997
  118OSM   H13T12430   7.129   4.632   9.625 -0.4298 -1.1531 -2.1507
  118OSM   C14S12431   6.985   4.684   9.479  0.5547  0.3553  0.1049
  118OSM   H14S12432   6.875   4.692   9.471  0.6202  0.8842 -0.3265
  118OSM   H14T12433   7.013   4.584   9.437 -1.4926 -0.7392  1.2754
  118OSM   C15S12434   7.042   4.802   9.405  0.1540  0.1286 -0.5344
  118OSM   H15S12435   7.149   4.823   9.425 -0.1984  1.5056 -0.0780
  118OSM   H15T12436   6.980   4.891   9.430 -1.0114 -0.4292 -1.4006
  118OSM   C16S12437   7.030   4.791   9.255  0.7117 -0.0575 -0.0145
  118OSM   H16S12438   7.068   4.883   9.206  1.9176  0.2123  1.4193
  118OSM   H16T12439   6.925   4.765   9.227  1.2604 -0.2629 -1.9956
  118OSM   C17S12440   7.111   4.679   9.185  0.1334 -0.5049 -0.3917
  118OSM   H17S12441   7.055   4.585   9.207 -0.9279  0.6148  1.8516
  118OSM   H17T12442   7.206   4.661   9.240  0.1655 -1.4614 -0.7481
  118OSM   C18S12443   7.137   4.695   9.033  0.6227 -0.6604  0.0906
  118OSM   H18S12444   7.196   4.612   8.988  0.4728  0.3988 -2.1274
  118OSM   H18T12445   7.194   4.787   9.007 -3.1189  1.7524  0.0688
  118OSM   H18U12446   7.034   4.691   8.993 -0.2278  3.3389  1.5405
  118OSM    C1F12447   7.282   5.279  10.719  0.0876 -0.6060 -0.2146
  118OSM     OF12448   7.293   5.218  10.820 -0.2340 -0.3261  1.3045
  118OSM    C2F12449   7.405   5.315  10.636 -0.0160  0.0465  0.2185
  118OSM    H2F12450   7.496   5.299  10.698 -0.2227  2.6221  1.2500
  118OSM    H2G12451   7.401   5.422  10.608  0.0506 -0.7213 -2.9696
  118OSM    C3F12452   7.411   5.232  10.508 -0.0712  0.6540  0.2174
  118OSM    H3F12453   7.398   5.125  10.534 -3.1718  0.7227 -0.8462
  118OSM    H3G12454   7.513   5.254  10.471 -0.2853  1.7808  0.2935
  118OSM    C4F12455   7.310   5.265  10.398  0.1325 -0.2450  0.2799
  118OSM    H4F12456   7.212   5.239  10.444  0.3397  0.2593  1.0218
  118OSM    H4G12457   7.334   5.195  10.315 -0.3213  0.0972 -0.1367
  118OSM    C5F12458   7.296   5.402  10.337  0.4209 -0.3413  0.6335
  118OSM    H5F12459   7.392   5.422  10.284  0.0634 -1.0160 -0.2711
  118OSM    H5G12460   7.299   5.479  10.417  1.5472  1.5670 -1.1929
  118OSM    C6F12461   7.179   5.431  10.245 -0.1571 -0.2547  0.6054
  118OSM    H6F12462   7.168   5.540  10.230  1.8085 -0.1954 -0.5536
  118OSM    H6G12463   7.084   5.395  10.291  0.1719  0.1863  1.6500
  118OSM    C7F12464   7.192   5.363  10.106 -0.2613 -0.3045 -0.6812
  118OSM    H7F12465   7.255   5.273  10.117  0.6506  0.4335  0.2551
  118OSM    H7G12466   7.250   5.436  10.046  0.4031 -1.8626 -1.9624
  118OSM    C8F12467   7.066   5.347  10.027 -0.2236  0.1870  0.2192
  118OSM    H8F12468   7.024   5.447  10.008  0.2626  0.3921  0.1963
  118OSM    H8G12469   6.997   5.279  10.081  1.2667 -1.8725 -0.3704
  118OSM    C9F12470   7.107   5.278   9.893  0.3277 -1.4311 -0.1959
  118OSM    H9F12471   7.195   5.214   9.910  0.1142 -1.4691  0.8047
  118OSM   C10F12472   7.043   5.269   9.771 -0.0034 -1.0384 -0.2129
  118OSM   H10F12473   7.069   5.190   9.699  2.5505 -0.8659  0.4524
  118OSM   C11F12474   6.913   5.332   9.754  0.6287 -0.1154 -0.5698
  118OSM   H11F12475   6.908   5.402   9.668  2.5172 -0.5277 -1.0274
  118OSM   H11G12476   6.886   5.390   9.845 -1.1587 -2.1290  0.2274
  118OSM   C12F12477   6.797   5.239   9.738 -0.1590 -0.0557 -0.4881
  118OSM   H12F12478   6.710   5.301   9.709  0.9913  1.9035  0.1733
  118OSM   H12G12479   6.782   5.178   9.829 -0.3593  0.0491 -0.4499
  118OSM   C13F12480   6.805   5.132   9.623 -0.4667 -0.2746  0.1122
  118OSM   H13F12481   6.896   5.068   9.627 -1.3172 -1.4966  0.3755
  118OSM   H13G12482   6.818   5.196   9.533 -0.0717 -1.3417 -0.6025
  118OSM   C14F12483   6.670   5.066   9.602  0.1508 -0.3473 -0.5122
  118OSM   H14F12484   6.595   5.139   9.638 -0.4458 -0.3977 -1.6228
  118OSM   H14G12485   6.660   4.991   9.682 -0.4738  0.4772  0.1855
  118OSM   C15F12486   6.638   5.009   9.466 -0.1898  0.4518  0.2899
  118OSM   H15F12487   6.589   4.909   9.475  1.3404 -0.4282 -0.8619
  118OSM   H15G12488   6.733   4.980   9.415 -0.2374  1.2749 -0.2667
  118OSM   C16F12489   6.574   5.106   9.367  0.1218 -0.4358 -0.7897
  118OSM   H16F12490   6.634   5.199   9.366 -1.3454  0.5928  1.6836
  118OSM   H16G12491   6.477   5.137   9.412 -0.4245  0.6240 -2.6350
  118OSM   C17F12492   6.557   5.058   9.225  0.5414  0.0455  0.3392
  118OSM   H17F12493   6.537   4.949   9.234 -0.6766  0.4185  2.5824
  118OSM   H17G12494   6.650   5.066   9.164  1.8419  0.3836  2.3304
  118OSM   C18F12495   6.455   5.139   9.135 -0.3150  1.0821 -0.5766
  118OSM   H18F12496   6.446   5.083   9.040 -0.3350 -0.4565  0.3191
  118OSM   H18G12497   6.497   5.241   9.121 -0.8917  1.4407  0.2531
  118OSM   H18H12498   6.354   5.143   9.182 -0.3112  1.6745 -0.6081
  119OSM      N12499   0.656   4.177  11.276 -0.5077  0.9274  0.5102
  119OSM    C1512500   0.517   4.234  11.256  0.0105 -0.5480 -0.0677
  119OSM   H15A12501   0.499   4.252  11.151 -0.6916  0.0265  0.1470
  119OSM   H15B12502   0.497   4.328  11.306 -1.5057  1.1402 -3.6427
  119OSM   H15C12503   0.453   4.160  11.301  0.3029 -1.5080 -1.1915
  119OSM    C1412504   0.738   4.248  11.175 -0.2580  0.0230 -0.5550
  119OSM   H14A12505   0.841   4.230  11.202 -0.8094 -2.8667 -0.2264
  119OSM   H14B12506   0.725   4.353  11.155  0.1290 -0.3809 -3.1022
  119OSM   H14C12507   0.711   4.194  11.085 -0.1348 -1.6576  0.3906
  119OSM    C1312508   0.724   4.201  11.401  0.5993 -0.3594  0.3942
  119OSM   H13A12509   0.687   4.145  11.486 -0.7460 -2.1916 -1.3460
  119OSM   H13B12510   0.729   4.304  11.434 -1.4758 -0.4373  1.0443
  119OSM   H13C12511   0.824   4.162  11.400  1.5730  2.0489 -0.1956
  119OSM    C1212512   0.644   4.027  11.248  0.1147  0.3529  0.7033
  119OSM   H12A12513   0.571   3.986  11.316 -1.0078  1.5072  0.2322
  119OSM   H12B12514   0.741   3.983  11.261  1.5273  1.5634 -4.5100
  119OSM    C1112515   0.599   3.969  11.109 -0.5609  0.7186 -0.0709
  119OSM   H11A12516   0.492   3.998  11.095 -0.4812  0.7341 -0.6944
  119OSM   H11B12517   0.591   3.858  11.113  0.3693  0.5773 -1.5573
  119OSM      P12518   0.818   3.925  10.978 -0.2996  0.0272 -0.1158
  119OSM    O1312519   0.931   3.986  11.049 -0.1584  0.4210  0.0658
  119OSM    O1412520   0.787   3.781  11.000  0.3953 -0.2381  0.7110
  119OSM    O1112521   0.839   3.959  10.824  0.2535  0.0201 -0.3923
  119OSM    O1212522   0.687   4.011  10.997 -0.4306  0.4015 -0.6544
  119OSM    C1S12523   0.733   3.962  10.727 -0.0296  0.7380  0.0483
  119OSM    H1S12524   0.656   4.038  10.751 -0.2319  1.4579 -2.6641
  119OSM    H1T12525   0.682   3.863  10.715  0.8640  0.1994  0.6487
  119OSM     NF12526   0.653   3.972  10.490  0.0175  0.1371  0.7005
  119OSM    HNF12527   0.653   3.877  10.462 -0.5879  0.3615 -0.0704
  119OSM    C2S12528   0.769   4.000  10.575  0.0120  0.5643 -0.6295
  119OSM    H2S12529   0.803   4.106  10.573 -0.6803  0.8585  1.6121
  119OSM    C3S12530   0.890   3.909  10.536 -0.6560  0.2493  0.9009
  119OSM    H3S12531   0.863   3.803  10.555  1.1945 -0.7737 -1.8671
  119OSM     O312532   1.009   3.923  10.613  0.1997  0.4764  0.2411
  119OSM    HO312533   0.987   3.985  10.684  0.1215 -0.4797  1.0588
  119OSM    C4S12534   0.934   3.932  10.395  0.2455 -0.0626 -0.2478
  119OSM    H4S12535   0.968   4.033  10.369 -1.2900  0.7516  0.8533
  119OSM    C5S12536   0.925   3.847  10.291  1.2651  0.3517  0.0371
  119OSM    H5S12537   0.880   3.748  10.307 -0.4455  1.0095 -0.6956
  119OSM    C6S12538   0.990   3.871  10.156  0.3465  0.6153 -0.1097
  119OSM    H6S12539   1.018   3.782  10.096 -0.3900  0.3912 -0.1334
  119OSM    H6T12540   1.090   3.916  10.174  0.8415 -0.5617  0.1207
  119OSM    C7S12541   0.901   3.966  10.073  0.4437  0.2650 -0.5917
  119OSM    H7S12542   0.882   4.060  10.129 -1.1712 -1.3911  1.7519
  119OSM    H7T12543   0.807   3.907  10.070  0.2240  0.6388 -1.1420
  119OSM    C8S12544   0.959   3.989   9.929  0.9931  0.0892 -0.9751
  119OSM    H8S12545   0.956   3.900   9.863 -1.1895 -0.1983 -0.5620
  119OSM    H8T12546   1.066   4.013   9.943  0.5360  0.1390  3.2609
  119OSM    C9S12547   0.874   4.105   9.864  0.0072  0.5669  0.2834
  119OSM    H9S12548   0.869   4.190   9.936 -0.4964  1.2503 -0.5562
  119OSM    H9T12549   0.768   4.074   9.860  0.7891 -2.1436 -0.7785
  119OSM   C10S12550   0.922   4.143   9.721  0.6215 -0.4469 -0.1127
  119OSM   H10S12551   1.032   4.148   9.705  0.7228  1.0647  0.9501
  119OSM   H10T12552   0.866   4.236   9.697 -2.4724 -2.5916 -1.5229
  119OSM   C11S12553   0.880   4.039   9.616  0.5959 -0.0673 -0.4931
  119OSM   H11S12554   0.771   4.018   9.623  0.2487  1.7025 -0.3547
  119OSM   H11T12555   0.936   3.947   9.643 -1.8260 -1.8869 -1.4738
  119OSM   C12S12556   0.911   4.073   9.469 -0.2590 -0.1938 -0.6684
  119OSM   H12S12557   1.017   4.104   9.471 -0.3111  0.0267 -1.2857
  119OSM   H12T12558   0.855   4.163   9.434 -0.4005 -0.7673 -1.9564
  119OSM   C13S12559   0.895   3.953   9.373 -0.1753 -0.1806  0.8811
  119OSM   H13S12560   0.785   3.954   9.358  0.2223 -0.7472 -2.4718
  119OSM   H13T12561   0.934   3.859   9.417 -0.0631 -0.5381  0.0247
  119OSM   C14S12562   0.959   3.973   9.236  0.2678 -0.2863  0.3108
  119OSM   H14S12563   0.936   3.880   9.180  1.2838  0.1359 -0.8199
  119OSM   H14T12564   1.069   3.974   9.251  0.3082  1.5309  0.0605
  119OSM   C15S12565   0.919   4.101   9.157  0.1528 -0.6449 -0.1937
  119OSM   H15S12566   0.953   4.183   9.224  0.7987  0.1385 -1.4697
  119OSM   H15T12567   0.809   4.102   9.146 -0.0013 -2.1046  1.0447
  119OSM   C16S12568   0.961   4.110   9.005  0.1998  0.7517 -0.2394
  119OSM   H16S12569   1.071   4.126   9.008  0.3473 -0.2891  0.1401
  119OSM   H16T12570   0.908   4.200   8.967 -3.6116 -1.6706 -1.0094
  119OSM   C17S12571   0.925   3.996   8.917 -0.3261 -0.3627 -0.1680
  119OSM   H17S12572   0.821   3.962   8.937 -0.1929  0.4460  2.1068
  119OSM   H17T12573   0.998   3.920   8.954 -0.6986 -0.0140  1.3204
  119OSM   C18S12574   0.931   4.023   8.767  0.7156  0.5193 -1.0195
  119OSM   H18S12575   0.946   3.924   8.719 -1.0388 -1.0177  1.5002
  119OSM   H18T12576   1.023   4.079   8.739  0.5222  1.2152 -0.2875
  119OSM   H18U12577   0.840   4.082   8.740 -0.7121 -0.9316  0.5077
  119OSM    C1F12578   0.560   4.066  10.478 -0.0105  0.7129  0.2722
  119OSM     OF12579   0.552   4.166  10.544 -1.2027 -0.1342  0.0430
  119OSM    C2F12580   0.456   4.041  10.374 -0.0068  0.2568 -0.1514
  119OSM    H2F12581   0.417   4.142  10.350  2.0099  0.6467 -1.8701
  119OSM    H2G12582   0.384   3.982  10.435 -1.4026 -0.8260 -2.7552
  119OSM    C3F12583   0.500   3.970  10.239 -0.1962  0.3658  0.0011
  119OSM    H3F12584   0.553   3.873  10.251  1.6260  1.1982 -1.1281
  119OSM    H3G12585   0.569   4.033  10.180 -0.9249  0.6556 -0.5529
  119OSM    C4F12586   0.377   3.964  10.142 -0.3600  0.7531 -0.1261
  119OSM    H4F12587   0.359   4.064  10.097  0.3359  1.2594  0.6785
  119OSM    H4G12588   0.286   3.934  10.198  1.1850 -1.2325  1.3868
  119OSM    C5F12589   0.395   3.861  10.030  0.6712  0.6422 -0.1538
  119OSM    H5F12590   0.291   3.857   9.991  0.3068  2.4575  0.5702
  119OSM    H5G12591   0.423   3.761  10.069  1.4582  0.6835 -0.6051
  119OSM    C6F12592   0.484   3.904   9.914 -0.1776  0.5299  0.1101
  119OSM    H6F12593   0.590   3.873   9.929 -0.1517 -0.7351 -2.5594
  119OSM    H6G12594   0.483   4.015   9.911  1.8582  0.5182 -2.0662
  119OSM    C7F12595   0.435   3.839   9.782 -0.0081  0.4799 -0.7209
  119OSM    H7F12596   0.327   3.866   9.775  0.3276  3.1427  2.8415
  119OSM    H7G12597   0.437   3.729   9.798  0.5075  0.7416  1.2125
  119OSM    C8F12598   0.508   3.873   9.646  0.6000 -0.2303  0.2499
  119OSM    H8F12599   0.476   3.786   9.585 -0.4271  0.5409 -0.3126
  119OSM    H8G12600   0.612   3.852   9.680  0.1978 -1.7734  0.5512
  119OSM    C9F12601   0.500   4.013   9.586 -0.2037 -0.6708  0.0034
  119OSM    H9F12602   0.498   4.098   9.655  0.0052  0.0933 -0.9159
  119OSM   C10F12603   0.492   4.045   9.457 -0.3445  0.5947  0.4612
  119OSM   H10F12604   0.485   4.152   9.433  0.7030  0.7179  0.6890
  119OSM   C11F12605   0.480   3.955   9.337  0.5029 -1.2514  0.2302
  119OSM   H11F12606   0.552   3.871   9.348 -0.5549 -2.1579  0.3516
  119OSM   H11G12607   0.499   4.010   9.243  0.0397 -4.4387 -1.8354
  119OSM   C12F12608   0.343   3.896   9.328  0.0133 -0.1393 -0.0679
  119OSM   H12F12609   0.274   3.974   9.288  0.0925 -0.6312 -1.1914
  119OSM   H12G12610   0.295   3.873   9.425 -0.2176 -1.3502 -0.4539
  119OSM   C13F12611   0.334   3.763   9.239  0.2555 -0.4804  0.6232
  119OSM   H13F12612   0.226   3.746   9.220 -0.0179  1.6365  0.1051
  119OSM   H13G12613   0.385   3.679   9.291  0.3233 -0.9005 -0.1153
  119OSM   C14F12614   0.376   3.788   9.095 -0.2358  0.3915 -0.6972
  119OSM   H14F12615   0.350   3.703   9.028  1.0423  0.4210 -1.2277
  119OSM   H14G12616   0.487   3.787   9.097 -0.2475  0.1120  0.4890
  119OSM   C15F12617   0.327   3.919   9.032 -0.5940  0.4867 -0.3204
  119OSM   H15F12618   0.367   4.016   9.070 -0.8696  0.0468  1.1141
  119OSM   H15G12619   0.219   3.927   9.058 -0.5732  0.4843 -0.2349
  119OSM   C16F12620   0.336   3.922   8.877  0.2409 -0.4985 -0.6341
  119OSM   H16F12621   0.290   4.017   8.842 -0.7206 -1.2245 -1.3815
  119OSM   H16G12622   0.277   3.833   8.844 -0.8487 -0.1519  0.3640
  119OSM   C17F12623   0.476   3.914   8.822  0.1591  0.4226 -0.2568
  119OSM   H17F12624   0.503   3.807   8.828 -1.2524  0.0862  0.2635
  119OSM   H17G12625   0.548   3.970   8.886  0.1666 -0.7972  0.8201
  119OSM   C18F12626   0.490   3.955   8.675 -0.0336  0.8309 -0.3174
  119OSM   H18F12627   0.443   3.894   8.595 -2.1519  1.7354  0.1976
  119OSM   H18G12628   0.599   3.965   8.656  0.1506 -3.8853 -2.5907
  119OSM   H18H12629   0.444   4.056   8.670  0.8721  1.5209  3.7113
  120OSM      N12630   6.450   0.204  10.573 -0.2668  0.5222 -0.0802
  120OSM    C1512631   6.480   0.058  10.601 -0.6924 -0.3202  0.8169
  120OSM   H15A12632   6.480  -0.003  10.511 -1.1583 -2.7979  2.4610
  120OSM   H15B12633   6.398   0.009  10.652  0.2414 -2.7582  0.0430
  120OSM   H15C12634   6.568   0.037  10.659  2.7288  0.0246 -3.8889
  120OSM    C1412635   6.536   0.247  10.453 -0.1696  0.1601 -0.0783
  120OSM   H14A12636   6.508   0.348  10.429 -0.8977  0.1584  0.7195
  120OSM   H14B12637   6.528   0.168  10.380  1.6268  1.3307 -1.5780
  120OSM   H14C12638   6.639   0.263  10.480 -0.5880  1.7779  0.5961
  120OSM    C1312639   6.304   0.211  10.522  0.0816  0.9174  0.3783
  120OSM   H13A12640   6.281   0.307  10.479 -0.9872  0.9284  0.9570
  120OSM   H13B12641   6.231   0.192  10.600  0.6742 -0.9436  0.5223
  120OSM   H13C12642   6.293   0.133  10.448  2.2793  0.8896  0.0518
  120OSM    C1212643   6.468   0.281  10.702 -0.3591  0.4275 -0.2998
  120OSM   H12A12644   6.410   0.236  10.781  0.3308  1.6511  0.9395
  120OSM   H12B12645   6.422   0.378  10.687  1.5248  0.9285 -3.0854
  120OSM    C1112646   6.605   0.298  10.763 -1.1035 -0.1752 -0.0002
  120OSM   H11A12647   6.633   0.197  10.801 -3.0316  0.2302  2.5983
  120OSM   H11B12648   6.592   0.358  10.856  2.3374 -0.5546  0.8226
  120OSM      P12649   6.714   0.507  10.645  0.5553 -0.2587 -0.1206
  120OSM    O1312650   6.686   0.591  10.761  0.1682 -0.1074 -0.5075
  120OSM    O1412651   6.840   0.533  10.572 -0.4420 -0.2008 -0.5005
  120OSM    O1112652   6.600   0.533  10.532 -0.0883  0.0310 -0.0764
  120OSM    O1212653   6.704   0.349  10.682 -0.7329  0.3662 -0.0690
  120OSM    C1S12654   6.565   0.668  10.493  0.2627  0.7525  0.1892
  120OSM    H1S12655   6.593   0.741  10.572  0.2921  0.8820  0.0589
  120OSM    H1T12656   6.456   0.670  10.471  0.3301  1.1353 -0.1272
  120OSM     NF12657   6.611   0.853  10.344 -0.4819 -0.3067 -0.5458
  120OSM    HNF12658   6.551   0.875  10.267  0.3169  0.3104 -1.0057
  120OSM    C2S12659   6.635   0.711  10.366 -0.0151 -0.6846 -0.1276
  120OSM    H2S12660   6.745   0.703  10.369  0.0944  0.5403 -0.5586
  120OSM    C3S12661   6.604   0.628  10.235  0.9429 -0.2426 -0.1404
  120OSM    H3S12662   6.495   0.632  10.214  0.5616 -2.7829  1.1925
  120OSM     O312663   6.612   0.489  10.264 -0.3245  0.3300  0.2286
  120OSM    HO312664   6.643   0.486  10.355  0.4592 -0.2138 -0.0533
  120OSM    C4S12665   6.691   0.662  10.118  0.2011 -0.3149 -0.0771
  120OSM    H4S12666   6.796   0.631  10.123  0.0228 -0.6191  2.1610
  120OSM    C5S12667   6.654   0.705   9.996  0.2160  0.3838 -0.5330
  120OSM    H5S12668   6.550   0.742   9.988 -0.0682 -0.3273 -0.1730
  120OSM    C6S12669   6.745   0.725   9.878 -0.6910  0.0558  0.1404
  120OSM    H6S12670   6.853   0.713   9.900 -0.0546  2.0336 -1.7428
  120OSM    H6T12671   6.742   0.832   9.849  0.4745 -0.3615 -1.5931
  120OSM    C7S12672   6.698   0.643   9.755  0.7058 -0.0391 -0.5656
  120OSM    H7S12673   6.593   0.664   9.725  1.4533  3.7573 -0.8776
  120OSM    H7T12674   6.725   0.538   9.778 -1.3621 -0.9921 -2.2978
  120OSM    C8S12675   6.782   0.683   9.630 -0.1556 -0.0420  0.1652
  120OSM    H8S12676   6.884   0.639   9.636 -0.3083 -0.5597 -0.9652
  120OSM    H8T12677   6.791   0.793   9.629  0.2655 -0.0779 -0.1281
  120OSM    C9S12678   6.722   0.631   9.497  0.5822  0.1045 -0.1875
  120OSM    H9S12679   6.622   0.680   9.497 -0.6556 -2.3191 -0.1420
  120OSM    H9T12680   6.695   0.523   9.509  1.1514 -0.0805 -0.5325
  120OSM   C10S12681   6.798   0.657   9.367 -0.1261 -0.6031 -0.4799
  120OSM   H10S12682   6.907   0.636   9.374  0.3431  1.7102 -0.4526
  120OSM   H10T12683   6.790   0.767   9.350 -4.0380 -0.5873  0.8146
  120OSM   C11S12684   6.751   0.576   9.244  0.2187 -0.3533  0.0091
  120OSM   H11S12685   6.718   0.475   9.278 -0.0838  0.3249  1.7763
  120OSM   H11T12686   6.826   0.575   9.162 -0.3094  0.2187 -0.4954
  120OSM   C12S12687   6.623   0.640   9.188  0.9043  0.5839 -0.4451
  120OSM   H12S12688   6.653   0.745   9.169 -0.6999  0.7709 -2.0997
  120OSM   H12T12689   6.536   0.636   9.256 -0.9549 -0.4232 -2.8226
  120OSM   C13S12690   6.578   0.583   9.046 -0.0672  0.7110 -0.7576
  120OSM   H13S12691   6.475   0.622   9.027  0.4575  1.6070 -1.7508
  120OSM   H13T12692   6.599   0.474   9.046  1.9202  1.0750 -0.3867
  120OSM   C14S12693   6.671   0.635   8.930 -0.8792  0.2055  0.2854
  120OSM   H14S12694   6.765   0.575   8.926 -1.9214 -1.3708 -1.3768
  120OSM   H14T12695   6.684   0.743   8.949 -1.1902  0.8372 -2.7903
  120OSM   C15S12696   6.619   0.620   8.789 -0.1375 -1.0322  0.2441
  120OSM   H15S12697   6.520   0.670   8.790 -0.2788 -1.3170  0.8852
  120OSM   H15T12698   6.592   0.513   8.775 -0.1700 -1.2123  1.6293
  120OSM   C16S12699   6.732   0.668   8.685 -0.6615  0.6302 -0.5563
  120OSM   H16S12700   6.801   0.581   8.683 -0.2761  0.7903  2.5859
  120OSM   H16T12701   6.790   0.760   8.708 -1.8294  1.3665 -0.4706
  120OSM   C17S12702   6.655   0.702   8.554  0.0857 -0.1691  0.3113
  120OSM   H17S12703   6.728   0.739   8.478 -0.2320  1.7264  0.9038
  120OSM   H17T12704   6.596   0.795   8.572 -0.5695 -0.6073  0.4419
  120OSM   C18S12705   6.553   0.594   8.508  0.9191 -0.0712 -0.3271
  120OSM   H18S12706   6.473   0.573   8.582  0.4502  0.0340 -0.7949
  120OSM   H18T12707   6.605   0.496   8.499  0.6315 -0.4508  1.8872
  120OSM   H18U12708   6.513   0.625   8.409  1.2935 -2.7149 -1.3750
  120OSM    C1F12709   6.641   0.955  10.423  1.0873 -0.8289  0.7159
  120OSM     OF12710   6.724   0.938  10.513  0.0705  0.2408 -0.2871
  120OSM    C2F12711   6.569   1.083  10.404 -0.1894  0.2456  0.2224
  120OSM    H2F12712   6.631   1.168  10.439  1.9892 -1.3104  0.2731
  120OSM    H2G12713   6.477   1.078  10.467 -1.7518  1.5227 -1.9070
  120OSM    C3F12714   6.542   1.114  10.257  0.2387 -0.1262  0.0913
  120OSM    H3F12715   6.495   1.215  10.256  1.8438  0.6395 -1.2255
  120OSM    H3G12716   6.464   1.053  10.207 -1.6986  2.5383 -0.2241
  120OSM    C4F12717   6.662   1.112  10.164 -0.2851 -0.6336 -0.6341
  120OSM    H4F12718   6.713   1.013  10.172 -0.1178 -0.4468  0.8155
  120OSM    H4G12719   6.741   1.176  10.210 -2.0590  0.9313  0.2933
  120OSM    C5F12720   6.630   1.171  10.028 -0.6156 -0.2634  0.5835
  120OSM    H5F12721   6.611   1.278  10.052  1.7622 -0.0307  1.6130
  120OSM    H5G12722   6.533   1.138   9.986 -1.5593  0.6331  2.0266
  120OSM    C6F12723   6.734   1.177   9.920  0.3845 -0.1211 -0.1612
  120OSM    H6F12724   6.700   1.234   9.831 -2.1931 -0.1028  0.7857
  120OSM    H6G12725   6.748   1.071   9.890  0.6263 -0.6609  1.7641
  120OSM    C7F12726   6.867   1.236   9.968 -0.1925  0.0057 -0.1964
  120OSM    H7F12727   6.909   1.197  10.062  2.0406  1.5457 -0.5286
  120OSM    H7G12728   6.847   1.344   9.985 -0.9135 -0.1367 -0.1258
  120OSM    C8F12729   6.974   1.232   9.863  0.0344 -0.1741  0.2170
  120OSM    H8F12730   7.058   1.292   9.904  2.7875 -2.8912 -1.1958
  120OSM    H8G12731   6.921   1.288   9.783  0.3700 -0.2334 -0.0475
  120OSM    C9F12732   7.011   1.099   9.803  0.0811 -0.1991  0.7267
  120OSM    H9F12733   7.090   1.050   9.862  2.4105  2.4196 -0.0752
  120OSM   C10F12734   6.971   1.043   9.683 -0.3263 -0.2821 -0.2402
  120OSM   H10F12735   7.019   0.949   9.654  0.3919 -0.2630  0.8288
  120OSM   C11F12736   6.873   1.087   9.580  0.7533  0.4996 -0.8417
  120OSM   H11F12737   6.850   1.193   9.603  0.3599  0.1377  0.5015
  120OSM   H11G12738   6.779   1.028   9.584 -0.3701  2.3627  1.5589
  120OSM   C12F12739   6.930   1.061   9.443  0.7342 -0.3135  0.1707
  120OSM   H12F12740   6.949   0.953   9.423 -1.5625 -0.9192  1.1303
  120OSM   H12G12741   7.020   1.126   9.436 -0.0553  0.5158 -2.8055
  120OSM   C13F12742   6.829   1.100   9.330 -0.1992 -0.0709  0.7596
  120OSM   H13F12743   6.801   1.207   9.347  0.8212  0.5965 -1.5569
  120OSM   H13G12744   6.742   1.030   9.331 -0.0287 -0.2856  0.4710
  120OSM   C14F12745   6.902   1.100   9.190 -0.2363  0.2048  0.3399
  120OSM   H14F12746   6.956   1.003   9.193 -0.5836  0.0455  1.4895
  120OSM   H14G12747   6.984   1.175   9.203  0.9764 -1.0452  0.0431
  120OSM   C15F12748   6.814   1.114   9.065 -0.0278 -0.5270 -0.1668
  120OSM   H15F12749   6.759   1.210   9.076  0.5032  0.1936 -3.1483
  120OSM   H15G12750   6.739   1.033   9.055 -0.4248 -0.1287 -0.4508
  120OSM   C16F12751   6.896   1.093   8.948  0.1239 -0.0441  0.1698
  120OSM   H16F12752   6.942   0.992   8.960  0.8988  0.4609  1.6090
  120OSM   H16G12753   6.974   1.171   8.955  0.7675 -0.7501  1.0639
  120OSM   C17F12754   6.829   1.098   8.815  0.8859  0.2328 -0.1650
  120OSM   H17F12755   6.773   1.193   8.802  1.3393  0.7408  1.5404
  120OSM   H17G12756   6.748   1.022   8.821 -0.8876  2.0268 -0.5344
  120OSM   C18F12757   6.920   1.066   8.702  0.0408  0.4942 -0.8180
  120OSM   H18F12758   7.028   1.060   8.728 -0.0586  3.2136  0.4136
  120OSM   H18G12759   6.915   1.148   8.627  0.0134  0.9229 -0.3573
  120OSM   H18H12760   6.900   0.969   8.653 -0.7003 -0.1032  0.6225
  121OSM      N12761   5.535   4.601  10.965 -0.5211  0.5760 -0.5660
  121OSM    C1512762   5.500   4.507  11.075 -0.0516  0.7014 -0.6921
  121OSM   H15A12763   5.425   4.429  11.063  0.1598 -0.1009  2.6068
  121OSM   H15B12764   5.459   4.564  11.157 -2.5214  1.0874 -2.1477
  121OSM   H15C12765   5.583   4.459  11.124  0.3880  1.2860 -0.8677
  121OSM    C1412766   5.408   4.674  10.917 -0.5638 -0.2482  0.2523
  121OSM   H14A12767   5.338   4.618  10.856 -2.7461  2.2724  0.3703
  121OSM   H14B12768   5.429   4.764  10.862 -0.9490 -2.2138 -3.2591
  121OSM   H14C12769   5.348   4.705  11.001  1.6615  1.5815  1.2201
  121OSM    C1312770   5.629   4.691  11.028 -0.0050  0.0512  0.2476
  121OSM   H13A12771   5.685   4.748  10.954  1.5133  2.4207  3.1196
  121OSM   H13B12772   5.695   4.628  11.086  0.7402  2.5223  2.1369
  121OSM   H13C12773   5.579   4.761  11.092  1.5081  1.9747 -0.6155
  121OSM    C1212774   5.589   4.532  10.843  0.1355 -0.2779 -1.0174
  121OSM   H12A12775   5.613   4.605  10.767 -1.4776  0.9429 -0.3933
  121OSM   H12B12776   5.524   4.463  10.792 -0.4427 -0.2521 -0.3218
  121OSM    C1112777   5.728   4.460  10.861  0.5408  0.4367 -0.0643
  121OSM   H11A12778   5.813   4.529  10.881 -0.5574  1.8143 -0.0925
  121OSM   H11B12779   5.741   4.427  10.756 -1.1815  2.5280 -0.9731
  121OSM      P12780   5.847   4.289  11.032  0.1317 -0.0273 -0.6830
  121OSM    O1312781   5.903   4.403  11.109  0.5381  0.5551  0.0863
  121OSM    O1412782   5.811   4.169  11.110 -0.0614 -0.4234  0.4495
  121OSM    O1112783   5.953   4.262  10.916  0.0432  0.2546  0.5003
  121OSM    O1212784   5.719   4.347  10.950 -0.5203 -0.1705 -0.2467
  121OSM    C1S12785   5.917   4.179  10.811 -0.4712  1.2071 -0.6423
  121OSM    H1S12786   5.807   4.162  10.805 -0.5156  1.2848 -0.0535
  121OSM    H1T12787   5.951   4.074  10.821 -2.6300  0.5758  0.2333
  121OSM     NF12788   5.950   4.108  10.569 -0.8868  0.5811  1.0730
  121OSM    HNF12789   6.034   4.057  10.551 -0.5387  0.8873  1.7711
  121OSM    C2S12790   5.970   4.218  10.664  0.5506 -0.3530  0.8279
  121OSM    H2S12791   5.907   4.301  10.627 -0.2616 -2.5607 -2.9517
  121OSM    C3S12792   6.117   4.264  10.680  0.8943  0.1666  0.5519
  121OSM    H3S12793   6.187   4.186  10.716  1.5315  1.9248  3.3057
  121OSM     O312794   6.134   4.376  10.765  0.1189  0.6177  0.3589
  121OSM    HO312795   6.062   4.365  10.826  0.6024 -0.9652  0.6811
  121OSM    C4S12796   6.166   4.294  10.541 -0.0785 -0.1094  1.0045
  121OSM    H4S12797   6.206   4.203  10.494 -1.8020 -1.1676  1.5744
  121OSM    C5S12798   6.172   4.411  10.481  0.2670 -0.8866 -0.4774
  121OSM    H5S12799   6.133   4.501  10.530  0.9624 -0.1127 -1.3327
  121OSM    C6S12800   6.223   4.443  10.346 -0.2663 -0.3221  0.0371
  121OSM    H6S12801   6.291   4.530  10.339  2.1779 -2.3739 -3.2408
  121OSM    H6T12802   6.137   4.458  10.277 -0.6735 -0.6127  0.4769
  121OSM    C7S12803   6.318   4.337  10.287 -0.2610  0.2906 -0.0264
  121OSM    H7S12804   6.262   4.241  10.289 -0.1373  0.2153 -0.2398
  121OSM    H7T12805   6.409   4.342  10.352  0.7299 -1.6931 -1.1977
  121OSM    C8S12806   6.366   4.348  10.135  0.5953 -0.7112  0.9450
  121OSM    H8S12807   6.398   4.454  10.127  1.5769 -1.1408 -1.1529
  121OSM    H8T12808   6.281   4.342  10.063  1.8873  0.3144 -0.6926
  121OSM    C9S12809   6.478   4.253  10.097 -0.0333 -0.3552 -0.9007
  121OSM    H9S12810   6.449   4.147  10.109 -1.2064  0.1049  0.5739
  121OSM    H9T12811   6.560   4.260  10.172  1.0173 -3.6465 -1.6707
  121OSM   C10S12812   6.526   4.270   9.956 -0.3417 -0.3026  0.8146
  121OSM   H10S12813   6.626   4.222   9.950 -0.0230  0.3732  0.6655
  121OSM   H10T12814   6.539   4.378   9.931 -2.5866 -0.5258 -1.5020
  121OSM   C11S12815   6.435   4.212   9.845 -0.4589  0.3572 -0.4599
  121OSM   H11S12816   6.345   4.276   9.833  1.1535  3.0338  1.2800
  121OSM   H11T12817   6.417   4.107   9.878  3.1812 -0.3247 -0.4680
  121OSM   C12S12818   6.509   4.205   9.710 -0.1125  0.0234  0.4032
  121OSM   H12S12819   6.598   4.142   9.731  1.0036  1.3644 -0.2752
  121OSM   H12T12820   6.540   4.302   9.665 -1.0803  0.8150  1.4235
  121OSM   C13S12821   6.417   4.133   9.608 -0.2616  0.7932 -0.0968
  121OSM   H13S12822   6.312   4.168   9.602 -1.3975 -2.3193  0.7679
  121OSM   H13T12823   6.406   4.024   9.629 -0.2973  1.1604  1.8175
  121OSM   C14S12824   6.476   4.134   9.466  0.1632 -0.3052 -0.0555
  121OSM   H14S12825   6.575   4.085   9.461  0.6013  0.7400 -2.7792
  121OSM   H14T12826   6.493   4.242   9.444 -2.1108  0.5087  1.9395
  121OSM   C15S12827   6.387   4.068   9.357 -0.1818  0.0092  0.0935
  121OSM   H15S12828   6.284   4.107   9.365  0.8972  2.8491  0.5904
  121OSM   H15T12829   6.381   3.958   9.373  1.8433 -0.4086 -1.7170
  121OSM   C16S12830   6.425   4.084   9.211 -0.3843 -0.3412  1.1850
  121OSM   H16S12831   6.533   4.068   9.192 -0.1758  4.1733 -2.1912
  121OSM   H16T12832   6.416   4.190   9.181  1.2879 -0.6536 -0.4899
  121OSM   C17S12833   6.334   4.007   9.112 -0.0855 -0.0343 -0.0845
  121OSM   H17S12834   6.231   4.032   9.145  0.3510  0.6606  0.7859
  121OSM   H17T12835   6.354   3.898   9.117 -0.0728  0.0271  1.2994
  121OSM   C18S12836   6.342   4.046   8.963  0.1858 -0.1972 -0.7680
  121OSM   H18S12837   6.306   3.955   8.909 -1.6301  0.0413 -0.0170
  121OSM   H18T12838   6.449   4.046   8.934  0.2683  0.5849 -0.4674
  121OSM   H18U12839   6.272   4.131   8.949 -0.2329 -0.9086 -3.1204
  121OSM    C1F12840   5.837   4.073  10.506  0.0885  0.2689  0.2276
  121OSM     OF12841   5.736   4.142  10.512 -0.1327 -0.4629  0.1329
  121OSM    C2F12842   5.843   3.940  10.432 -0.0492 -0.0698 -0.1829
  121OSM    H2F12843   5.756   3.916  10.368  1.8315 -2.2348 -2.0551
  121OSM    H2G12844   5.852   3.868  10.516  3.7583 -0.9155 -1.2150
  121OSM    C3F12845   5.973   3.933  10.340  0.2470 -0.1253 -0.5288
  121OSM    H3F12846   5.958   3.837  10.287 -2.3819 -0.5387  0.8697
  121OSM    H3G12847   6.071   3.925  10.390  0.2760 -1.7227 -0.8227
  121OSM    C4F12848   5.977   4.046  10.235 -0.5337  0.2656  0.0349
  121OSM    H4F12849   6.007   4.144  10.277  0.3887 -0.5390  1.2671
  121OSM    H4G12850   5.876   4.057  10.190 -0.0795 -0.0756 -1.0855
  121OSM    C5F12851   6.077   4.012  10.120 -0.4995 -0.5140 -0.4398
  121OSM    H5F12852   6.175   4.008  10.173 -2.1656 -1.3395  2.6947
  121OSM    H5G12853   6.077   4.097  10.048 -1.2350  0.0163  0.1853
  121OSM    C6F12854   6.041   3.881  10.041  0.1530  0.4231  0.2379
  121OSM    H6F12855   5.937   3.900  10.007 -0.1406 -0.3864  0.6823
  121OSM    H6G12856   6.039   3.789  10.103  1.4538 -0.6898 -1.3332
  121OSM    C7F12857   6.126   3.853   9.916  0.7802 -0.2662  0.4011
  121OSM    H7F12858   6.090   3.753   9.884  0.2282 -0.5849  1.9387
  121OSM    H7G12859   6.232   3.836   9.947  1.0996  0.5130 -0.2512
  121OSM    C8F12860   6.120   3.953   9.794  0.2297  0.2448 -0.1221
  121OSM    H8F12861   6.207   3.930   9.728 -0.2165 -0.1835 -0.5661
  121OSM    H8G12862   6.134   4.057   9.829 -0.7279  0.4092 -0.2209
  121OSM    C9F12863   5.988   3.930   9.722  0.1088 -0.0561  0.4222
  121OSM    H9F12864   5.899   3.942   9.785 -0.3377  1.2162 -0.4342
  121OSM   C10F12865   5.963   3.912   9.592 -0.5636 -0.7322  0.3719
  121OSM   H10F12866   5.859   3.916   9.558 -0.0134  2.2493 -1.2014
  121OSM   C11F12867   6.064   3.900   9.482  0.5329  0.1145 -0.3133
  121OSM   H11F12868   6.166   3.906   9.525  0.2868 -0.7533  0.4020
  121OSM   H11G12869   6.059   3.983   9.408  0.7182  0.3824 -0.0293
  121OSM   C12F12870   6.057   3.768   9.395 -0.4038  0.4082 -0.8171
  121OSM   H12F12871   5.955   3.757   9.350 -1.1681 -0.1457  1.0373
  121OSM   H12G12872   6.077   3.682   9.461  1.0392  0.3741 -1.2915
  121OSM   C13F12873   6.167   3.764   9.291  0.6918  0.5928 -0.2851
  121OSM   H13F12874   6.260   3.777   9.351 -0.6391 -1.2621  2.2344
  121OSM   H13G12875   6.150   3.844   9.215  0.7453 -0.1068 -1.0430
  121OSM   C14F12876   6.183   3.627   9.237  0.2002  0.4244  1.4691
  121OSM   H14F12877   6.177   3.543   9.310 -1.0280 -0.3953  0.4480
  121OSM   H14G12878   6.281   3.626   9.185 -0.4927  2.2343  0.0663
  121OSM   C15F12879   6.076   3.595   9.133  0.1320 -0.6128  0.0425
  121OSM   H15F12880   5.978   3.592   9.186 -0.2309  0.8559 -0.5332
  121OSM   H15G12881   6.092   3.492   9.095 -1.6871 -1.2728  0.9685
  121OSM   C16F12882   6.058   3.691   9.014  0.3496 -1.0170 -0.5739
  121OSM   H16F12883   6.031   3.794   9.044 -0.0040 -0.9171 -1.2161
  121OSM   H16G12884   5.978   3.649   8.950 -0.3610  0.4117 -0.6309
  121OSM   C17F12885   6.186   3.701   8.938  0.0167 -0.1116  0.0244
  121OSM   H17F12886   6.262   3.765   8.985 -0.3168  0.8940 -0.7836
  121OSM   H17G12887   6.148   3.765   8.855 -1.1587 -0.9636 -0.1159
  121OSM   C18F12888   6.243   3.562   8.884 -0.2278 -0.4706  0.4949
  121OSM   H18F12889   6.158   3.509   8.836  0.0937 -0.4771 -0.0760
  121OSM   H18G12890   6.272   3.497   8.969 -0.5456 -0.7383  0.3962
  121OSM   H18H12891   6.331   3.576   8.818 -1.1246  1.0614 -0.4198
  122OSM      N12892   5.846   1.709  10.809  0.0492 -0.0944 -0.9972
  122OSM    C1512893   5.844   1.673  10.662 -0.1847  0.6423 -0.3435
  122OSM   H15A12894   5.946   1.676  10.625  1.0627 -0.6938  2.7938
  122OSM   H15B12895   5.780   1.740  10.606 -1.5644 -2.1547 -2.1683
  122OSM   H15C12896   5.806   1.573  10.651  0.3000  0.3730  0.3682
  122OSM    C1412897   5.715   1.687  10.870 -0.1516  0.2153  0.0219
  122OSM   H14A12898   5.707   1.703  10.977  1.2255 -0.2968  0.2232
  122OSM   H14B12899   5.709   1.579  10.859  0.6807  0.0838  0.7459
  122OSM   H14C12900   5.645   1.753  10.822  0.8777  1.6275  0.4485
  122OSM    C1312901   5.932   1.603  10.884  0.1805 -0.2500 -0.0355
  122OSM   H13A12902   5.904   1.500  10.867 -0.7816 -0.1662  0.9430
  122OSM   H13B12903   5.931   1.631  10.989  1.4344 -0.7518  0.1165
  122OSM   H13C12904   6.035   1.623  10.857 -0.7017  2.0385 -1.9172
  122OSM    C1212905   5.905   1.845  10.836  0.1855 -0.1210 -0.2112
  122OSM   H12A12906   5.930   1.862  10.940  0.6359 -1.2934 -0.1142
  122OSM   H12B12907   5.821   1.912  10.822 -0.4695 -1.3124 -2.2291
  122OSM    C1112908   6.028   1.894  10.759 -0.6374 -0.5064  0.5910
  122OSM   H11A12909   6.030   2.004  10.778  1.0276 -0.0597 -2.0161
  122OSM   H11B12910   6.013   1.888  10.650  0.0533  1.6771  0.3438
  122OSM      P12911   6.256   1.901  10.874 -0.1256 -0.2056 -0.2376
  122OSM    O1312912   6.203   2.002  10.970 -0.9998  0.7185  0.1629
  122OSM    O1412913   6.345   1.790  10.917  0.0427 -0.4551 -0.2415
  122OSM    O1112914   6.319   1.978  10.764  0.0178  0.0658  0.5513
  122OSM    O1212915   6.139   1.822  10.805 -0.2209 -0.6554  0.2131
  122OSM    C1S12916   6.415   1.918  10.673 -0.2500  0.4272 -0.5979
  122OSM    H1S12917   6.464   1.828  10.717 -1.8213 -0.8522 -1.4041
  122OSM    H1T12918   6.492   1.996  10.655 -1.2196  1.2002 -1.4592
  122OSM     NF12919   6.457   1.790  10.458 -0.2356  0.3105  0.2805
  122OSM    HNF12920   6.485   1.826  10.369  0.9239  1.9095  1.2622
  122OSM    C2S12921   6.363   1.877  10.533 -0.4398  0.2075  0.2500
  122OSM    H2S12922   6.271   1.814  10.535  0.8536 -1.6782  2.2668
  122OSM    C3S12923   6.325   2.017  10.477 -0.5445  0.1176  0.2264
  122OSM    H3S12924   6.413   2.083  10.483 -0.1355 -0.4577  0.6155
  122OSM     O312925   6.228   2.088  10.552 -0.2933 -0.1893  0.2745
  122OSM    HO312926   6.254   2.063  10.642 -0.5023 -0.5004  0.2502
  122OSM    C4S12927   6.283   2.009  10.337  0.1045  0.3995 -0.0056
  122OSM    H4S12928   6.363   2.010  10.262  1.2555  1.7740  1.2143
  122OSM    C5S12929   6.157   1.999  10.284  0.5667 -0.8247 -0.5128
  122OSM    H5S12930   6.064   2.012  10.342  1.0305 -0.3957  0.1355
  122OSM    C6S12931   6.129   1.980  10.133  0.0908 -0.8515  0.0610
  122OSM    H6S12932   6.110   2.086  10.105  0.7138 -0.9888 -0.8873
  122OSM    H6T12933   6.041   1.913  10.121 -0.9382  0.2813  1.1099
  122OSM    C7S12934   6.237   1.921  10.043 -0.6345 -0.5712 -0.0543
  122OSM    H7S12935   6.298   1.838  10.086 -0.2002  0.6151  1.6571
  122OSM    H7T12936   6.317   1.997  10.035 -1.2240  0.1339  0.6787
  122OSM    C8S12937   6.187   1.899   9.902  0.8010 -0.0209  0.5203
  122OSM    H8S12938   6.125   1.986   9.873 -2.3979 -2.5303 -0.4568
  122OSM    H8T12939   6.130   1.806   9.885 -0.9775  0.8612  1.6090
  122OSM    C9S12940   6.304   1.884   9.811 -0.0242  0.1172  0.1431
  122OSM    H9S12941   6.353   1.785   9.821 -0.1308 -0.2236 -2.2422
  122OSM    H9T12942   6.381   1.962   9.830  0.3258  0.0788 -1.0369
  122OSM   C10S12943   6.258   1.889   9.663  0.0065  0.6526  0.3873
  122OSM   H10S12944   6.225   1.991   9.637 -1.5686 -0.1797 -0.9789
  122OSM   H10T12945   6.169   1.823   9.653  0.7320 -0.5768  1.7831
  122OSM   C11S12946   6.374   1.857   9.566  0.1009 -0.6111 -0.5564
  122OSM   H11S12947   6.401   1.752   9.595 -0.7287 -0.7471 -0.2676
  122OSM   H11T12948   6.462   1.919   9.593 -0.0352 -0.4595 -0.4652
  122OSM   C12S12949   6.345   1.877   9.416  0.2137 -0.4305 -0.4650
  122OSM   H12S12950   6.297   1.977   9.405 -2.5940 -1.6139  0.4122
  122OSM   H12T12951   6.268   1.803   9.384 -2.0652  1.8189 -0.3788
  122OSM   C13S12952   6.464   1.868   9.326 -0.0903 -0.2591  0.2945
  122OSM   H13S12953   6.535   1.789   9.360 -2.2228 -2.6336 -0.5866
  122OSM   H13T12954   6.521   1.964   9.325 -0.1416 -0.2076  1.3116
  122OSM   C14S12955   6.432   1.838   9.176  0.1370 -0.4146  0.1749
  122OSM   H14S12956   6.358   1.916   9.146 -1.1178 -1.6016  0.1612
  122OSM   H14T12957   6.378   1.742   9.162  1.3836 -0.7571 -2.7996
  122OSM   C15S12958   6.552   1.858   9.091  0.3841  0.2907  0.4072
  122OSM   H15S12959   6.619   1.770   9.097 -0.3650 -0.3926 -0.9369
  122OSM   H15T12960   6.612   1.945   9.125 -0.0406  0.7256  0.0543
  122OSM   C16S12961   6.533   1.883   8.944  0.3160  0.3063  0.8894
  122OSM   H16S12962   6.484   1.981   8.931  1.2715  0.3515 -3.1091
  122OSM   H16T12963   6.460   1.806   8.909  0.1213  0.6977  0.4350
  122OSM   C17S12964   6.671   1.880   8.874 -0.0446  0.5049  0.0265
  122OSM   H17S12965   6.726   1.789   8.908  0.0592  0.4975 -0.1634
  122OSM   H17T12966   6.730   1.966   8.910 -0.0341 -0.0271  1.3231
  122OSM   C18S12967   6.650   1.891   8.723  0.2260 -0.1265  0.5056
  122OSM   H18S12968   6.745   1.889   8.665 -0.5048  1.7769 -0.7983
  122OSM   H18T12969   6.604   1.991   8.707 -2.1557 -0.7636  3.0236
  122OSM   H18U12970   6.589   1.813   8.674  1.0970 -0.5291  0.0397
  122OSM    C1F12971   6.484   1.667  10.489 -0.1996  0.3286 -0.5340
  122OSM     OF12972   6.413   1.611  10.574 -0.3837 -0.5268 -0.2331
  122OSM    C2F12973   6.591   1.591  10.421  0.1322 -0.6533 -0.2066
  122OSM    H2F12974   6.576   1.483  10.439 -1.8298 -0.0640  1.9781
  122OSM    H2G12975   6.692   1.615  10.461 -0.3175  0.8538  0.0528
  122OSM    C3F12976   6.606   1.633  10.271  0.5478 -0.7933 -0.3477
  122OSM    H3F12977   6.640   1.738  10.278  0.5251 -0.8891  1.4946
  122OSM    H3G12978   6.509   1.618  10.219  1.0823  0.0729 -1.6231
  122OSM    C4F12979   6.714   1.557  10.185 -0.2136  0.2023 -0.2636
  122OSM    H4F12980   6.677   1.452  10.182  2.4142 -0.8765  2.0748
  122OSM    H4G12981   6.817   1.564  10.228 -0.4898 -1.4708  0.7010
  122OSM    C5F12982   6.730   1.608  10.041 -0.0797 -0.2742  0.0946
  122OSM    H5F12983   6.806   1.546   9.990  0.7699  0.8668 -0.0448
  122OSM    H5G12984   6.767   1.712  10.039 -0.0292 -0.3044 -0.5260
  122OSM    C6F12985   6.600   1.601   9.955 -0.3457  0.4337 -0.1596
  122OSM    H6F12986   6.548   1.693   9.991  1.0581  1.3585 -0.4113
  122OSM    H6G12987   6.559   1.501   9.976  0.8574  0.1963  1.1572
  122OSM    C7F12988   6.627   1.611   9.803  0.1869  0.3888 -0.2347
  122OSM    H7F12989   6.716   1.675   9.786  0.9805 -0.8978 -0.9601
  122OSM    H7G12990   6.539   1.667   9.763  1.6815  1.8089 -1.6268
  122OSM    C8F12991   6.652   1.482   9.727  0.1007 -0.5262 -0.0194
  122OSM    H8F12992   6.573   1.406   9.743  0.4075 -0.3168  2.8391
  122OSM    H8G12993   6.742   1.438   9.774  0.3152  0.8457  0.9003
  122OSM    C9F12994   6.655   1.512   9.579  0.7557  0.1204  0.9545
  122OSM    H9F12995   6.565   1.495   9.520  0.4101  1.2110  1.1557
  122OSM   C10F12996   6.770   1.538   9.513  0.1836 -0.2913  0.5604
  122OSM   H10F12997   6.767   1.544   9.403  1.8745  0.2468  0.5336
  122OSM   C11F12998   6.909   1.559   9.564  0.2169  0.1674  0.6280
  122OSM   H11F12999   6.916   1.537   9.673 -1.4267 -0.4098  0.6375
  122OSM   H11G13000   6.937   1.667   9.558  0.1790  0.0394 -2.2881
  122OSM   C12F13001   7.027   1.493   9.478  0.1608  0.7910 -0.3073
  122OSM   H12F13002   7.014   1.382   9.482 -2.0367  1.0987  1.9198
  122OSM   H12G13003   7.126   1.510   9.526 -0.8732  1.7060  1.5037
  122OSM   C13F13004   7.035   1.530   9.323  0.0259  0.1646 -0.7522
  122OSM   H13F13005   7.063   1.637   9.314 -3.5123  1.0210 -2.1999
  122OSM   H13G13006   6.937   1.514   9.274  0.9145  0.6421 -2.6988
  122OSM   C14F13007   7.139   1.450   9.248  0.3834 -0.3949 -0.8242
  122OSM   H14F13008   7.116   1.342   9.253  0.4522 -0.3867 -0.2852
  122OSM   H14G13009   7.243   1.458   9.286  0.0822  0.0999 -0.0858
  122OSM   C15F13010   7.144   1.472   9.092 -0.2884  0.2813 -1.2149
  122OSM   H15F13011   7.170   1.580   9.080 -2.0067  1.1164  2.0358
  122OSM   H15G13012   7.043   1.451   9.049 -2.9216  3.8217  2.7935
  122OSM   C16F13013   7.235   1.361   9.029 -0.6430 -0.8195 -0.0059
  122OSM   H16F13014   7.192   1.262   9.059  2.5864 -2.1568  0.3765
  122OSM   H16G13015   7.340   1.355   9.064  0.2173 -0.7629 -2.5247
  122OSM   C17F13016   7.235   1.357   8.883  0.1048  0.7000  0.6071
  122OSM   H17F13017   7.271   1.455   8.845  1.0609 -1.1423 -3.5520
  122OSM   H17G13018   7.127   1.343   8.862  0.7114 -1.1466 -1.4801
  122OSM   C18F13019   7.317   1.245   8.828  0.5162 -0.2770  0.4412
  122OSM   H18F13020   7.275   1.143   8.839 -0.1572 -0.3619 -2.5006
  122OSM   H18G13021   7.417   1.252   8.876 -0.7000 -2.1923  3.3618
  122OSM   H18H13022   7.333   1.271   8.721  0.2008 -0.8265  0.2597
  123OSM      N13023   5.287   0.716   5.912 -0.3108  0.5131  0.2023
  123OSM    C1513024   5.327   0.843   5.967 -0.2117 -0.2360 -0.0601
  123OSM   H15A13025   5.431   0.847   5.994 -0.3535  1.3111  0.2906
  123OSM   H15B13026   5.268   0.868   6.054 -1.9768  0.0353 -1.3103
  123OSM   H15C13027   5.309   0.919   5.893  0.9560 -0.3902 -0.5097
  123OSM    C1413028   5.150   0.728   5.862 -0.5420 -0.3694  0.6240
  123OSM   H14A13029   5.116   0.635   5.817 -3.2599  0.1633  1.4855
  123OSM   H14B13030   5.161   0.805   5.787 -0.7772  0.5507  1.5229
  123OSM   H14C13031   5.079   0.764   5.935 -1.2734 -2.1581  0.8310
  123OSM    C1313032   5.387   0.673   5.812  0.6697  0.2048  0.3390
  123OSM   H13A13033   5.483   0.664   5.859  0.0205 -2.4955  1.2390
  123OSM   H13B13034   5.400   0.744   5.732 -3.1969  0.1372 -0.4612
  123OSM   H13C13035   5.353   0.577   5.775 -1.0206  0.3539  1.4420
  123OSM    C1213036   5.279   0.613   6.021  0.3524  0.2171 -0.4623
  123OSM   H12A13037   5.381   0.591   6.051  0.5456  0.6376 -0.7983
  123OSM   H12B13038   5.250   0.516   5.983 -0.8252 -0.3498  1.8320
  123OSM    C1113039   5.183   0.641   6.146 -0.4373 -0.3622 -0.4251
  123OSM   H11A13040   5.214   0.736   6.194  1.5125 -0.7300 -0.9045
  123OSM   H11B13041   5.218   0.564   6.218  0.4222 -0.5115 -0.9915
  123OSM      P13042   4.970   0.484   6.091 -0.1187  0.2002 -0.2231
  123OSM    O1313043   4.840   0.504   6.023  0.0255  0.1088 -0.1034
  123OSM    O1413044   5.063   0.384   6.032 -0.3543 -0.2110 -1.0163
  123OSM    O1113045   4.941   0.424   6.239 -0.7872  0.2413 -0.4239
  123OSM    O1213046   5.041   0.630   6.117 -0.2624 -0.1223 -0.0550
  123OSM    C1S13047   4.835   0.493   6.309 -0.0712  0.0531 -0.4132
  123OSM    H1S13048   4.746   0.513   6.246 -0.8048 -0.6683  0.3837
  123OSM    H1T13049   4.884   0.587   6.344 -1.5796 -0.1435  2.3784
  123OSM     NF13050   4.663   0.484   6.481 -0.1093  0.2055  0.0905
  123OSM    HNF13051   4.682   0.571   6.527 -0.2910 -1.1086  2.7027
  123OSM    C2S13052   4.785   0.426   6.443  0.1653  0.0481  0.4451
  123OSM    H2S13053   4.753   0.322   6.423 -1.2915  0.6555 -0.5274
  123OSM    C3S13054   4.896   0.428   6.553 -0.0880  0.3773 -0.3206
  123OSM    H3S13055   4.944   0.525   6.577 -0.2298  0.1190  1.0576
  123OSM     O313056   5.001   0.333   6.521  0.1529 -0.1714  0.4355
  123OSM    HO313057   4.999   0.332   6.425 -0.9368 -1.2301  0.4560
  123OSM    C4S13058   4.839   0.379   6.685  0.5119  0.2679 -0.0506
  123OSM    H4S13059   4.799   0.277   6.690  1.4666 -0.1071 -0.1575
  123OSM    C5S13060   4.822   0.447   6.799  0.4827  0.3211 -0.7563
  123OSM    H5S13061   4.826   0.557   6.797 -0.4207  0.3585 -0.9393
  123OSM    C6S13062   4.751   0.389   6.921  0.2342  0.3461 -0.0539
  123OSM    H6S13063   4.709   0.289   6.895 -1.7863  0.9852  0.7398
  123OSM    H6T13064   4.660   0.439   6.959  0.5319 -0.5025  1.8093
  123OSM    C7S13065   4.841   0.364   7.042 -0.3747  0.0324  0.4473
  123OSM    H7S13066   4.768   0.333   7.120 -2.3012 -1.0679 -1.7161
  123OSM    H7T13067   4.895   0.458   7.065  1.1810 -0.3130 -1.5732
  123OSM    C8S13068   4.941   0.240   7.034  0.3539  0.0007  0.4011
  123OSM    H8S13069   5.015   0.264   6.955 -1.7952 -0.4030 -1.7746
  123OSM    H8T13070   4.884   0.149   7.006 -1.6981  1.5595 -0.6153
  123OSM    C9S13071   5.011   0.208   7.170  0.1377 -0.1829 -0.3178
  123OSM    H9S13072   5.064   0.300   7.202  2.2059 -1.5514  0.3728
  123OSM    H9T13073   5.091   0.133   7.149 -1.5380 -2.0280 -0.3029
  123OSM   C10S13074   4.916   0.166   7.282  0.4163  0.5474  0.2469
  123OSM   H10S13075   4.859   0.085   7.233 -3.1341  3.1872 -0.2252
  123OSM   H10T13076   4.840   0.241   7.312 -0.5717  0.1346 -1.1876
  123OSM   C11S13077   4.975   0.113   7.413  0.1146  0.9635 -0.0379
  123OSM   H11S13078   5.082   0.109   7.384  0.0622  2.1994 -0.4239
  123OSM   H11T13079   4.941   0.007   7.418 -2.6555  1.7997 -0.5216
  123OSM   C12S13080   4.938   0.189   7.542  0.3645  0.0480 -0.3714
  123OSM   H12S13081   4.829   0.210   7.550  0.5992  0.4782  2.0805
  123OSM   H12T13082   4.988   0.288   7.536  0.3736  0.0316 -0.5826
  123OSM   C13S13083   4.995   0.127   7.670  0.4663 -0.9832 -0.2952
  123OSM   H13S13084   4.951   0.026   7.684  1.6036 -1.6764 -1.5675
  123OSM   H13T13085   4.971   0.195   7.755  0.6688  0.3039 -1.2599
  123OSM   C14S13086   5.150   0.103   7.661  1.0606 -0.3426  0.0803
  123OSM   H14S13087   5.200   0.190   7.613 -1.0290 -0.3406 -2.1639
  123OSM   H14T13088   5.160   0.015   7.594 -1.1302 -0.4728 -0.1099
  123OSM   C15S13089   5.217   0.053   7.791  0.6980  0.5085  0.6860
  123OSM   H15S13090   5.313   0.001   7.772  0.7138  0.2751  1.3944
  123OSM   H15T13091   5.150  -0.027   7.831 -0.5300  0.4559 -1.4123
  123OSM   C16S13092   5.222   0.157   7.907 -0.4541 -0.0232  0.0744
  123OSM   H16S13093   5.122   0.202   7.926 -0.3740 -0.2668  1.1454
  123OSM   H16T13094   5.283   0.242   7.871 -1.4849  0.7206  0.0454
  123OSM   C17S13095   5.288   0.116   8.035 -0.1494  0.0285 -0.0594
  123OSM   H17S13096   5.225   0.030   8.068  0.2949 -0.7104 -1.0948
  123OSM   H17T13097   5.289   0.197   8.111  0.6753 -1.1301  1.1760
  123OSM   C18S13098   5.424   0.066   8.013 -0.0969 -0.1084  0.5059
  123OSM   H18S13099   5.488   0.136   7.955  1.6494 -2.4806 -0.5232
  123OSM   H18T13100   5.418  -0.030   7.957  0.5293 -0.6329  1.3242
  123OSM   H18U13101   5.477   0.049   8.109 -1.5052 -0.7213  1.1862
  123OSM    C1F13102   4.544   0.445   6.440  0.2270 -0.1248  0.5288
  123OSM     OF13103   4.536   0.360   6.349  0.3705 -0.1165  0.1606
  123OSM    C2F13104   4.424   0.511   6.502 -0.1766 -0.2913 -0.5935
  123OSM    H2F13105   4.400   0.605   6.448  1.7022  0.3728 -0.3130
  123OSM    H2G13106   4.447   0.548   6.604  0.1238 -0.9436 -0.4230
  123OSM    C3F13107   4.303   0.418   6.520 -0.3973  0.0717 -0.1132
  123OSM    H3F13108   4.257   0.389   6.423 -3.0152  0.2678  1.0216
  123OSM    H3G13109   4.223   0.479   6.567 -1.9732 -1.4042 -0.7843
  123OSM    C4F13110   4.317   0.303   6.608 -0.1139  0.0260 -0.9580
  123OSM    H4F13111   4.407   0.250   6.570 -1.2451 -1.7332 -1.1941
  123OSM    H4G13112   4.223   0.244   6.603 -0.9169  1.1581  0.3172
  123OSM    C5F13113   4.350   0.344   6.753  0.2346 -1.0359 -0.8777
  123OSM    H5F13114   4.260   0.370   6.814  2.6511 -3.5163  3.9359
  123OSM    H5G13115   4.422   0.428   6.763 -1.7639  0.6862 -0.5454
  123OSM    C6F13116   4.401   0.225   6.837  0.5728 -0.2236 -0.1267
  123OSM    H6F13117   4.312   0.160   6.848  0.2779  0.3249  0.7298
  123OSM    H6G13118   4.424   0.250   6.942  0.7738  3.6640 -1.0191
  123OSM    C7F13119   4.513   0.149   6.783  0.8602 -0.3474 -0.3541
  123OSM    H7F13120   4.606   0.207   6.759  0.2984  0.0167 -1.7313
  123OSM    H7G13121   4.483   0.093   6.692  1.5632 -3.0063  1.0094
  123OSM    C8F13122   4.565   0.048   6.886 -1.1767  0.0926 -0.3745
  123OSM    H8F13123   4.582   0.099   6.983 -1.2877  0.6296 -0.6350
  123OSM    H8G13124   4.659   0.016   6.836 -1.9786  0.2324 -2.0154
  123OSM    C9F13125   4.471  -0.060   6.920  0.3428 -0.2372 -0.0779
  123OSM    H9F13126   4.481  -0.146   6.852  1.8919 -0.0887 -0.0687
  123OSM   C10F13127   4.390  -0.071   7.022  0.0786  0.5754 -0.5890
  123OSM   H10F13128   4.305  -0.141   7.022  0.3626  0.2168  1.1114
  123OSM   C11F13129   4.378   0.032   7.138  0.0890  0.5098 -0.6391
  123OSM   H11F13130   4.271   0.056   7.155 -0.6519 -1.0179 -2.8959
  123OSM   H11G13131   4.427   0.129   7.116  2.0743 -0.3023  0.1216
  123OSM   C12F13132   4.441  -0.018   7.267 -0.5899 -1.1494  0.2126
  123OSM   H12F13133   4.551  -0.017   7.251 -0.8404 -0.4055 -1.6924
  123OSM   H12G13134   4.409  -0.120   7.298 -0.2295 -1.3811 -0.1604
  123OSM   C13F13135   4.418   0.096   7.369 -0.5553 -0.3206  0.3151
  123OSM   H13F13136   4.310   0.116   7.385 -0.6028  0.3366 -0.7899
  123OSM   H13G13137   4.460   0.194   7.340  0.7023 -1.1408 -0.6915
  123OSM   C14F13138   4.471   0.053   7.504 -0.1452 -0.5127  0.1872
  123OSM   H14F13139   4.575   0.013   7.493 -0.3182 -0.9211  0.0347
  123OSM   H14G13140   4.410  -0.034   7.536  0.2448 -1.0934 -0.6315
  123OSM   C15F13141   4.465   0.170   7.604 -0.0551 -0.0434  0.8186
  123OSM   H15F13142   4.366   0.218   7.590 -0.6940 -2.0131 -1.8287
  123OSM   H15G13143   4.536   0.250   7.573 -1.2664  0.7815  0.1261
  123OSM   C16F13144   4.482   0.123   7.748  0.2580 -0.5299  0.0674
  123OSM   H16F13145   4.590   0.099   7.759  0.2850  0.3238  1.7154
  123OSM   H16G13146   4.428   0.028   7.769  0.7394 -1.2725 -1.9349
  123OSM   C17F13147   4.446   0.221   7.867  1.0567 -0.0671 -0.0967
  123OSM   H17F13148   4.344   0.261   7.844  0.5935 -0.2115  1.5757
  123OSM   H17G13149   4.520   0.304   7.862  3.7884 -2.5963 -2.9419
  123OSM   C18F13150   4.450   0.136   8.002 -0.5452 -0.4388  0.1139
  123OSM   H18F13151   4.416   0.211   8.077  2.0632 -0.0183  0.9642
  123OSM   H18G13152   4.555   0.104   8.021  0.0859  1.7967  0.5345
  123OSM   H18H13153   4.370   0.059   8.004 -0.7112 -0.2868 -0.5763
  124OSM      N13154   1.082   4.655   6.232 -0.4653  0.1323 -0.3705
  124OSM    C1513155   1.107   4.578   6.104 -0.1440  0.3762  0.0667
  124OSM   H15A13156   1.048   4.613   6.020  1.0900 -0.2555 -1.0911
  124OSM   H15B13157   1.098   4.471   6.117  0.3579  0.2329 -0.7670
  124OSM   H15C13158   1.212   4.582   6.079  0.2306 -1.1712  1.3359
  124OSM    C1413159   1.167   4.592   6.343  0.1142 -0.7494  0.1602
  124OSM   H14A13160   1.153   4.641   6.438  1.1548  3.3286 -1.7014
  124OSM   H14B13161   1.272   4.589   6.318  0.3656  0.4407  1.0757
  124OSM   H14C13162   1.139   4.488   6.347  0.4634 -0.8122  1.1460
  124OSM    C1313163   1.120   4.797   6.204 -0.5231  0.4011  0.5503
  124OSM   H13A13164   1.085   4.859   6.285 -0.5383 -0.5396  1.2794
  124OSM   H13B13165   1.074   4.831   6.113  0.1832 -0.2822 -0.0731
  124OSM   H13C13166   1.228   4.801   6.194 -0.5087 -0.0901  0.5069
  124OSM    C1213167   0.929   4.647   6.253 -0.5147 -0.1162  0.2709
  124OSM   H12A13168   0.905   4.544   6.270  0.7243 -0.3695  0.5366
  124OSM   H12B13169   0.873   4.692   6.172  0.3573  1.1006  0.3190
  124OSM    C1113170   0.869   4.737   6.369  0.1771 -0.5145  0.5137
  124OSM   H11A13171   0.922   4.713   6.464  2.0327 -0.1393 -0.4036
  124OSM   H11B13172   0.766   4.700   6.384  0.3076 -0.4683  1.5647
  124OSM      P13173   0.739   4.963   6.336 -0.1908  0.0568  0.0157
  124OSM    O1313174   0.771   5.108   6.355  0.5896 -0.5144 -0.2857
  124OSM    O1413175   0.663   4.934   6.216  0.0674 -1.0101  0.3852
  124OSM    O1113176   0.660   4.914   6.468  0.4934 -0.0360 -0.6005
  124OSM    O1213177   0.870   4.880   6.346  0.2292 -0.3811 -0.3222
  124OSM    C1S13178   0.722   4.940   6.597 -0.4787  0.0827 -0.1014
  124OSM    H1S13179   0.805   5.013   6.588 -2.3369  2.0399 -1.8056
  124OSM    H1T13180   0.763   4.845   6.639  1.3977  0.3438 -1.2998
  124OSM     NF13181   0.688   5.008   6.833  0.4792 -0.8687  0.1995
  124OSM    HNF13182   0.666   4.948   6.910  1.6766 -1.7869 -0.1586
  124OSM    C2S13183   0.622   4.978   6.705  0.3099  0.5604 -0.5970
  124OSM    H2S13184   0.577   5.075   6.674  2.3064  1.3717 -1.0592
  124OSM    C3S13185   0.517   4.862   6.720  0.3643 -0.2974 -0.2737
  124OSM    H3S13186   0.567   4.774   6.766  1.4406  0.9587  1.0248
  124OSM     O313187   0.459   4.819   6.604  0.0920 -0.2578  0.2245
  124OSM    HO313188   0.520   4.856   6.539  1.5171 -2.6388  0.0992
  124OSM    C4S13189   0.411   4.904   6.817  0.0567 -0.2436  0.5333
  124OSM    H4S13190   0.433   4.869   6.919 -1.3526 -0.0578  0.9119
  124OSM    C5S13191   0.305   4.979   6.784  0.3268 -0.2916  0.2588
  124OSM    H5S13192   0.314   5.020   6.682  4.1611 -2.7310 -0.4890
  124OSM    C6S13193   0.198   5.043   6.873 -0.1720  0.5447  0.3830
  124OSM    H6S13194   0.095   5.015   6.842  0.3736 -1.7416  0.5406
  124OSM    H6T13195   0.217   5.153   6.867  0.0937  0.4325 -0.8862
  124OSM    C7S13196   0.233   5.010   7.020  0.1700 -0.1755  0.2310
  124OSM    H7S13197   0.338   5.040   7.040  0.5093 -1.7136  0.8417
  124OSM    H7T13198   0.213   4.904   7.047 -3.7047  0.9259  1.9672
  124OSM    C8S13199   0.143   5.078   7.122  0.0130  0.3536  1.0387
  124OSM    H8S13200   0.036   5.059   7.099 -0.2367 -0.3669  2.7302
  124OSM    H8T13201   0.152   5.187   7.101 -0.9202  0.8924  3.2965
  124OSM    C9S13202   0.183   5.051   7.267 -0.1300 -0.2530 -0.1013
  124OSM    H9S13203   0.291   5.073   7.277 -0.0449  0.3262 -2.0988
  124OSM    H9T13204   0.167   4.942   7.286 -2.0438 -0.2929 -1.7165
  124OSM   C10S13205   0.091   5.129   7.365  0.6785  0.9486 -0.3261
  124OSM   H10S13206  -0.008   5.079   7.364  1.1513 -0.0024 -0.5680
  124OSM   H10T13207   0.063   5.234   7.341  3.3246  1.8271  0.2422
  124OSM   C11S13208   0.134   5.113   7.509 -1.1014 -0.0412 -0.7012
  124OSM   H11S13209   0.213   5.188   7.529 -1.7535  0.3285  0.5559
  124OSM   H11T13210   0.174   5.011   7.523  1.3596  1.0037  0.1704
  124OSM   C12S13211   0.022   5.148   7.618  0.4472  0.2202 -0.0639
  124OSM   H12S13212  -0.064   5.080   7.596 -0.1451  0.5114  1.3533
  124OSM   H12T13213  -0.013   5.250   7.590  0.3032  0.0029 -0.6926
  124OSM   C13S13214   0.074   5.159   7.754 -0.1181 -0.7676 -0.0031
  124OSM   H13S13215   0.157   5.233   7.747 -0.1529 -0.7169  0.1105
  124OSM   H13T13216   0.119   5.060   7.777  2.8659  0.2710 -1.1418
  124OSM   C14S13217  -0.019   5.204   7.867  0.0164  1.0178 -0.1536
  124OSM   H14S13218  -0.110   5.141   7.871 -0.2886  1.3816 -1.1264
  124OSM   H14T13219  -0.052   5.305   7.837 -0.6921  0.8429  0.0378
  124OSM   C15S13220   0.059   5.193   8.002  0.2487 -0.2796  0.2215
  124OSM   H15S13221   0.158   5.242   7.994  0.5489 -0.3426  3.0533
  124OSM   H15T13222   0.073   5.084   8.020 -3.6391 -0.8734  0.0850
  124OSM   C16S13223  -0.021   5.243   8.123 -0.1456 -0.2029 -0.0381
  124OSM   H16S13224  -0.107   5.175   8.138 -0.2957 -0.1255 -0.5555
  124OSM   H16T13225  -0.063   5.346   8.114 -0.0906 -0.1162  0.7006
  124OSM   C17S13226   0.060   5.237   8.257  0.3710  0.2181 -0.1229
  124OSM   H17S13227   0.125   5.327   8.263  1.3924 -0.5704  0.6831
  124OSM   H17T13228   0.114   5.139   8.260 -1.0335 -0.5700 -0.2493
  124OSM   C18S13229  -0.034   5.241   8.385  0.0211 -0.3427 -0.0993
  124OSM   H18S13230  -0.082   5.341   8.384 -0.3503 -0.4432  2.5986
  124OSM   H18T13231   0.034   5.224   8.471 -0.8498  0.0111  0.6667
  124OSM   H18U13232  -0.110   5.161   8.378  0.9460 -1.1142 -1.4379
  124OSM    C1F13233   0.766   5.114   6.851  0.3239  0.7053 -0.0413
  124OSM     OF13234   0.786   5.195   6.766  0.3631 -0.4544 -0.3298
  124OSM    C2F13235   0.832   5.113   6.985  0.6215  0.4314  0.6941
  124OSM    H2F13236   0.892   5.020   6.984  1.1541  0.7721  0.1873
  124OSM    H2G13237   0.755   5.120   7.065 -0.8211  0.2152 -0.6582
  124OSM    C3F13238   0.920   5.241   6.998 -0.3486  0.6908 -0.6294
  124OSM    H3F13239   0.860   5.327   6.961  0.2371  1.2728 -0.2523
  124OSM    H3G13240   1.010   5.235   6.934 -1.6448 -4.2701 -2.2030
  124OSM    C4F13241   0.970   5.270   7.143 -0.5073 -0.7933  0.9465
  124OSM    H4F13242   0.991   5.379   7.145 -1.1236 -0.6720  0.9791
  124OSM    H4G13243   1.067   5.218   7.152  1.4376  2.4005 -0.7429
  124OSM    C5F13244   0.873   5.230   7.258 -0.3663  0.4175  0.0498
  124OSM    H5F13245   0.856   5.120   7.256  2.1134  0.0286 -3.4372
  124OSM    H5G13246   0.772   5.260   7.223  0.7213  0.3121 -3.3562
  124OSM    C6F13247   0.911   5.277   7.397 -0.2785 -0.3769 -0.5809
  124OSM    H6F13248   0.824   5.264   7.465  2.0828 -0.4168  2.5820
  124OSM    H6G13249   0.941   5.384   7.395 -2.6401  0.3631  1.5672
  124OSM    C7F13250   1.026   5.193   7.466  0.6207 -0.3752 -0.4955
  124OSM    H7F13251   1.118   5.208   7.406 -0.4921  0.5072 -2.0355
  124OSM    H7G13252   0.994   5.086   7.467  2.2973 -0.9060 -1.5150
  124OSM    C8F13253   1.052   5.234   7.618 -0.2473  1.0690  0.2661
  124OSM    H8F13254   1.091   5.338   7.613 -2.2195  1.8106  0.1451
  124OSM    H8G13255   1.140   5.175   7.653 -1.5608 -2.0176 -1.4164
  124OSM    C9F13256   0.939   5.211   7.711 -0.1947  0.5975 -0.3218
  124OSM    H9F13257   0.932   5.106   7.744  1.5020  0.9262  1.1828
  124OSM   C10F13258   0.865   5.302   7.774 -0.4828 -0.0580  0.8724
  124OSM   H10F13259   0.793   5.278   7.854  1.2585 -1.7914  1.9933
  124OSM   C11F13260   0.884   5.454   7.764  0.2925  0.3728 -0.5289
  124OSM   H11F13261   0.788   5.498   7.729 -1.6934 -2.2305  1.4122
  124OSM   H11G13262   0.963   5.487   7.694  0.7892  3.3286  1.2873
  124OSM   C12F13263   0.916   5.514   7.903  0.6130 -0.2572  0.6452
  124OSM   H12F13264   0.952   5.618   7.892  1.3874 -0.7299 -1.7232
  124OSM   H12G13265   0.999   5.459   7.952 -0.9513 -3.5362 -0.2156
  124OSM   C13F13266   0.790   5.520   7.991 -0.3078  0.2335  1.0280
  124OSM   H13F13267   0.754   5.419   8.020  2.3197 -0.5269  1.8170
  124OSM   H13G13268   0.703   5.559   7.934  2.3266  0.6425 -2.8932
  124OSM   C14F13269   0.818   5.597   8.122 -0.2051  0.2468  0.3746
  124OSM   H14F13270   0.845   5.702   8.098  0.4273  0.3533  1.5196
  124OSM   H14G13271   0.898   5.543   8.178 -0.6583 -1.6010 -0.7052
  124OSM   C15F13272   0.698   5.596   8.216  0.4495 -0.7119 -0.2993
  124OSM   H15F13273   0.675   5.490   8.240 -0.1438 -0.6207 -0.4539
  124OSM   H15G13274   0.610   5.639   8.164  1.3387  2.7284  0.9446
  124OSM   C16F13275   0.717   5.684   8.343  0.2186  0.6522 -0.5486
  124OSM   H16F13276   0.763   5.778   8.308  2.4124 -0.7090 -1.4226
  124OSM   H16G13277   0.784   5.638   8.419  0.2632 -0.0265 -0.9904
  124OSM   C17F13278   0.577   5.712   8.404 -0.6943  0.0346  0.5524
  124OSM   H17F13279   0.501   5.737   8.327 -0.6363 -1.5501 -0.0549
  124OSM   H17G13280   0.583   5.796   8.476  0.8792 -1.4558  2.2193
  124OSM   C18F13281   0.515   5.591   8.473 -0.8645  0.0624  0.0614
  124OSM   H18F13282   0.420   5.625   8.519 -0.1767  1.5258  0.4287
  124OSM   H18G13283   0.585   5.565   8.554  1.3604 -0.7720 -2.0707
  124OSM   H18H13284   0.507   5.500   8.409 -0.8698 -0.4970  0.8565
  125OSM      N13285   0.206   6.057   6.004  0.2930  1.0470 -0.1740
  125OSM    C1513286   0.130   5.974   6.106 -0.2507 -0.0328 -0.0335
  125OSM   H15A13287   0.062   5.899   6.070  1.5776 -2.1220  0.7089
  125OSM   H15B13288   0.061   6.032   6.165 -0.0865  0.4763 -0.3359
  125OSM   H15C13289   0.199   5.932   6.177 -1.0859 -0.6040  0.4381
  125OSM    C1413290   0.320   5.974   5.947  0.0624  0.3740  0.5311
  125OSM   H14A13291   0.301   5.868   5.937  0.6230  0.2658  0.5588
  125OSM   H14B13292   0.411   5.990   6.003  1.3976  0.9642 -1.7601
  125OSM   H14C13293   0.348   6.008   5.848  2.0618  0.6102  1.1503
  125OSM    C1313294   0.105   6.082   5.898  0.3118 -0.4013  0.4471
  125OSM   H13A13295   0.076   6.004   5.830  1.2389  1.2426 -1.9113
  125OSM   H13B13296   0.146   6.161   5.836 -0.6624  0.3292  0.7248
  125OSM   H13C13297   0.032   6.148   5.943  0.0275 -0.4490  0.0634
  125OSM    C1213298   0.256   6.189   6.054 -0.4940  0.1106  0.5627
  125OSM   H12A13299   0.168   6.251   6.062 -0.7912 -0.3797  1.2100
  125OSM   H12B13300   0.317   6.235   5.978  0.4402 -2.7448 -0.4912
  125OSM    C1113301   0.338   6.179   6.182  0.5083 -0.2220  0.8372
  125OSM   H11A13302   0.281   6.133   6.266 -3.0537  0.8789 -0.8533
  125OSM   H11B13303   0.354   6.285   6.214  0.2533 -0.2469  1.0485
  125OSM      P13304   0.537   6.024   6.253 -0.0567  0.4623  0.3286
  125OSM    O1313305   0.522   5.891   6.188 -0.0365 -0.6659 -0.1374
  125OSM    O1413306   0.673   6.075   6.272  0.6269 -0.0542 -0.0556
  125OSM    O1113307   0.449   6.042   6.391 -0.6884 -0.2748 -0.8531
  125OSM    O1213308   0.466   6.125   6.157  1.0202 -0.4010  0.5961
  125OSM    C1S13309   0.470   6.159   6.472  0.8971  0.1503 -0.0078
  125OSM    H1S13310   0.400   6.238   6.438  2.1559  1.1408 -0.3318
  125OSM    H1T13311   0.573   6.201   6.465  1.4931 -1.2475  0.1983
  125OSM     NF13312   0.441   6.260   6.695  0.4042  0.5167 -0.0348
  125OSM    HNF13313   0.519   6.286   6.753  1.7924  0.4547 -1.8393
  125OSM    C2S13314   0.442   6.128   6.626 -0.3521 -0.1158  0.0365
  125OSM    H2S13315   0.346   6.074   6.640 -0.7377  0.8705  1.2966
  125OSM    C3S13316   0.547   6.029   6.674  0.0941 -0.2360  0.1127
  125OSM    H3S13317   0.644   6.082   6.666 -0.5624  1.3287  2.0653
  125OSM     O313318   0.551   5.912   6.589 -0.7085  0.3591 -0.3984
  125OSM    HO313319   0.509   5.934   6.505 -1.1265  1.3223  0.0627
  125OSM    C4S13320   0.529   5.993   6.810 -0.1082  0.5699 -0.1772
  125OSM    H4S13321   0.432   5.942   6.827  0.7376 -1.2739 -0.7349
  125OSM    C5S13322   0.615   6.005   6.911 -0.5686  0.7822  0.5059
  125OSM    H5S13323   0.718   6.038   6.894  0.0319 -1.1777  0.1589
  125OSM    C6S13324   0.579   5.964   7.053  0.2265  0.5116  0.0436
  125OSM    H6S13325   0.628   6.038   7.120  0.9610  1.0954 -1.1128
  125OSM    H6T13326   0.622   5.863   7.064  0.3746  0.4674 -0.9041
  125OSM    C7S13327   0.434   5.975   7.100 -0.0021 -0.1957  0.0780
  125OSM    H7S13328   0.387   5.886   7.052 -0.0707 -0.5847  0.8572
  125OSM    H7T13329   0.371   6.057   7.062 -1.0037 -0.6642  0.7011
  125OSM    C8S13330   0.420   5.974   7.256  0.5292  0.1775  0.4390
  125OSM    H8S13331   0.476   6.055   7.307  1.0023 -0.7525  1.3976
  125OSM    H8T13332   0.474   5.883   7.289  1.6694  0.2561 -1.1862
  125OSM    C9S13333   0.278   5.956   7.306 -0.0351  0.2947  0.1470
  125OSM    H9S13334   0.231   5.875   7.247 -0.5558 -0.1799  1.2061
  125OSM    H9T13335   0.218   6.045   7.275  1.4916  0.4991 -2.3839
  125OSM   C10S13336   0.252   5.924   7.453 -0.4618  0.3515  0.1269
  125OSM   H10S13337   0.303   5.832   7.490  1.6372  1.7068  0.7118
  125OSM   H10T13338   0.144   5.899   7.461 -1.0073  1.6646 -2.6029
  125OSM   C11S13339   0.277   6.045   7.539 -0.2556  0.4622 -0.3177
  125OSM   H11S13340   0.211   6.120   7.490  0.6917  0.6229 -1.3700
  125OSM   H11T13341   0.381   6.085   7.530  0.1424 -0.2561  0.9180
  125OSM   C12S13342   0.246   6.013   7.682 -0.3221 -0.7333  0.1017
  125OSM   H12S13343   0.325   5.941   7.712 -0.3449 -1.2121 -0.9516
  125OSM   H12T13344   0.144   5.970   7.694 -0.0510 -1.6018 -0.6299
  125OSM   C13S13345   0.261   6.126   7.789  0.5075 -0.2966  0.1918
  125OSM   H13S13346   0.185   6.204   7.765  1.6343  0.3175 -1.4740
  125OSM   H13T13347   0.356   6.179   7.768  0.8268 -0.3989  1.3244
  125OSM   C14S13348   0.269   6.068   7.931 -0.5666  0.2302  0.3563
  125OSM   H14S13349   0.366   6.014   7.940  0.7911  2.4410 -0.3724
  125OSM   H14T13350   0.192   5.993   7.956 -0.6581  0.2771  0.2141
  125OSM   C15S13351   0.271   6.179   8.036 -0.4845  0.0493  0.6059
  125OSM   H15S13352   0.373   6.224   8.031  0.4130 -1.6669  2.7238
  125OSM   H15T13353   0.274   6.144   8.141 -0.8678 -0.3196  0.4949
  125OSM   C16S13354   0.162   6.287   8.024 -0.4724 -0.1640  0.8860
  125OSM   H16S13355   0.056   6.255   8.015 -0.6219 -0.0886  2.2569
  125OSM   H16T13356   0.179   6.349   7.933 -1.7537 -0.6914  0.2842
  125OSM   C17S13357   0.159   6.384   8.146 -0.0089  0.2909  0.0427
  125OSM   H17S13358   0.264   6.416   8.163  0.0921  1.3822 -2.4097
  125OSM   H17T13359   0.122   6.326   8.233 -1.7398  0.1018 -0.7889
  125OSM   C18S13360   0.069   6.508   8.128  0.2282 -0.0333 -0.1240
  125OSM   H18S13361   0.125   6.587   8.074  0.0617  0.5678  0.5719
  125OSM   H18T13362   0.050   6.546   8.231  0.6866  2.8010 -1.0506
  125OSM   H18U13363  -0.027   6.484   8.079  0.4942 -1.0145 -0.1849
  125OSM    C1F13364   0.347   6.357   6.668  0.4795  0.4081 -0.1242
  125OSM     OF13365   0.241   6.331   6.605 -0.3635 -0.2725  0.2791
  125OSM    C2F13366   0.386   6.497   6.722 -0.1801  0.4036  0.5505
  125OSM    H2F13367   0.410   6.554   6.631 -0.2534 -0.1870  0.1565
  125OSM    H2G13368   0.474   6.495   6.789 -0.5680  1.5760  1.1084
  125OSM    C3F13369   0.268   6.571   6.785 -0.1907  0.1111  0.4619
  125OSM    H3F13370   0.232   6.523   6.878 -1.9336  1.8131  0.7023
  125OSM    H3G13371   0.187   6.578   6.709 -0.0547  1.4283  0.4278
  125OSM    C4F13372   0.289   6.727   6.823 -0.0677 -0.2062  0.2635
  125OSM    H4F13373   0.187   6.769   6.811  0.8925  3.7706  4.4853
  125OSM    H4G13374   0.352   6.782   6.750 -1.3382  0.3865 -0.3872
  125OSM    C5F13375   0.337   6.751   6.963 -0.1096 -0.3680 -0.1685
  125OSM    H5F13376   0.445   6.780   6.959  0.2667 -1.8378 -1.1770
  125OSM    H5G13377   0.345   6.657   7.021 -2.1411 -0.2200  0.3830
  125OSM    C6F13378   0.262   6.858   7.041  0.0148  0.0142 -0.0871
  125OSM    H6F13379   0.153   6.842   7.025 -0.0087  0.8650 -0.7943
  125OSM    H6G13380   0.282   6.958   6.997  0.9528 -0.5566 -0.9811
  125OSM    C7F13381   0.304   6.863   7.192 -0.2959  0.0647 -0.2537
  125OSM    H7F13382   0.298   6.970   7.222 -0.8942  0.5952 -2.1658
  125OSM    H7G13383   0.412   6.836   7.190  0.8259  4.2258 -1.8187
  125OSM    C8F13384   0.227   6.776   7.298 -0.0524 -0.6117 -0.2235
  125OSM    H8F13385   0.284   6.776   7.393 -0.2297 -2.2565 -0.1160
  125OSM    H8G13386   0.217   6.672   7.261  1.3262 -1.4387  1.7004
  125OSM    C9F13387   0.089   6.833   7.306  0.4674  0.1718 -0.5156
  125OSM    H9F13388   0.038   6.865   7.214  0.3674  0.5118 -0.3429
  125OSM   C10F13389   0.018   6.865   7.412  0.4228  0.0192  0.9211
  125OSM   H10F13390  -0.084   6.904   7.399  0.6484 -0.2433 -1.9736
  125OSM   C11F13391   0.061   6.839   7.556 -0.4398  0.4508  0.0267
  125OSM   H11F13392   0.154   6.894   7.583 -1.4563  1.7448  0.9411
  125OSM   H11G13393   0.069   6.728   7.555 -1.5847  0.3614  0.0268
  125OSM   C12F13394  -0.053   6.884   7.653  0.1400  0.6408 -0.6269
  125OSM   H12F13395  -0.149   6.836   7.626 -0.0572 -0.2391  1.5716
  125OSM   H12G13396  -0.081   6.991   7.651 -1.0825  0.3376  0.0443
  125OSM   C13F13397  -0.023   6.846   7.795 -0.5068  0.0006 -0.3148
  125OSM   H13F13398   0.085   6.873   7.801 -0.9101  1.6267 -0.2726
  125OSM   H13G13399  -0.032   6.736   7.811  0.0461  0.1177  0.8983
  125OSM   C14F13400  -0.094   6.923   7.909 -0.4270 -0.1376  0.6623
  125OSM   H14F13401  -0.201   6.896   7.924  0.2417 -2.7538  0.8822
  125OSM   H14G13402  -0.083   7.032   7.889  1.1064 -0.6610 -1.4524
  125OSM   C15F13403  -0.025   6.886   8.047 -0.3731 -0.6697  0.2193
  125OSM   H15F13404   0.081   6.915   8.036 -0.1885 -1.4798 -0.1939
  125OSM   H15G13405  -0.031   6.775   8.039 -3.0546 -0.4145 -2.9165
  125OSM   C16F13406  -0.089   6.960   8.165 -0.0003 -0.5541 -0.2969
  125OSM   H16F13407  -0.194   6.927   8.177  0.1720 -0.8279  0.4871
  125OSM   H16G13408  -0.095   7.068   8.140  1.5328 -0.6953 -1.4011
  125OSM   C17F13409  -0.020   6.927   8.303  0.3445  0.2668  0.1427
  125OSM   H17F13410   0.084   6.965   8.289  0.4244  0.2702  0.7422
  125OSM   H17G13411  -0.005   6.817   8.310  0.0249  0.2596  0.7081
  125OSM   C18F13412  -0.076   6.993   8.431  0.3143  0.0748 -0.1347
  125OSM   H18F13413  -0.010   6.956   8.512  1.4310  0.6335 -0.7797
  125OSM   H18G13414  -0.186   6.976   8.437  0.1283  1.5141  0.8323
  125OSM   H18H13415  -0.064   7.104   8.435  1.7174 -0.1335  2.9315
  126OSM      N13416   3.827   5.690   6.220 -0.1074  0.6809 -0.3931
  126OSM    C1513417   3.969   5.661   6.181 -0.0938 -1.2407 -0.1276
  126OSM   H15A13418   3.996   5.556   6.190  0.0483 -1.3443 -1.7007
  126OSM   H15B13419   4.023   5.695   6.268 -0.6986  2.4969 -1.1301
  126OSM   H15C13420   4.002   5.712   6.092  0.3125 -0.8874  0.2277
  126OSM    C1413421   3.813   5.843   6.203 -0.2520  0.1124 -0.0698
  126OSM   H14A13422   3.710   5.875   6.212 -1.0299 -1.5138 -2.5781
  126OSM   H14B13423   3.835   5.876   6.103 -1.1235  2.3345  0.4460
  126OSM   H14C13424   3.873   5.900   6.272 -2.1827  0.8280  1.0633
  126OSM    C1313425   3.737   5.609   6.132 -0.0823  0.8795  0.1871
  126OSM   H13A13426   3.630   5.623   6.142 -1.0891 -3.4766 -3.2496
  126OSM   H13B13427   3.766   5.505   6.132 -1.1714  0.5632 -0.4578
  126OSM   H13C13428   3.748   5.647   6.032 -3.8249 -0.2196 -0.7151
  126OSM    C1213429   3.801   5.654   6.370 -0.6634  0.0546 -0.0800
  126OSM   H12A13430   3.798   5.547   6.383  3.0167  0.1298  1.8003
  126OSM   H12B13431   3.703   5.690   6.400  0.3435 -0.1892  3.6051
  126OSM    C1113432   3.899   5.707   6.481  0.3780  0.7006  0.4560
  126OSM   H11A13433   3.861   5.668   6.577  0.5207 -1.5100 -0.3661
  126OSM   H11B13434   3.882   5.817   6.487  0.6206  0.6778  1.5707
  126OSM      P13435   4.156   5.730   6.527 -0.3691 -0.1941  0.0750
  126OSM    O1313436   4.279   5.660   6.480  0.2541 -0.1203  0.5878
  126OSM    O1413437   4.157   5.877   6.525  0.1161  0.0073  0.4439
  126OSM    O1113438   4.133   5.674   6.674  0.6918  0.1123  0.3802
  126OSM    O1213439   4.031   5.660   6.456  0.1305  0.0447  0.3428
  126OSM    C1S13440   4.131   5.756   6.794  0.1906  0.3451  0.0779
  126OSM    H1S13441   4.044   5.825   6.792  1.8695  2.6229  2.0869
  126OSM    H1T13442   4.227   5.811   6.805  0.9297 -0.6530 -1.2891
  126OSM     NF13443   4.092   5.773   7.033 -0.5238  0.3163  0.5450
  126OSM    HNF13444   4.169   5.811   7.085 -1.1034  0.1936  1.4962
  126OSM    C2S13445   4.130   5.674   6.929  0.1454  0.4706  0.1794
  126OSM    H2S13446   4.052   5.596   6.926 -0.7583  1.3202  0.9937
  126OSM    C3S13447   4.269   5.605   6.935  0.1959 -0.6747 -0.3220
  126OSM    H3S13448   4.346   5.683   6.954 -0.2984  0.1234 -1.5285
  126OSM     O313449   4.321   5.554   6.814 -0.3214  0.1251  0.2375
  126OSM    HO313450   4.253   5.593   6.759 -0.2252  1.2054  0.8838
  126OSM    C4S13451   4.276   5.507   7.054  0.6111  0.3829 -0.2479
  126OSM    H4S13452   4.259   5.561   7.149 -1.1311 -1.6753  0.6601
  126OSM    C5S13453   4.293   5.377   7.063 -0.1362  0.2076  0.2188
  126OSM    H5S13454   4.313   5.317   6.972 -0.5669 -1.8099  1.4196
  126OSM    C6S13455   4.316   5.306   7.193  0.0687 -0.5501 -0.4872
  126OSM    H6S13456   4.383   5.219   7.181  0.0418 -0.7591  0.8711
  126OSM    H6T13457   4.222   5.264   7.234 -0.0071  0.3982  0.3365
  126OSM    C7S13458   4.361   5.398   7.312 -0.1590 -0.7694 -0.3191
  126OSM    H7S13459   4.271   5.457   7.338 -0.7455 -1.3012 -1.0919
  126OSM    H7T13460   4.438   5.471   7.280 -0.5594 -1.0978 -2.1167
  126OSM    C8S13461   4.405   5.331   7.442  0.5429  0.4531 -0.0118
  126OSM    H8S13462   4.484   5.257   7.414  1.1789  0.6760  1.1617
  126OSM    H8T13463   4.316   5.274   7.476  1.1435  0.3669  1.4272
  126OSM    C9S13464   4.439   5.432   7.555  0.6211  0.8945  0.5355
  126OSM    H9S13465   4.354   5.503   7.560 -0.0859  0.4256 -3.2975
  126OSM    H9T13466   4.537   5.482   7.539  1.6932 -1.2378  0.2610
  126OSM   C10S13467   4.441   5.357   7.692  0.0664  0.3591  0.1903
  126OSM   H10S13468   4.543   5.312   7.690  0.5582  1.3732  1.4788
  126OSM   H10T13469   4.360   5.282   7.697  0.2411  0.1481 -0.1317
  126OSM   C11S13470   4.440   5.453   7.812  0.7010  0.9833 -0.2158
  126OSM   H11S13471   4.348   5.516   7.804  0.1188  0.1931  0.1470
  126OSM   H11T13472   4.521   5.528   7.818 -0.1521  1.7583  2.2045
  126OSM   C12S13473   4.445   5.369   7.942 -0.3871 -0.0428 -0.1237
  126OSM   H12S13474   4.543   5.316   7.940 -0.1606  0.3587 -3.1088
  126OSM   H12T13475   4.360   5.300   7.926  1.0127 -0.7790 -5.2370
  126OSM   C13S13476   4.433   5.460   8.069  0.9186  0.2400 -0.3701
  126OSM   H13S13477   4.329   5.500   8.064  2.0054  3.4672  1.1899
  126OSM   H13T13478   4.510   5.539   8.058  0.6858  0.3923 -0.9002
  126OSM   C14S13479   4.469   5.388   8.206  0.2613 -0.4561  0.1133
  126OSM   H14S13480   4.403   5.299   8.212 -0.2819  0.0447  1.8030
  126OSM   H14T13481   4.437   5.457   8.287  0.7052 -0.6441  0.4535
  126OSM   C15S13482   4.621   5.352   8.230  0.4184 -0.2079 -0.1343
  126OSM   H15S13483   4.685   5.442   8.216  0.6424 -0.5537 -1.4357
  126OSM   H15T13484   4.650   5.286   8.145 -0.8176 -0.1867 -0.5813
  126OSM   C16S13485   4.650   5.285   8.362  0.3421 -0.0899  0.4112
  126OSM   H16S13486   4.613   5.357   8.437  0.9434 -0.3333  0.9484
  126OSM   H16T13487   4.761   5.278   8.362  0.3793  0.3191 -0.9772
  126OSM   C17S13488   4.601   5.145   8.384 -0.1378 -0.2530 -0.2447
  126OSM   H17S13489   4.631   5.080   8.299 -1.1460 -1.7206  0.5243
  126OSM   H17T13490   4.491   5.153   8.378 -0.0798  0.2088 -0.7474
  126OSM   C18S13491   4.630   5.084   8.526  0.5204 -0.3251 -0.8680
  126OSM   H18S13492   4.731   5.039   8.540 -0.0768 -1.0660  1.1364
  126OSM   H18T13493   4.557   5.000   8.530  0.5536 -0.2857  1.0808
  126OSM   H18U13494   4.624   5.152   8.614  0.7681 -1.1268 -0.2289
  126OSM    C1F13495   3.977   5.838   7.054  0.2229 -0.2074  0.3106
  126OSM     OF13496   3.878   5.833   6.977  0.4315 -0.2235 -0.5181
  126OSM    C2F13497   3.973   5.931   7.170 -0.2886  0.0688 -0.0008
  126OSM    H2F13498   3.957   6.036   7.137 -1.1164  0.8914  2.8306
  126OSM    H2G13499   4.070   5.910   7.221  0.5524 -0.1531 -1.6598
  126OSM    C3F13500   3.871   5.887   7.278  1.1426  0.4324 -0.0944
  126OSM    H3F13501   3.894   5.781   7.301 -0.2768  0.4824  1.6732
  126OSM    H3G13502   3.770   5.894   7.230 -0.3893 -2.0635  2.6149
  126OSM    C4F13503   3.884   5.978   7.396  0.4231  0.4227  0.1466
  126OSM    H4F13504   3.783   5.997   7.437 -0.1405  2.1718 -1.9205
  126OSM    H4G13505   3.911   6.083   7.372  1.0144 -0.3072 -2.5216
  126OSM    C5F13506   3.978   5.920   7.503 -0.2259  0.4157  0.8795
  126OSM    H5F13507   4.085   5.920   7.474 -0.5041  1.7446 -0.1736
  126OSM    H5G13508   3.950   5.813   7.519 -0.7175  0.0653 -2.1442
  126OSM    C6F13509   3.971   5.997   7.632  0.8087 -0.0138 -0.2921
  126OSM    H6F13510   3.885   5.977   7.700 -0.3473  2.1133 -1.0459
  126OSM    H6G13511   3.962   6.105   7.604  0.4359  0.7295  2.5374
  126OSM    C7F13512   4.095   5.971   7.725 -0.3665 -0.3472 -0.2937
  126OSM    H7F13513   4.188   6.010   7.679 -0.5847  1.0561  0.4282
  126OSM    H7G13514   4.105   5.861   7.737  1.3674  0.0044  1.8170
  126OSM    C8F13515   4.090   6.041   7.858 -0.1077  0.1431  0.0520
  126OSM    H8F13516   4.073   6.151   7.851 -0.7193  0.2010  2.1009
  126OSM    H8G13517   4.190   6.039   7.906  0.9248 -0.0983 -2.0596
  126OSM    C9F13518   3.979   5.988   7.944  0.5403  0.4453 -0.0787
  126OSM    H9F13519   3.885   6.044   7.954  0.4244  0.3847 -0.7660
  126OSM   C10F13520   3.986   5.877   8.018 -0.3845 -0.6898 -0.4436
  126OSM   H10F13521   3.900   5.864   8.086  0.0038 -1.7909 -0.1452
  126OSM   C11F13522   4.097   5.779   8.031 -0.6445  1.0298  0.5394
  126OSM   H11F13523   4.183   5.808   7.969 -1.8213  2.3452 -0.5146
  126OSM   H11G13524   4.057   5.682   7.994 -0.5816  1.0446  0.4334
  126OSM   C12F13525   4.144   5.755   8.173 -0.3685 -0.6303 -1.6407
  126OSM   H12F13526   4.197   5.847   8.205 -1.4667 -0.4789 -0.1838
  126OSM   H12G13527   4.216   5.671   8.178  1.1711  0.8245  2.1120
  126OSM   C13F13528   4.025   5.731   8.264 -0.7897  0.2838  0.3045
  126OSM   H13F13529   3.956   5.649   8.234 -1.6168  1.3173 -0.6420
  126OSM   H13G13530   3.958   5.819   8.268 -0.0545  0.8070  1.6991
  126OSM   C14F13531   4.066   5.695   8.409  0.0183  0.6831 -0.0004
  126OSM   H14F13532   4.140   5.772   8.440 -0.9301  1.1433  1.1577
  126OSM   H14G13533   4.111   5.595   8.424 -1.3655  0.2308  1.2717
  126OSM   C15F13534   3.940   5.698   8.499  0.7725 -0.0230  0.1747
  126OSM   H15F13535   3.873   5.616   8.466 -0.5678  0.9132  0.4961
  126OSM   H15G13536   3.892   5.798   8.487  0.3154 -0.3408 -0.6386
  126OSM   C16F13537   3.974   5.680   8.649  0.1418 -0.2208  0.1175
  126OSM   H16F13538   4.035   5.768   8.679 -1.1893 -0.0648  2.5222
  126OSM   H16G13539   4.031   5.586   8.660 -1.3473 -0.9982  1.2967
  126OSM   C17F13540   3.856   5.680   8.751 -0.1719 -0.3150  0.6438
  126OSM   H17F13541   3.826   5.786   8.756 -3.4359 -1.2483  1.7682
  126OSM   H17G13542   3.900   5.652   8.850  1.5304 -1.9760 -0.5308
  126OSM   C18F13543   3.740   5.587   8.712  0.1654 -0.6310 -0.3971
  126OSM   H18F13544   3.694   5.618   8.616 -0.5786 -1.9154 -0.4735
  126OSM   H18G13545   3.666   5.580   8.794 -0.0922  0.9025 -0.4857
  126OSM   H18H13546   3.778   5.483   8.704  0.8940 -0.3771 -0.2598
  127OSM      N13547   5.754   4.205   5.874 -0.0669  0.1128 -0.2725
  127OSM    C1513548   5.672   4.280   5.777  0.1783 -0.4741  0.4298
  127OSM   H15A13549   5.567   4.261   5.792  0.6104 -1.3247  2.4917
  127OSM   H15B13550   5.697   4.251   5.676  3.2582  2.2872  0.3064
  127OSM   H15C13551   5.677   4.386   5.797 -2.3705 -0.5164  1.4461
  127OSM    C1413552   5.736   4.057   5.852  0.9493 -0.0249 -0.3198
  127OSM   H14A13553   5.630   4.043   5.863  1.3609 -1.4531  2.0696
  127OSM   H14B13554   5.788   3.991   5.920 -0.0090 -1.0960 -0.6083
  127OSM   H14C13555   5.752   4.021   5.751 -0.4244  0.3644 -0.6758
  127OSM    C1313556   5.898   4.236   5.865  0.5728  0.7676 -0.1518
  127OSM   H13A13557   5.947   4.209   5.958  1.8964  2.5490 -0.2988
  127OSM   H13B13558   5.907   4.343   5.857  0.3412  0.5916 -2.9533
  127OSM   H13C13559   5.946   4.186   5.782  0.7583  0.7091 -0.0113
  127OSM    C1213560   5.703   4.242   6.014 -0.4694  0.4263 -0.2279
  127OSM   H12A13561   5.596   4.250   6.004 -0.3071  1.8964 -0.9374
  127OSM   H12B13562   5.740   4.342   6.036  2.2190 -0.4614 -0.5035
  127OSM    C1113563   5.743   4.145   6.130  0.2961 -0.2793  0.8279
  127OSM   H11A13564   5.705   4.046   6.099 -3.6749  1.8086 -1.4756
  127OSM   H11B13565   5.691   4.170   6.225  1.2645  1.7272  0.8775
  127OSM      P13566   5.957   4.251   6.234  0.6032 -0.2342 -0.6244
  127OSM    O1313567   6.101   4.250   6.196  0.3883 -0.0013  0.3523
  127OSM    O1413568   5.889   4.381   6.213 -0.2014 -0.3802  0.1008
  127OSM    O1113569   5.938   4.204   6.385  0.0894  0.4414  0.0048
  127OSM    O1213570   5.885   4.139   6.150  0.2392 -0.4403  0.1797
  127OSM    C1S13571   5.924   4.284   6.503 -0.5112  0.2749  0.1299
  127OSM    H1S13572   5.831   4.343   6.501 -1.0865 -0.5769  1.1492
  127OSM    H1T13573   6.001   4.363   6.505 -1.6318  1.3505  1.7669
  127OSM     NF13574   5.913   4.304   6.735 -0.5337 -0.1431  0.1255
  127OSM    HNF13575   5.997   4.346   6.766 -0.9296  1.7856 -1.3232
  127OSM    C2S13576   5.937   4.206   6.631 -0.0507  0.5039 -0.4173
  127OSM    H2S13577   5.858   4.128   6.627 -0.2068  0.6389  0.0445
  127OSM    C3S13578   6.073   4.139   6.638 -0.2926  0.6022 -0.4454
  127OSM    H3S13579   6.149   4.220   6.633  0.7018 -0.4162 -2.5402
  127OSM     O313580   6.105   4.053   6.527  0.5305  0.0151  0.1743
  127OSM    HO313581   6.054   4.090   6.455 -0.1875 -2.6823 -0.7809
  127OSM    C4S13582   6.080   4.066   6.767 -0.4125  0.0104 -0.1851
  127OSM    H4S13583   6.025   3.971   6.761  0.7582 -0.5901 -1.9749
  127OSM    C5S13584   6.146   4.101   6.874  0.0612  0.1090  0.2836
  127OSM    H5S13585   6.202   4.196   6.872 -1.0077  0.7445 -1.2654
  127OSM    C6S13586   6.147   4.028   7.001  0.2089 -0.1644  1.1257
  127OSM    H6S13587   6.233   3.959   7.002  1.8155  1.7968  2.8520
  127OSM    H6T13588   6.053   3.969   7.016 -0.6040  0.0978 -2.5641
  127OSM    C7S13589   6.159   4.124   7.128  0.0787  0.2273  0.7656
  127OSM    H7S13590   6.085   4.206   7.119 -0.4306 -0.4031 -0.9251
  127OSM    H7T13591   6.253   4.183   7.139 -0.3929  0.7584  2.0974
  127OSM    C8S13592   6.123   4.061   7.266  0.7500 -0.2970 -0.8457
  127OSM    H8S13593   6.192   3.976   7.286 -0.0129 -1.4290 -2.8790
  127OSM    H8T13594   6.017   4.029   7.261 -0.8065  3.9697  1.8190
  127OSM    C9S13595   6.138   4.155   7.382 -0.0802 -0.4297 -0.8618
  127OSM    H9S13596   6.100   4.253   7.347  0.8315 -0.2035 -1.2466
  127OSM    H9T13597   6.243   4.173   7.414  0.1147 -2.5468 -0.2496
  127OSM   C10S13598   6.053   4.112   7.501  0.5392  0.4518 -0.6868
  127OSM   H10S13599   6.061   4.004   7.528  0.4914  0.7544  0.5695
  127OSM   H10T13600   5.948   4.132   7.472  0.8489  0.4518 -1.8314
  127OSM   C11S13601   6.090   4.194   7.631  0.0622  0.9588  0.1210
  127OSM   H11S13602   6.050   4.296   7.611  0.9864  0.9355 -1.9158
  127OSM   H11T13603   6.199   4.189   7.647  0.3612 -1.4464 -2.3888
  127OSM   C12S13604   6.012   4.145   7.758 -0.0526 -0.6606 -0.4026
  127OSM   H12S13605   6.053   4.047   7.788 -0.3902 -0.0452  2.1957
  127OSM   H12T13606   5.903   4.133   7.746 -0.2022 -1.7613  1.8538
  127OSM   C13S13607   6.050   4.231   7.879  0.6764 -0.1465  0.1187
  127OSM   H13S13608   6.030   4.337   7.851  0.4149  0.0448  1.0245
  127OSM   H13T13609   6.160   4.220   7.888  0.8292 -0.7972 -2.2367
  127OSM   C14S13610   5.969   4.187   8.003 -0.1525 -0.5917 -0.5809
  127OSM   H14S13611   5.961   4.079   8.023 -1.6602 -0.5278 -0.7810
  127OSM   H14T13612   5.864   4.221   7.992 -0.2770  0.2023  2.7376
  127OSM   C15S13613   6.010   4.261   8.127  0.0802  0.1704 -0.0604
  127OSM   H15S13614   6.007   4.367   8.094 -1.3043 -0.1665 -1.0497
  127OSM   H15T13615   6.114   4.227   8.148  0.1619  0.3189 -0.2188
  127OSM   C16S13616   5.924   4.242   8.249  0.2237 -0.0910 -0.5684
  127OSM   H16S13617   5.964   4.278   8.346 -2.5275  2.7297 -0.4085
  127OSM   H16T13618   5.924   4.135   8.280 -1.2452 -0.4972 -1.9019
  127OSM   C17S13619   5.782   4.293   8.237 -0.5336  0.2542  0.3441
  127OSM   H17S13620   5.721   4.242   8.160  0.4503  0.7111 -0.7568
  127OSM   H17T13621   5.787   4.399   8.204  0.6354  0.4819  1.2037
  127OSM   C18S13622   5.715   4.279   8.371  0.1343  0.1089 -0.1113
  127OSM   H18S13623   5.758   4.184   8.412 -1.4305 -2.0752 -3.3622
  127OSM   H18T13624   5.605   4.272   8.379  0.2927  0.2623  2.8839
  127OSM   H18U13625   5.746   4.356   8.445  1.8320  1.4217 -2.1383
  127OSM    C1F13626   5.799   4.360   6.770 -0.3416  0.2909  1.3676
  127OSM     OF13627   5.690   4.310   6.742 -0.1099 -0.3884  0.3863
  127OSM    C2F13628   5.800   4.480   6.855 -0.3779 -0.5210  0.0337
  127OSM    H2F13629   5.777   4.570   6.795 -1.6738 -0.0927  1.1479
  127OSM    H2G13630   5.905   4.499   6.888 -0.1467  0.4100 -1.2130
  127OSM    C3F13631   5.711   4.486   6.981  0.6888 -0.2367 -0.2789
  127OSM    H3F13632   5.610   4.443   6.961  0.9349 -1.9080  1.9212
  127OSM    H3G13633   5.693   4.593   7.007 -1.3171 -0.4338 -0.7082
  127OSM    C4F13634   5.768   4.394   7.096  0.3129 -0.6233  0.1675
  127OSM    H4F13635   5.876   4.413   7.117  1.0545 -2.7965 -1.4347
  127OSM    H4G13636   5.761   4.291   7.054  0.4803 -0.9114  0.8469
  127OSM    C5F13637   5.694   4.400   7.238  0.1063 -0.6598 -0.7507
  127OSM    H5F13638   5.588   4.389   7.206  0.4114  1.4738 -2.6346
  127OSM    H5G13639   5.703   4.498   7.288 -0.0956 -0.3247 -1.3672
  127OSM    C6F13640   5.763   4.301   7.330 -0.6687 -0.0711 -0.8861
  127OSM    H6F13641   5.863   4.336   7.362 -2.3634  1.8110  2.7131
  127OSM    H6G13642   5.784   4.210   7.271  1.9777 -0.0007 -0.0845
  127OSM    C7F13643   5.691   4.285   7.464  0.4162 -0.0188 -0.2267
  127OSM    H7F13644   5.724   4.188   7.508  0.6113  0.0413 -0.2392
  127OSM    H7G13645   5.582   4.268   7.453 -0.0673  2.9292 -0.4306
  127OSM    C8F13646   5.707   4.387   7.575  0.2436 -0.0776 -0.4758
  127OSM    H8F13647   5.810   4.427   7.589  0.0318 -0.9049  4.6539
  127OSM    H8G13648   5.687   4.336   7.672  1.8155  0.3392  0.0810
  127OSM    C9F13649   5.616   4.506   7.557  0.1826  0.0615 -0.0870
  127OSM    H9F13650   5.666   4.586   7.500  0.8318 -0.6020 -0.4479
  127OSM   C10F13651   5.492   4.526   7.614  0.2705 -0.1945  0.2985
  127OSM   H10F13652   5.449   4.624   7.589  0.6604 -0.0867  0.0430
  127OSM   C11F13653   5.415   4.437   7.706 -0.4073  0.4683  0.3176
  127OSM   H11F13654   5.472   4.342   7.716 -0.9250 -0.0938 -1.8348
  127OSM   H11G13655   5.318   4.406   7.662  0.1296 -0.6886 -0.0922
  127OSM   C12F13656   5.405   4.500   7.844 -0.7039  0.3097 -0.1494
  127OSM   H12F13657   5.324   4.575   7.837 -0.0172  1.0827  0.1007
  127OSM   H12G13658   5.499   4.557   7.865  0.0327 -0.3502 -1.5599
  127OSM   C13F13659   5.392   4.386   7.947  0.5921  0.4345 -0.0610
  127OSM   H13F13660   5.464   4.305   7.922  1.6112  0.8322  1.5331
  127OSM   H13G13661   5.289   4.346   7.935  0.2583  0.2777  3.1264
  127OSM   C14F13662   5.411   4.427   8.090 -0.4410 -0.2028  0.8907
  127OSM   H14F13663   5.519   4.429   8.116  0.2148  1.0302 -1.7215
  127OSM   H14G13664   5.366   4.344   8.149  0.0712 -1.2441 -0.1763
  127OSM   C15F13665   5.337   4.562   8.115 -0.5128  0.1421 -1.0787
  127OSM   H15F13666   5.234   4.539   8.078 -0.9440 -2.2375  1.4910
  127OSM   H15G13667   5.387   4.646   8.062  1.6344 -0.4244  0.0155
  127OSM   C16F13668   5.334   4.590   8.267 -1.0277  0.2665  0.1231
  127OSM   H16F13669   5.432   4.626   8.302 -0.0941 -1.1843 -0.9248
  127OSM   H16G13670   5.301   4.498   8.321  1.3455 -0.4572  0.3824
  127OSM   C17F13671   5.242   4.712   8.294  1.0086  0.2130  0.1378
  127OSM   H17F13672   5.147   4.688   8.242  0.3920 -1.6250  2.0146
  127OSM   H17G13673   5.290   4.794   8.236 -0.3190  0.5553 -0.4913
  127OSM   C18F13674   5.215   4.767   8.433  0.1901  0.0150 -0.4900
  127OSM   H18F13675   5.132   4.840   8.424 -0.9115 -1.2755 -0.8562
  127OSM   H18G13676   5.306   4.820   8.471  1.3489 -1.4826 -1.1226
  127OSM   H18H13677   5.192   4.682   8.500  4.4584 -1.0083 -0.1595
  128OSM      N13678   0.486   0.754   6.065  0.4795  0.2974  0.2261
  128OSM    C1513679   0.416   0.862   6.135  0.3535 -0.0272 -0.2888
  128OSM   H15A13680   0.389   0.938   6.063 -0.8721  0.1102  0.3014
  128OSM   H15B13681   0.464   0.908   6.220  0.5386 -2.3767  0.9272
  128OSM   H15C13682   0.320   0.825   6.170  0.7738 -2.5412 -1.7109
  128OSM    C1413683   0.460   0.625   6.140  0.7847  0.1293  0.1674
  128OSM   H14A13684   0.355   0.598   6.147  1.2873 -1.8134  0.4418
  128OSM   H14B13685   0.504   0.627   6.238 -0.5660  3.7192  0.7832
  128OSM   H14C13686   0.507   0.544   6.086 -1.1908  0.8632 -2.7921
  128OSM    C1313687   0.421   0.736   5.931  0.0068 -0.1532 -0.1955
  128OSM   H13A13688   0.435   0.828   5.876 -0.6439 -1.6108 -2.8474
  128OSM   H13B13689   0.313   0.722   5.935 -0.1452  0.1950 -2.8136
  128OSM   H13C13690   0.468   0.659   5.872  3.5311  1.3789  0.5078
  128OSM    C1213691   0.636   0.782   6.051 -0.2916 -0.8370  0.2444
  128OSM   H12A13692   0.684   0.805   6.145 -1.5112 -1.0354  0.9227
  128OSM   H12B13693   0.643   0.874   5.995 -0.6198 -0.9908 -0.0477
  128OSM    C1113694   0.716   0.680   5.967  0.0439  0.4202 -0.7836
  128OSM   H11A13695   0.813   0.732   5.950  0.9103 -1.2122 -1.0205
  128OSM   H11B13696   0.662   0.672   5.870 -0.2181 -0.4245 -0.5712
  128OSM      P13697   0.822   0.510   6.142 -0.0086 -0.6740 -0.1702
  128OSM    O1313698   0.767   0.389   6.193  0.6866  0.5942 -0.7016
  128OSM    O1413699   0.963   0.505   6.094  0.0278  0.0329  0.6725
  128OSM    O1113700   0.799   0.634   6.242 -0.2572 -0.2973 -0.8973
  128OSM    O1213701   0.739   0.545   6.015  0.2796 -0.0211  0.2811
  128OSM    C1S13702   0.793   0.617   6.384 -0.0277 -0.3574 -0.0044
  128OSM    H1S13703   0.794   0.509   6.410  2.0263 -0.3496 -0.0221
  128OSM    H1T13704   0.699   0.664   6.421  1.7683  2.2571  1.3440
  128OSM     NF13705   0.943   0.625   6.574 -0.4715 -0.0688 -0.2416
  128OSM    HNF13706   0.918   0.678   6.655 -1.1544 -0.0486 -0.4660
  128OSM    C2S13707   0.917   0.680   6.446  0.4621  0.2274 -0.2922
  128OSM    H2S13708   1.009   0.654   6.389  0.8916  0.8280  0.1129
  128OSM    C3S13709   0.898   0.835   6.444 -0.3783  0.4304  0.5666
  128OSM    H3S13710   0.803   0.853   6.498 -1.2403  2.6708 -1.6181
  128OSM     O313711   0.877   0.884   6.315  0.1153  0.1530 -0.2259
  128OSM    HO313712   0.848   0.804   6.270 -1.1108  0.4364  0.0361
  128OSM    C4S13713   1.014   0.912   6.494 -0.0196  0.1618 -0.3036
  128OSM    H4S13714   1.107   0.897   6.438 -0.3234 -0.5730 -0.6299
  128OSM    C5S13715   1.016   0.993   6.605 -0.7877  0.2430 -0.5332
  128OSM    H5S13716   0.925   0.987   6.667 -1.0727  1.6584 -0.8014
  128OSM    C6S13717   1.129   1.071   6.663  0.5671  0.7432 -0.0261
  128OSM    H6S13718   1.131   1.174   6.620 -1.2192  0.7984 -0.0070
  128OSM    H6T13719   1.231   1.032   6.644  0.8690  1.3071  0.4191
  128OSM    C7S13720   1.123   1.077   6.817  0.0411  0.5965 -0.0582
  128OSM    H7S13721   1.137   0.972   6.850 -3.4563 -1.6136 -4.8484
  128OSM    H7T13722   1.035   1.112   6.875  1.6734  0.5636  2.4779
  128OSM    C8S13723   1.237   1.157   6.882  0.0181 -0.2167  0.4348
  128OSM    H8S13724   1.228   1.258   6.835 -0.5256 -0.1334  0.7171
  128OSM    H8T13725   1.325   1.100   6.848 -1.3214 -2.0376 -0.0450
  128OSM    C9S13726   1.233   1.157   7.039  1.1227 -0.1372 -0.5649
  128OSM    H9S13727   1.230   1.050   7.068  6.5402 -0.0574  0.7534
  128OSM    H9T13728   1.141   1.205   7.079  0.3765 -0.4809 -1.8384
  128OSM   C10S13729   1.353   1.218   7.101 -0.4818 -0.3292 -0.5340
  128OSM   H10S13730   1.332   1.326   7.088 -1.1985 -0.5022 -0.8735
  128OSM   H10T13731   1.444   1.185   7.047  0.1117  1.6824 -0.8130
  128OSM   C11S13732   1.375   1.190   7.247  0.1052  0.0704 -0.0422
  128OSM   H11S13733   1.462   1.248   7.284  0.7659 -1.0258  0.1371
  128OSM   H11T13734   1.415   1.087   7.258 -1.1032 -0.4562 -0.4097
  128OSM   C12S13735   1.260   1.233   7.340  0.4794 -0.2215 -0.1805
  128OSM   H12S13736   1.168   1.180   7.308  2.3280 -2.4139 -2.1191
  128OSM   H12T13737   1.229   1.336   7.312 -0.1450 -0.2273  0.4780
  128OSM   C13S13738   1.301   1.231   7.494 -0.0946  1.0623  0.9333
  128OSM   H13S13739   1.371   1.312   7.522  1.4244 -0.6802  2.2164
  128OSM   H13T13740   1.346   1.133   7.520 -0.8519  0.2542 -0.6995
  128OSM   C14S13741   1.186   1.242   7.588  0.4890 -0.7547 -0.5459
  128OSM   H14S13742   1.115   1.158   7.571  0.7694 -1.1173  0.0547
  128OSM   H14T13743   1.133   1.337   7.567  1.8124  0.3540  0.9598
  128OSM   C15S13744   1.218   1.245   7.737 -0.6847 -0.3436  0.7417
  128OSM   H15S13745   1.265   1.343   7.758 -0.2043  0.4595 -3.6308
  128OSM   H15T13746   1.272   1.151   7.763 -0.1702 -1.1968 -3.1461
  128OSM   C16S13747   1.080   1.233   7.814 -0.1413  0.0483  0.2653
  128OSM   H16S13748   1.027   1.141   7.782 -0.6925  0.6757 -0.6547
  128OSM   H16T13749   1.010   1.315   7.786  0.5613 -0.4550 -3.1520
  128OSM   C17S13750   1.090   1.253   7.967  0.1800 -0.3257  0.2544
  128OSM   H17S13751   1.148   1.347   7.975 -0.2611  0.1888 -2.1675
  128OSM   H17T13752   1.156   1.172   8.006  0.1001 -0.2177  0.6169
  128OSM   C18S13753   0.955   1.261   8.041 -0.2189  0.5906 -0.1491
  128OSM   H18S13754   0.888   1.335   7.993 -1.1057  0.2178  0.4987
  128OSM   H18T13755   0.972   1.311   8.139 -2.3350  1.3000 -0.1204
  128OSM   H18U13756   0.907   1.164   8.065  0.6065  0.4689  1.0820
  128OSM    C1F13757   0.988   0.500   6.601 -0.5230 -0.5692  0.8537
  128OSM     OF13758   1.026   0.424   6.513 -0.3639  0.6617  0.0798
  128OSM    C2F13759   1.003   0.454   6.745  0.3658 -0.4464  0.9131
  128OSM    H2F13760   0.904   0.464   6.795 -0.8487  2.2063 -1.8257
  128OSM    H2G13761   1.080   0.524   6.786 -0.0107  0.9350 -0.6713
  128OSM    C3F13762   1.048   0.309   6.754 -0.3844  0.1200  0.4768
  128OSM    H3F13763   1.152   0.301   6.715  0.2488  0.3585  2.0590
  128OSM    H3G13764   0.984   0.249   6.686  0.0412 -0.4133  0.5439
  128OSM    C4F13765   1.040   0.265   6.901  0.1587 -0.3225 -0.1209
  128OSM    H4F13766   0.935   0.235   6.921  0.0598 -0.6152 -1.0331
  128OSM    H4G13767   1.067   0.356   6.959 -1.0016 -0.5443  0.7633
  128OSM    C5F13768   1.146   0.161   6.940 -0.1609 -0.1855 -0.2118
  128OSM    H5F13769   1.243   0.185   6.893 -0.5249 -1.1481 -1.4771
  128OSM    H5G13770   1.129   0.057   6.906  1.6281 -0.3218 -0.6987
  128OSM    C6F13771   1.181   0.164   7.093  0.0420  0.4628  0.0286
  128OSM    H6F13772   1.192   0.269   7.125 -0.4169 -0.1014  2.0839
  128OSM    H6G13773   1.280   0.113   7.099 -0.4510 -0.8614 -2.4094
  128OSM    C7F13774   1.083   0.088   7.183 -0.7365 -0.6847  0.1858
  128OSM    H7F13775   1.045  -0.002   7.131  0.1591 -0.9039 -0.0915
  128OSM    H7G13776   1.000   0.145   7.229 -1.8986 -2.0823 -0.1355
  128OSM    C8F13777   1.158   0.039   7.308  0.0499  0.0489  0.6978
  128OSM    H8F13778   1.234  -0.034   7.273  2.1785  1.5197  2.1687
  128OSM    H8G13779   1.089  -0.024   7.368 -1.6291  1.4186  0.2452
  128OSM    C9F13780   1.222   0.151   7.395 -0.1189 -0.8363  0.2449
  128OSM    H9F13781   1.321   0.184   7.360  0.3767 -0.1486  2.2154
  128OSM   C10F13782   1.198   0.193   7.521 -0.1590  0.9754 -0.1098
  128OSM   H10F13783   1.266   0.259   7.576 -1.3411 -0.6647  3.5173
  128OSM   C11F13784   1.083   0.155   7.608  0.1748 -0.3057 -0.1494
  128OSM   H11F13785   1.019   0.077   7.561 -0.4430 -1.7235  2.9167
  128OSM   H11G13786   1.022   0.246   7.623  0.7703  0.1540 -0.5048
  128OSM   C12F13787   1.121   0.102   7.751 -0.1850 -1.0213 -0.2216
  128OSM   H12F13788   1.194   0.019   7.744  0.7755 -0.4093  2.1700
  128OSM   H12G13789   1.031   0.073   7.808 -0.8964  1.6831  0.1154
  128OSM   C13F13790   1.193   0.204   7.843  0.3258  0.4514 -0.2525
  128OSM   H13F13791   1.133   0.297   7.856 -1.5155 -0.7508  0.1131
  128OSM   H13G13792   1.297   0.225   7.812  0.2505  0.9845 -0.1474
  128OSM   C14F13793   1.214   0.153   7.987  0.8271 -1.1897  0.1180
  128OSM   H14F13794   1.294   0.077   7.994  3.8231  1.3645 -4.0170
  128OSM   H14G13795   1.114   0.116   8.018 -0.7606  1.9467 -0.9965
  128OSM   C15F13796   1.242   0.256   8.098 -0.4132  0.3481  1.0527
  128OSM   H15F13797   1.151   0.318   8.113 -0.0017  0.8009  1.7194
  128OSM   H15G13798   1.327   0.316   8.060  0.4909 -1.5580  0.0239
  128OSM   C16F13799   1.266   0.190   8.234  0.8021 -0.3321  0.1388
  128OSM   H16F13800   1.368   0.148   8.246  1.0375  0.6147  1.5447
  128OSM   H16G13801   1.184   0.118   8.254 -0.5692  1.0351 -0.3916
  128OSM   C17F13802   1.239   0.302   8.352  0.0408  0.1150 -0.1498
  128OSM   H17F13803   1.139   0.346   8.327  0.9112  1.6307 -1.1044
  128OSM   H17G13804   1.313   0.382   8.327 -0.1543 -0.2233 -1.8853
  128OSM   C18F13805   1.243   0.252   8.500 -0.6136  0.0396  0.6109
  128OSM   H18F13806   1.321   0.178   8.527 -0.5472  0.0698  0.4991
  128OSM   H18G13807   1.144   0.205   8.517 -0.4323 -0.5080  0.1500
  128OSM   H18H13808   1.247   0.347   8.558  0.6971 -0.1696  0.8735
  129OSM      N13809   4.969   4.400   6.334 -0.2125  0.4137  0.1372
  129OSM    C1513810   4.823   4.442   6.354  1.0720 -0.9570  0.3754
  129OSM   H15A13811   4.767   4.355   6.386 -0.7111 -0.4805 -1.3455
  129OSM   H15B13812   4.771   4.480   6.268  1.5401  2.1154  1.4015
  129OSM   H15C13813   4.817   4.511   6.437 -3.5650 -0.2672 -0.4050
  129OSM    C1413814   5.051   4.519   6.337  0.1709  0.2583 -0.2206
  129OSM   H14A13815   5.025   4.575   6.426 -0.4962  1.8052 -1.3573
  129OSM   H14B13816   5.034   4.589   6.257 -1.2509 -0.6668 -0.7264
  129OSM   H14C13817   5.155   4.490   6.340  0.0088 -0.4001 -1.0735
  129OSM    C1313818   5.011   4.302   6.440 -0.5140 -0.4721 -0.0499
  129OSM   H13A13819   5.012   4.347   6.538 -1.5949  1.3891 -0.8556
  129OSM   H13B13820   5.113   4.279   6.413 -0.6142 -0.0156 -0.8488
  129OSM   H13C13821   4.956   4.210   6.447 -1.1314  0.0986  3.2085
  129OSM    C1213822   4.982   4.344   6.199  0.1729 -0.0200 -0.3814
  129OSM   H12A13823   4.926   4.404   6.129 -1.9207  0.9255  2.0377
  129OSM   H12B13824   4.922   4.254   6.203  1.3975 -0.7839  1.5295
  129OSM    C1113825   5.123   4.304   6.156  0.2156  0.7237  0.3937
  129OSM   H11A13826   5.115   4.273   6.049 -0.0812  0.4881  0.4831
  129OSM   H11B13827   5.153   4.210   6.206  0.5688 -0.0247 -1.1987
  129OSM      P13828   5.377   4.350   6.147  0.3896 -0.1206  0.2278
  129OSM    O1313829   5.390   4.275   6.021 -0.0731 -0.4500 -0.5013
  129OSM    O1413830   5.468   4.462   6.166 -0.1475 -0.8495  0.1537
  129OSM    O1113831   5.400   4.242   6.267  0.0203  0.0198 -0.2265
  129OSM    O1213832   5.225   4.398   6.171 -0.5215  0.0483 -0.0611
  129OSM    C1S13833   5.402   4.299   6.396  0.2301  0.3986  0.2995
  129OSM    H1S13834   5.303   4.348   6.414  0.2263 -0.1451  1.8743
  129OSM    H1T13835   5.476   4.381   6.410 -1.4391  1.4929  3.3658
  129OSM     NF13836   5.439   4.266   6.642  0.4771 -1.0508 -0.3040
  129OSM    HNF13837   5.527   4.266   6.688  0.5280  1.4498 -0.3331
  129OSM    C2S13838   5.424   4.191   6.510  0.2813 -0.8358 -0.2259
  129OSM    H2S13839   5.334   4.127   6.519 -1.1597  0.6978 -2.9354
  129OSM    C3S13840   5.540   4.092   6.466  0.2483 -0.9504  0.2612
  129OSM    H3S13841   5.624   4.163   6.459 -2.8601  2.9698  0.8124
  129OSM     O313842   5.519   4.019   6.342  0.1135 -0.0217  0.0461
  129OSM    HO313843   5.438   4.055   6.306 -0.0394  0.4104  0.8213
  129OSM    C4S13844   5.583   4.001   6.579  0.5364 -0.3265  0.0753
  129OSM    H4S13845   5.660   4.044   6.646 -0.9644 -1.4627  2.6181
  129OSM    C5S13846   5.545   3.880   6.610  0.3901  0.6105  0.5438
  129OSM    H5S13847   5.470   3.826   6.551  0.6287  0.0515  0.7518
  129OSM    C6S13848   5.600   3.805   6.731  0.6736  0.1431 -0.0227
  129OSM    H6S13849   5.664   3.727   6.686 -0.5766 -0.1831 -1.2723
  129OSM    H6T13850   5.509   3.758   6.775  0.8662  0.3533  0.6114
  129OSM    C7S13851   5.658   3.892   6.843  0.3623 -0.6319 -0.1410
  129OSM    H7S13852   5.588   3.976   6.863  2.3164  0.8219  0.6869
  129OSM    H7T13853   5.751   3.944   6.812  0.2665  0.8995  2.0816
  129OSM    C8S13854   5.679   3.807   6.966  0.7510  0.4201 -0.1149
  129OSM    H8S13855   5.767   3.740   6.957  0.9316  0.4349  1.3579
  129OSM    H8T13856   5.587   3.752   6.994  0.7477 -0.1099 -1.1506
  129OSM    C9S13857   5.713   3.892   7.092  0.3665 -0.4342  0.5700
  129OSM    H9S13858   5.656   3.987   7.092 -2.0837 -1.8255 -2.7933
  129OSM    H9T13859   5.819   3.926   7.084  0.2830  0.4214  2.6810
  129OSM   C10S13860   5.688   3.818   7.226  0.3053 -0.3016  0.3698
  129OSM   H10S13861   5.742   3.720   7.225 -0.4457 -0.7769  2.8078
  129OSM   H10T13862   5.580   3.795   7.219 -0.1837  1.9309  0.5007
  129OSM   C11S13863   5.721   3.902   7.350 -0.2329  0.3593  0.6914
  129OSM   H11S13864   5.659   3.992   7.329 -0.7026 -0.1081  0.0573
  129OSM   H11T13865   5.830   3.919   7.343 -0.0724 -0.7677  0.4841
  129OSM   C12S13866   5.709   3.829   7.483 -0.0869  0.4153 -0.5270
  129OSM   H12S13867   5.721   3.719   7.480  2.2932  0.6570 -1.6250
  129OSM   H12T13868   5.606   3.828   7.524  0.6014 -1.5462  1.2301
  129OSM   C13S13869   5.798   3.864   7.602 -0.1004  0.3333 -0.0311
  129OSM   H13S13870   5.785   3.972   7.626 -0.6818  0.7325 -2.0548
  129OSM   H13T13871   5.908   3.855   7.587 -0.0430  2.0317 -0.7417
  129OSM   C14S13872   5.763   3.782   7.728 -0.2292  0.2708 -0.0106
  129OSM   H14S13873   5.765   3.675   7.698  1.0821  0.3508 -0.2587
  129OSM   H14T13874   5.658   3.810   7.751 -0.2256  0.0098  0.3224
  129OSM   C15S13875   5.857   3.794   7.852  0.3700 -0.3663 -0.0180
  129OSM   H15S13876   5.860   3.902   7.880  2.1164  0.2964 -2.5793
  129OSM   H15T13877   5.955   3.753   7.820 -0.6414 -1.8700 -1.2159
  129OSM   C16S13878   5.816   3.705   7.971  0.5144  0.1721  0.8236
  129OSM   H16S13879   5.806   3.600   7.937 -1.8265  0.7034 -0.3349
  129OSM   H16T13880   5.714   3.736   8.003 -0.5330  0.4557 -2.5184
  129OSM   C17S13881   5.919   3.704   8.079  0.4460 -0.0691  0.7826
  129OSM   H17S13882   5.938   3.799   8.133  1.2236  0.0517  0.3112
  129OSM   H17T13883   6.015   3.672   8.033  0.0798  0.0630 -0.0748
  129OSM   C18S13884   5.887   3.608   8.196 -0.1936 -0.3282  0.3389
  129OSM   H18S13885   5.776   3.611   8.208 -0.1072  3.0501  0.5937
  129OSM   H18T13886   5.945   3.643   8.284 -0.6138 -1.0764  0.9239
  129OSM   H18U13887   5.913   3.503   8.168  1.0241 -0.1862  0.9563
  129OSM    C1F13888   5.349   4.340   6.710  0.1211 -0.2123  0.2629
  129OSM     OF13889   5.236   4.365   6.668  0.1697  0.2145 -0.2948
  129OSM    C2F13890   5.395   4.396   6.837 -0.1215 -0.7504 -0.2129
  129OSM    H2F13891   5.457   4.487   6.821  0.1215 -0.4649  2.2684
  129OSM    H2G13892   5.458   4.315   6.878 -0.1557 -1.1733 -0.9740
  129OSM    C3F13893   5.281   4.426   6.932  0.5669  0.1239  0.2180
  129OSM    H3F13894   5.198   4.352   6.937 -0.0236  0.6610 -1.1833
  129OSM    H3G13895   5.232   4.515   6.888  0.6408  0.3506  0.5904
  129OSM    C4F13896   5.320   4.470   7.071  0.3878 -0.1557 -0.1377
  129OSM    H4F13897   5.408   4.536   7.057  0.1468 -0.1303 -1.5784
  129OSM    H4G13898   5.348   4.386   7.139 -1.8892 -1.9342 -1.3314
  129OSM    C5F13899   5.192   4.540   7.132 -0.2200  0.4984  0.4375
  129OSM    H5F13900   5.103   4.474   7.118 -0.2285  0.3224  1.3265
  129OSM    H5G13901   5.172   4.641   7.090 -0.6494 -0.9127 -2.9351
  129OSM    C6F13902   5.222   4.569   7.282 -0.0680  0.0449  0.6034
  129OSM    H6F13903   5.290   4.656   7.288  0.1832 -0.1900  1.1262
  129OSM    H6G13904   5.281   4.487   7.328 -1.2028 -2.2151 -1.7912
  129OSM    C7F13905   5.091   4.609   7.350 -0.6359 -0.5813 -1.1340
  129OSM    H7F13906   5.018   4.530   7.323 -0.3471 -1.4172  0.4524
  129OSM    H7G13907   5.061   4.707   7.307  2.3653  0.8246 -0.1944
  129OSM    C8F13908   5.104   4.605   7.505  0.0358 -0.2714  0.5427
  129OSM    H8F13909   5.173   4.686   7.536 -0.7272 -0.0216  1.6084
  129OSM    H8G13910   5.146   4.503   7.523 -1.2980 -0.8134  0.6469
  129OSM    C9F13911   4.973   4.609   7.590  0.0594  0.3781  0.2954
  129OSM    H9F13912   4.885   4.556   7.552 -1.0471  2.9978 -0.9478
  129OSM   C10F13913   4.959   4.673   7.705  0.1755  0.3470 -0.5387
  129OSM   H10F13914   4.860   4.674   7.753  0.1510  0.6700 -0.6000
  129OSM   C11F13915   5.064   4.751   7.783  0.7387 -0.3613 -0.1102
  129OSM   H11F13916   5.155   4.763   7.720 -0.0266  2.7863 -0.6833
  129OSM   H11G13917   5.088   4.694   7.875 -0.3469 -1.5181 -0.5365
  129OSM   C12F13918   5.021   4.896   7.814 -0.3556 -0.2160  0.4559
  129OSM   H12F13919   4.935   4.893   7.884 -0.5624  1.1950  0.2698
  129OSM   H12G13920   4.979   4.943   7.723  0.6749 -0.4126 -0.1271
  129OSM   C13F13921   5.131   4.981   7.870 -0.6774  0.6881 -0.7035
  129OSM   H13F13922   5.231   4.957   7.827 -1.8192 -3.3682 -1.2792
  129OSM   H13G13923   5.127   4.952   7.977  0.2090 -0.8022 -1.0574
  129OSM   C14F13924   5.098   5.124   7.861 -0.4668  0.2874 -0.6504
  129OSM   H14F13925   5.085   5.134   7.751 -1.2232  1.3174 -0.4793
  129OSM   H14G13926   5.182   5.189   7.894  0.6501 -1.4043 -0.1190
  129OSM   C15F13927   4.964   5.169   7.931 -0.6069 -0.4555 -0.3770
  129OSM   H15F13928   4.967   5.128   8.034  1.4329 -1.3992 -0.7794
  129OSM   H15G13929   4.872   5.151   7.871 -2.1491 -2.0177  2.3239
  129OSM   C16F13930   4.962   5.321   7.949 -0.0078 -0.1395  0.3567
  129OSM   H16F13931   5.054   5.356   8.001  1.3896 -2.6049 -0.3622
  129OSM   H16G13932   4.871   5.346   8.007 -1.2080 -0.1382 -1.4759
  129OSM   C17F13933   4.945   5.406   7.813 -0.5755  0.8573 -0.5085
  129OSM   H17F13934   4.908   5.330   7.741 -0.1421  1.0137 -0.8998
  129OSM   H17G13935   5.045   5.437   7.775 -0.2082 -0.0626 -0.3108
  129OSM   C18F13936   4.851   5.520   7.828  1.1320  0.2460  0.1258
  129OSM   H18F13937   4.878   5.593   7.906  1.5567  0.8342 -0.5639
  129OSM   H18G13938   4.752   5.480   7.858  0.7102 -0.3808 -1.9567
  129OSM   H18H13939   4.843   5.574   7.731  1.8632 -1.5296 -0.9715
  130OSM      N13940   1.761   6.014   6.228 -0.1129  0.6338  0.0019
  130OSM    C1513941   1.808   5.901   6.138 -0.6082 -0.0934 -0.7102
  130OSM   H15A13942   1.745   5.813   6.138 -1.7713  0.6755  1.3850
  130OSM   H15B13943   1.903   5.862   6.170 -1.5161 -1.4396  0.3875
  130OSM   H15C13944   1.821   5.943   6.040 -2.3138  1.1421 -0.4322
  130OSM    C1413945   1.622   6.059   6.187  0.1479 -0.1219  0.6139
  130OSM   H14A13946   1.616   6.080   6.082 -1.2905  1.7556  1.0380
  130OSM   H14B13947   1.606   6.156   6.232  1.4403  0.4590 -0.1404
  130OSM   H14C13948   1.543   5.992   6.217  0.5544 -0.6396  0.5376
  130OSM    C1313949   1.760   5.959   6.369  0.2976 -0.1051  1.1924
  130OSM   H13A13950   1.855   5.927   6.410  0.5816  1.1482  1.5315
  130OSM   H13B13951   1.687   5.879   6.371 -2.1096  2.0026  0.4652
  130OSM   H13C13952   1.714   6.038   6.426 -2.1397 -0.6455  0.0309
  130OSM    C1213953   1.856   6.128   6.218 -0.4943  0.3497  0.4495
  130OSM   H12A13954   1.866   6.158   6.115  1.0592  1.5557  0.9272
  130OSM   H12B13955   1.951   6.090   6.254  0.3281  1.6618 -0.3283
  130OSM    C1113956   1.818   6.251   6.300  0.0199  0.2518  0.6196
  130OSM   H11A13957   1.911   6.310   6.313 -0.5833  1.8414 -1.9681
  130OSM   H11B13958   1.784   6.221   6.401 -1.6943 -2.0329 -0.5801
  130OSM      P13959   1.749   6.470   6.189 -0.1190 -0.3350  0.5289
  130OSM    O1313960   1.878   6.469   6.106 -0.1603  0.0991 -0.6638
  130OSM    O1413961   1.633   6.538   6.137 -0.4447  0.0978 -0.3382
  130OSM    O1113962   1.793   6.535   6.325 -0.2822  0.5123  0.1924
  130OSM    O1213963   1.713   6.316   6.224 -0.8138  0.0585 -0.9721
  130OSM    C1S13964   1.688   6.577   6.419  0.3195 -1.3890 -0.4554
  130OSM    H1S13965   1.584   6.556   6.386 -0.7457  0.6827  1.3980
  130OSM    H1T13966   1.706   6.687   6.427  0.9276 -1.4112 -1.4429
  130OSM     NF13967   1.594   6.526   6.645 -0.5784  0.5409  0.3238
  130OSM    HNF13968   1.600   6.602   6.710 -0.4702 -0.3522  1.3637
  130OSM    C2S13969   1.713   6.505   6.557  0.3762  0.3655 -0.2535
  130OSM    H2S13970   1.709   6.399   6.524  3.5172  0.5349 -1.3523
  130OSM    C3S13971   1.850   6.552   6.611 -0.2927  0.3248  0.9615
  130OSM    H3S13972   1.849   6.662   6.629  2.6328  0.8468 -1.6813
  130OSM     O313973   1.962   6.528   6.524  0.0724  0.0485  0.2744
  130OSM    HO313974   1.926   6.517   6.436 -0.3008 -0.0512  0.4382
  130OSM    C4S13975   1.895   6.489   6.744  0.2688  0.3769 -0.1264
  130OSM    H4S13976   1.936   6.387   6.740 -0.4279  0.0727  0.3247
  130OSM    C5S13977   1.905   6.555   6.861  0.3642  0.0633  0.0970
  130OSM    H5S13978   1.893   6.664   6.860  1.6352  0.2087 -0.3286
  130OSM    C6S13979   1.942   6.485   6.992  0.4870  0.6057 -0.3004
  130OSM    H6S13980   2.024   6.540   7.043 -0.4808  1.5801  0.2194
  130OSM    H6T13981   1.970   6.379   6.976 -2.4257 -0.0913 -1.0188
  130OSM    C7S13982   1.815   6.489   7.083 -0.8662 -0.3896 -0.6749
  130OSM    H7S13983   1.734   6.433   7.031 -0.7433 -1.8477  0.6570
  130OSM    H7T13984   1.783   6.595   7.094  1.5490  0.2340  0.8349
  130OSM    C8S13985   1.835   6.413   7.211  0.6884 -0.0364  0.4665
  130OSM    H8S13986   1.931   6.447   7.256 -0.3197  0.3204  2.4190
  130OSM    H8T13987   1.861   6.307   7.192 -2.9180 -0.6695 -1.3866
  130OSM    C9S13988   1.727   6.431   7.321 -0.2514  0.3949 -0.5083
  130OSM    H9S13989   1.632   6.379   7.295  0.1416  0.1260 -1.4263
  130OSM    H9T13990   1.701   6.539   7.331 -1.2352 -0.0642  2.1544
  130OSM   C10S13991   1.778   6.383   7.456 -0.4910 -0.4822 -0.1569
  130OSM   H10S13992   1.865   6.444   7.489 -2.0956  1.3420  0.8162
  130OSM   H10T13993   1.807   6.279   7.429  3.0624  0.2717  0.5220
  130OSM   C11S13994   1.671   6.373   7.564  0.6215 -0.3950 -0.1918
  130OSM   H11S13995   1.597   6.293   7.539  1.3243 -1.2590  0.4463
  130OSM   H11T13996   1.613   6.466   7.582  0.9334 -0.3629  0.6644
  130OSM   C12S13997   1.728   6.322   7.698 -0.0318 -0.0195  0.3438
  130OSM   H12S13998   1.780   6.409   7.744  0.5515 -1.7450  3.0574
  130OSM   H12T13999   1.779   6.225   7.686 -2.6400 -1.3106 -0.6442
  130OSM   C13S14000   1.615   6.308   7.803 -0.0708  0.4980  0.2286
  130OSM   H13S14001   1.663   6.264   7.893 -0.2166  2.5164  1.3202
  130OSM   H13T14002   1.528   6.245   7.773 -0.6214  0.9947  0.7834
  130OSM   C14S14003   1.565   6.441   7.848 -0.7043 -0.0626 -0.4162
  130OSM   H14S14004   1.500   6.500   7.781  1.1088  0.7707 -1.4765
  130OSM   H14T14005   1.657   6.496   7.880  0.7466 -0.6713 -3.3811
  130OSM   C15S14006   1.485   6.432   7.979 -0.1892  0.1211 -0.8787
  130OSM   H15S14007   1.561   6.377   8.039  1.6989  1.7610 -1.7218
  130OSM   H15T14008   1.394   6.367   7.984  0.1039 -0.3101 -1.1215
  130OSM   C16S14009   1.447   6.575   8.028 -0.0616 -0.3135 -0.0779
  130OSM   H16S14010   1.390   6.618   7.944  0.5882 -1.5280 -1.1589
  130OSM   H16T14011   1.535   6.640   8.049  0.5604 -1.3569  0.5879
  130OSM   C17S14012   1.355   6.579   8.159 -0.2962  0.3768  0.1596
  130OSM   H17S14013   1.272   6.506   8.149  0.9814 -1.2989  1.4898
  130OSM   H17T14014   1.307   6.679   8.164 -1.0865 -0.0685  1.6905
  130OSM   C18S14015   1.443   6.549   8.288 -0.2936  0.2050  0.5746
  130OSM   H18S14016   1.486   6.448   8.272  2.6894  1.4088  0.8129
  130OSM   H18T14017   1.376   6.540   8.377 -3.4170  2.2054 -1.4675
  130OSM   H18U14018   1.532   6.615   8.293  0.2208 -0.5353  1.4296
  130OSM    C1F14019   1.472   6.480   6.635  0.3534  0.0305 -0.3919
  130OSM     OF14020   1.439   6.421   6.529  0.4963  0.3860  0.2936
  130OSM    C2F14021   1.377   6.514   6.747 -0.5337  0.0556  0.4878
  130OSM    H2F14022   1.285   6.453   6.735  1.0296 -2.0443 -1.3426
  130OSM    H2G14023   1.339   6.618   6.747 -1.4699 -0.2700  1.9320
  130OSM    C3F14024   1.431   6.494   6.894 -0.3978  0.7621  1.4750
  130OSM    H3F14025   1.504   6.575   6.915  0.4333 -0.1946  2.3735
  130OSM    H3G14026   1.472   6.392   6.886 -0.1159  0.8703  1.5576
  130OSM    C4F14027   1.324   6.490   7.011  0.1716  0.3948  0.4186
  130OSM    H4F14028   1.255   6.407   6.984  1.5750 -0.5878 -0.2450
  130OSM    H4G14029   1.271   6.588   7.010 -0.6725 -0.0525  1.2155
  130OSM    C5F14030   1.373   6.471   7.155 -0.0552 -0.5639 -0.2041
  130OSM    H5F14031   1.438   6.554   7.189 -2.6103  0.7029  1.7242
  130OSM    H5G14032   1.431   6.377   7.171  1.2511  0.6528  2.6698
  130OSM    C6F14033   1.252   6.465   7.249  0.0173 -0.2091 -0.3770
  130OSM    H6F14034   1.191   6.374   7.229 -1.3898  0.6470 -0.0381
  130OSM    H6G14035   1.184   6.552   7.248 -0.9847 -0.9388  2.0411
  130OSM    C7F14036   1.308   6.446   7.393 -0.3800  0.1014 -0.5957
  130OSM    H7F14037   1.365   6.536   7.426  0.2624 -0.3800 -0.3921
  130OSM    H7G14038   1.377   6.360   7.387 -0.2976  0.1127  0.1467
  130OSM    C8F14039   1.194   6.403   7.489 -0.3129 -0.2563  0.0428
  130OSM    H8F14040   1.142   6.315   7.445  0.1930 -0.7261  0.3901
  130OSM    H8G14041   1.118   6.483   7.503 -0.2442 -0.1359 -0.2450
  130OSM    C9F14042   1.247   6.342   7.620 -0.8637 -0.2666 -0.4753
  130OSM    H9F14043   1.299   6.248   7.600  2.9172  1.4605  0.7219
  130OSM   C10F14044   1.226   6.374   7.747 -0.7189  0.5074 -1.2417
  130OSM   H10F14045   1.259   6.312   7.831  0.9997  0.1891 -2.1159
  130OSM   C11F14046   1.152   6.497   7.792 -0.1583 -0.4523 -0.1925
  130OSM   H11F14047   1.097   6.535   7.703 -0.4332 -1.3985 -0.4314
  130OSM   H11G14048   1.222   6.580   7.817 -0.2508 -0.7340  1.0695
  130OSM   C12F14049   1.057   6.477   7.910 -0.3440  0.9107 -0.3639
  130OSM   H12F14050   1.107   6.429   7.998 -3.3028 -0.8293  0.4523
  130OSM   H12G14051   0.969   6.415   7.883  0.0573  0.4780 -0.6910
  130OSM   C13F14052   1.003   6.604   7.969  0.1148 -0.6482 -0.4788
  130OSM   H13F14053   0.919   6.639   7.906  0.6089  0.4645 -0.5359
  130OSM   H13G14054   1.083   6.680   7.954 -1.6962  1.8804  2.1996
  130OSM   C14F14055   0.958   6.614   8.115 -0.0975  0.4077 -0.4602
  130OSM   H14F14056   1.040   6.596   8.187  0.3802 -2.5667 -1.6533
  130OSM   H14G14057   0.880   6.539   8.142  1.7400 -1.0055  1.0376
  130OSM   C15F14058   0.889   6.746   8.154 -0.0535 -0.1492  0.4250
  130OSM   H15F14059   0.802   6.773   8.091 -0.8626 -2.1674  0.6726
  130OSM   H15G14060   0.964   6.828   8.143 -0.1602 -0.2212 -0.8826
  130OSM   C16F14061   0.861   6.744   8.301 -0.2403 -0.2114 -0.2319
  130OSM   H16F14062   0.946   6.704   8.360  1.2650 -0.1112 -2.2966
  130OSM   H16G14063   0.771   6.683   8.323 -0.3342  0.8135  2.4436
  130OSM   C17F14064   0.827   6.885   8.352 -0.0687  0.3892  0.6641
  130OSM   H17F14065   0.735   6.914   8.298  1.0088 -0.2799 -1.6073
  130OSM   H17G14066   0.910   6.955   8.328  0.7739 -0.8647 -0.1183
  130OSM   C18F14067   0.810   6.899   8.499  0.3426 -0.5409 -0.1457
  130OSM   H18F14068   0.900   6.868   8.557  0.8210 -3.0144 -2.0977
  130OSM   H18G14069   0.729   6.827   8.525 -1.0993  1.4229  0.9248
  130OSM   H18H14070   0.789   7.005   8.522 -0.3191 -0.8414  0.6596
  131OSM      N14071   5.120   2.529   5.760  0.2343  0.4945 -0.8992
  131OSM    C1514072   5.229   2.539   5.653  0.2372 -0.1931 -0.1891
  131OSM   H15A14073   5.227   2.448   5.596 -2.0501  0.0755 -0.5760
  131OSM   H15B14074   5.324   2.552   5.704 -0.3828  0.1377  0.9006
  131OSM   H15C14075   5.221   2.629   5.593 -2.4761 -0.1403  0.2148
  131OSM    C1414076   5.095   2.658   5.830  0.1432  0.1946 -0.4108
  131OSM   H14A14077   5.006   2.662   5.893  0.2493  0.1534 -0.2587
  131OSM   H14B14078   5.068   2.730   5.755 -1.1006 -0.0474 -0.2190
  131OSM   H14C14079   5.175   2.700   5.888  0.0418  0.7610 -0.6760
  131OSM    C1314080   4.997   2.489   5.687  0.0602 -0.2235  0.4338
  131OSM   H13A14081   5.011   2.410   5.615  2.7856  0.3010  0.3151
  131OSM   H13B14082   4.954   2.574   5.636  1.1208  0.1133  0.0796
  131OSM   H13C14083   4.915   2.465   5.752 -0.2089  0.9878  0.5564
  131OSM    C1214084   5.160   2.424   5.854 -0.1151 -0.4779 -0.0483
  131OSM   H12A14085   5.189   2.338   5.796 -1.2343 -0.7206 -0.2699
  131OSM   H12B14086   5.078   2.391   5.916  0.9732 -1.1236  1.0581
  131OSM    C1114087   5.278   2.455   5.948 -0.2071 -0.8033  0.3378
  131OSM   H11A14088   5.283   2.384   6.033  1.7914 -0.4035  0.5877
  131OSM   H11B14089   5.260   2.552   5.999  0.2199 -0.8363  0.5616
  131OSM      P14090   5.502   2.338   5.863  0.1305 -0.0959 -0.0092
  131OSM    O1314091   5.420   2.220   5.805 -0.0890 -0.4823  0.2664
  131OSM    O1414092   5.631   2.371   5.801  0.7963 -0.2187 -0.2481
  131OSM    O1114093   5.528   2.300   6.016  0.0788 -0.0844 -0.6335
  131OSM    O1214094   5.405   2.463   5.884 -0.2434 -0.1618 -0.3663
  131OSM    C1S14095   5.613   2.377   6.098  0.1169  0.7500 -0.5404
  131OSM    H1S14096   5.566   2.478   6.104 -1.8951 -0.3051  3.2646
  131OSM    H1T14097   5.719   2.365   6.067  0.2095  0.3552 -0.0823
  131OSM     NF14098   5.621   2.464   6.326  0.3174  0.2150 -0.4335
  131OSM    HNF14099   5.712   2.468   6.365  1.2697 -0.3625 -2.5329
  131OSM    C2S14100   5.585   2.345   6.253  0.0069 -0.4816 -0.0154
  131OSM    H2S14101   5.475   2.331   6.261 -0.1047  1.3187  1.9019
  131OSM    C3S14102   5.658   2.229   6.302 -0.3771  0.3320  0.8027
  131OSM    H3S14103   5.767   2.250   6.312  0.4676 -0.9785 -4.1697
  131OSM     O314104   5.649   2.123   6.214  0.2673  0.4684  0.1134
  131OSM    HO314105   5.578   2.146   6.154 -0.7903  0.2520  1.2702
  131OSM    C4S14106   5.607   2.193   6.444  0.3172 -0.0319 -0.7532
  131OSM    H4S14107   5.510   2.142   6.444  0.8037 -0.9663  0.3985
  131OSM    C5S14108   5.675   2.216   6.562  0.0691 -0.0737  0.3038
  131OSM    H5S14109   5.776   2.258   6.555 -0.5858  1.6439  1.0393
  131OSM    C6S14110   5.610   2.190   6.697 -0.2244  0.1749  0.5375
  131OSM    H6S14111   5.670   2.107   6.740 -0.8801  0.0781  1.2647
  131OSM    H6T14112   5.503   2.163   6.705 -0.3178  0.2864 -0.2789
  131OSM    C7S14113   5.645   2.303   6.790 -0.8229  0.9082 -0.0429
  131OSM    H7S14114   5.581   2.391   6.766 -0.9814  0.7383 -0.2390
  131OSM    H7T14115   5.748   2.345   6.796  0.0801 -1.4444  1.3160
  131OSM    C8S14116   5.616   2.269   6.939  0.3587 -0.9347  0.4674
  131OSM    H8S14117   5.668   2.176   6.969  0.2844 -0.9366  0.5910
  131OSM    H8T14118   5.508   2.247   6.947  0.3716 -0.7676  1.1039
  131OSM    C9S14119   5.647   2.386   7.036  0.0615 -0.3452 -0.3614
  131OSM    H9S14120   5.607   2.485   7.006 -0.3369 -0.6316 -0.7880
  131OSM    H9T14121   5.756   2.401   7.020 -0.0866  0.5996 -0.5042
  131OSM   C10S14122   5.607   2.364   7.183  0.0097  0.5945 -0.5600
  131OSM   H10S14123   5.658   2.273   7.221  1.6333  0.7095 -2.3807
  131OSM   H10T14124   5.498   2.341   7.186  0.3492 -0.8553  1.2478
  131OSM   C11S14125   5.627   2.486   7.273  0.0741 -0.1861 -0.1055
  131OSM   H11S14126   5.545   2.559   7.259 -1.3812 -1.7146  0.3007
  131OSM   H11T14127   5.724   2.531   7.241  0.5965 -0.7081  0.7468
  131OSM   C12S14128   5.653   2.462   7.424 -0.0840 -0.3695  0.2597
  131OSM   H12S14129   5.740   2.395   7.437 -0.3321 -0.7747 -0.1187
  131OSM   H12T14130   5.557   2.418   7.459  0.3720 -0.0387  1.9561
  131OSM   C13S14131   5.658   2.604   7.492 -0.2727  0.1161  0.0810
  131OSM   H13S14132   5.576   2.662   7.445  0.6877  0.5945 -1.0353
  131OSM   H13T14133   5.751   2.654   7.458 -0.0670 -1.1430 -1.2909
  131OSM   C14S14134   5.653   2.622   7.647  0.0076  0.2170 -0.2447
  131OSM   H14S14135   5.556   2.579   7.680 -0.1173  0.6910 -0.0034
  131OSM   H14T14136   5.645   2.728   7.677 -2.0833  0.3518 -1.1696
  131OSM   C15S14137   5.768   2.557   7.722 -0.9186  0.3108  0.1819
  131OSM   H15S14138   5.866   2.567   7.670  0.1713  1.1569  2.3546
  131OSM   H15T14139   5.750   2.448   7.728  2.3149 -0.4216 -2.2968
  131OSM   C16S14140   5.786   2.596   7.866 -0.5345 -0.1392 -0.0178
  131OSM   H16S14141   5.715   2.538   7.929 -1.4385 -1.1287 -1.9052
  131OSM   H16T14142   5.773   2.705   7.881 -1.1838  0.1654 -2.5592
  131OSM   C17S14143   5.929   2.560   7.910  0.2861 -0.2597  0.2013
  131OSM   H17S14144   5.995   2.620   7.844 -0.0362  0.5286  0.5797
  131OSM   H17T14145   5.949   2.452   7.892  0.4948 -0.1386 -0.3043
  131OSM   C18S14146   5.970   2.583   8.057  0.4293  0.0188 -0.4461
  131OSM   H18S14147   6.054   2.522   8.096  0.1528  0.7555  1.3707
  131OSM   H18T14148   5.884   2.557   8.123  0.2878  0.8433 -0.3018
  131OSM   H18U14149   5.993   2.689   8.081 -1.4797  0.2742  0.4026
  131OSM    C1F14150   5.538   2.570   6.341  0.4801  0.6843 -0.0235
  131OSM     OF14151   5.426   2.566   6.286 -0.0833  0.2706 -0.3519
  131OSM    C2F14152   5.591   2.682   6.429 -0.5443 -0.2142 -0.8786
  131OSM    H2F14153   5.584   2.776   6.371 -0.3004 -0.7871 -1.8462
  131OSM    H2G14154   5.693   2.663   6.469  0.5130  0.5979 -3.0733
  131OSM    C3F14155   5.510   2.688   6.558 -0.5308  0.5179 -0.3988
  131OSM    H3F14156   5.493   2.591   6.610 -2.8244  2.1053  1.9513
  131OSM    H3G14157   5.406   2.715   6.530 -0.1292  3.6899  0.9625
  131OSM    C4F14158   5.562   2.779   6.666 -0.6401 -0.1548  0.1469
  131OSM    H4F14159   5.492   2.789   6.751 -0.7680 -2.1493  0.3094
  131OSM    H4G14160   5.588   2.882   6.632 -0.7355 -0.3332 -0.4707
  131OSM    C5F14161   5.691   2.737   6.739  0.0433  0.4395 -0.0989
  131OSM    H5F14162   5.775   2.690   6.683  0.8469  1.0544  0.5647
  131OSM    H5G14163   5.664   2.663   6.817 -2.6865  1.0446 -0.4421
  131OSM    C6F14164   5.754   2.854   6.813  0.2837  0.0652  0.4064
  131OSM    H6F14165   5.692   2.876   6.902  0.3839  0.3853  0.3974
  131OSM    H6G14166   5.752   2.947   6.752  1.3878 -0.5092 -0.5420
  131OSM    C7F14167   5.901   2.828   6.861  0.3375  0.3955  0.2281
  131OSM    H7F14168   5.927   2.910   6.931  0.8132  0.9616 -0.6102
  131OSM    H7G14169   5.976   2.842   6.780  2.0091  0.5336  1.7554
  131OSM    C8F14170   5.927   2.686   6.915 -0.3144  0.1481 -0.1660
  131OSM    H8F14171   5.893   2.608   6.845 -0.8775  0.5058 -0.2919
  131OSM    H8G14172   5.870   2.673   7.009 -0.2632  2.0326  0.1645
  131OSM    C9F14173   6.075   2.678   6.955 -0.6129  0.2571  0.4814
  131OSM    H9F14174   6.145   2.643   6.877 -2.9554  0.3959 -1.7586
  131OSM   C10F14175   6.133   2.695   7.072 -0.0457  0.0481  0.2661
  131OSM   H10F14176   6.242   2.688   7.077 -0.1355 -1.1566  0.9031
  131OSM   C11F14177   6.058   2.741   7.193  0.0106  0.2362 -0.1163
  131OSM   H11F14178   5.951   2.767   7.175 -0.0150 -0.0302 -0.3555
  131OSM   H11G14179   6.095   2.840   7.224  3.2870 -0.8456 -0.4016
  131OSM   C12F14180   6.052   2.638   7.307 -0.0750  0.3287  0.6091
  131OSM   H12F14181   5.979   2.558   7.285 -1.3267  1.6899 -0.2431
  131OSM   H12G14182   5.985   2.683   7.385 -3.0864 -0.6548 -1.3229
  131OSM   C13F14183   6.193   2.601   7.371  0.8036  0.1105  0.1971
  131OSM   H13F14184   6.264   2.686   7.371  1.1744 -0.1939 -0.9491
  131OSM   H13G14185   6.244   2.536   7.297 -1.5128 -1.0039 -0.4718
  131OSM   C14F14186   6.186   2.546   7.510  0.1242 -0.0088 -0.1480
  131OSM   H14F14187   6.094   2.484   7.517 -0.4501  0.6829 -1.4494
  131OSM   H14G14188   6.175   2.631   7.580  0.4218 -0.6264  0.6602
  131OSM   C15F14189   6.308   2.458   7.538  0.6150 -0.5507  0.5128
  131OSM   H15F14190   6.401   2.507   7.501  0.2534 -0.5478 -0.4275
  131OSM   H15G14191   6.302   2.366   7.476 -1.3631  0.7334 -1.2951
  131OSM   C16F14192   6.321   2.404   7.683  0.3505  0.3959 -0.0944
  131OSM   H16F14193   6.348   2.482   7.758 -1.4157 -2.5750  3.8543
  131OSM   H16G14194   6.402   2.328   7.671 -1.6961 -2.2816  2.2981
  131OSM   C17F14195   6.198   2.326   7.743 -0.2942 -0.3135  0.4929
  131OSM   H17F14196   6.158   2.261   7.662  0.5381  1.5609 -1.4476
  131OSM   H17G14197   6.117   2.395   7.776  0.9076 -0.5071  4.1008
  131OSM   C18F14198   6.238   2.243   7.870  0.1329  0.7343 -0.1601
  131OSM   H18F14199   6.279   2.294   7.959  2.2550 -1.4628  0.1847
  131OSM   H18G14200   6.316   2.171   7.839 -0.6742 -0.0387 -0.4223
  131OSM   H18H14201   6.153   2.177   7.897 -0.1948  0.9206 -0.7200
  132OSM      N14202   0.362   4.626   6.255  0.6683  0.5758  0.4009
  132OSM    C1514203   0.342   4.495   6.179 -0.0586 -0.0909 -0.2930
  132OSM   H15A14204   0.319   4.422   6.256 -0.7473  1.8864  1.4401
  132OSM   H15B14205   0.417   4.462   6.110  0.4918  0.9929 -0.2144
  132OSM   H15C14206   0.257   4.520   6.117 -0.8457  0.8040  1.1166
  132OSM    C1414207   0.367   4.741   6.161 -0.2524 -0.0826  0.1608
  132OSM   H14A14208   0.275   4.753   6.106  0.2402 -0.8412 -0.8600
  132OSM   H14B14209   0.446   4.725   6.088  1.3671  1.6299  1.4880
  132OSM   H14C14210   0.378   4.834   6.213 -1.5760 -0.8254  1.8132
  132OSM    C1314211   0.241   4.638   6.346 -0.3237  0.1185 -0.4888
  132OSM   H13A14212   0.246   4.727   6.407 -2.9552 -1.6892  2.5375
  132OSM   H13B14213   0.229   4.557   6.417 -1.4877  0.6412 -0.0724
  132OSM   H13C14214   0.147   4.644   6.293 -0.5427 -1.8181 -0.3705
  132OSM    C1214215   0.482   4.630   6.339 -0.1101 -0.7156 -0.3491
  132OSM   H12A14216   0.472   4.721   6.396 -1.4810 -1.9338  1.4197
  132OSM   H12B14217   0.566   4.628   6.271 -0.7197  1.3371 -1.2110
  132OSM    C1114218   0.503   4.514   6.443 -0.3737  0.2253  0.1883
  132OSM   H11A14219   0.410   4.524   6.502 -0.8145  2.9776 -0.9023
  132OSM   H11B14220   0.592   4.541   6.504 -0.7855  0.5346  0.6528
  132OSM      P14221   0.659   4.339   6.339 -0.4594  0.0137 -0.1437
  132OSM    O1314222   0.647   4.208   6.262 -0.1464 -0.3054 -0.4539
  132OSM    O1414223   0.716   4.455   6.266  0.2215 -0.6589  0.1157
  132OSM    O1114224   0.742   4.302   6.475 -0.0912 -1.0902 -0.5042
  132OSM    O1214225   0.510   4.385   6.381  0.4444 -0.5942  0.5400
  132OSM    C1S14226   0.691   4.230   6.575  0.4135  0.1683 -0.8150
  132OSM    H1S14227   0.698   4.122   6.549 -1.2201 -0.5810  1.6535
  132OSM    H1T14228   0.588   4.254   6.609 -0.3469 -2.0506 -1.4974
  132OSM     NF14229   0.716   4.135   6.798 -0.0726 -0.0121  0.2425
  132OSM    HNF14230   0.666   4.168   6.878  0.2509 -0.0806  0.4789
  132OSM    C2S14231   0.777   4.230   6.703 -0.0801  0.2277 -0.0795
  132OSM    H2S14232   0.880   4.203   6.672  0.2499 -0.3566  1.4426
  132OSM    C3S14233   0.782   4.371   6.753 -0.3181  0.3554 -0.1072
  132OSM    H3S14234   0.680   4.412   6.772 -0.8099 -0.6364 -0.5739
  132OSM     O314235   0.841   4.466   6.663  0.3045 -0.7227 -0.1701
  132OSM    HO314236   0.829   4.429   6.576  0.5167 -0.5631 -0.2686
  132OSM    C4S14237   0.858   4.377   6.883 -0.3214 -0.7571 -0.6584
  132OSM    H4S14238   0.786   4.379   6.967  2.4959 -0.5172  1.8112
  132OSM    C5S14239   0.992   4.358   6.904  0.0868  0.2090 -0.6114
  132OSM    H5S14240   1.061   4.327   6.824  0.4609  0.4766 -0.3876
  132OSM    C6S14241   1.054   4.359   7.040  0.7136  0.5036  0.8755
  132OSM    H6S14242   1.115   4.451   7.047  2.0130 -0.4341  2.2158
  132OSM    H6T14243   1.124   4.276   7.064 -1.3260 -0.8984  2.1423
  132OSM    C7S14244   0.958   4.358   7.162  0.1206  0.3987  0.7566
  132OSM    H7S14245   0.889   4.271   7.157 -0.5937  0.9719  0.3200
  132OSM    H7T14246   0.889   4.445   7.148 -1.9722 -1.0803  1.6153
  132OSM    C8S14247   1.027   4.373   7.299  0.0497  0.0214 -0.0689
  132OSM    H8S14248   1.069   4.476   7.299 -0.8433  0.4036 -1.0323
  132OSM    H8T14249   1.109   4.298   7.297 -0.9192 -1.0435 -0.5371
  132OSM    C9S14250   0.931   4.345   7.418  0.7464  0.0996  0.7792
  132OSM    H9S14251   0.897   4.239   7.416 -0.9346  0.6458  0.3453
  132OSM    H9T14252   0.847   4.416   7.433  1.6812  1.7930 -1.8183
  132OSM   C10S14253   1.004   4.363   7.547  0.1175  0.2336  0.5085
  132OSM   H10S14254   1.050   4.464   7.543  0.2922  0.2627  2.4001
  132OSM   H10T14255   1.084   4.286   7.546 -1.1850 -1.1254 -0.2981
  132OSM   C11S14256   0.925   4.348   7.682 -0.3390 -0.8310  1.0044
  132OSM   H11S14257   0.872   4.251   7.681  1.7772 -2.0988  3.5689
  132OSM   H11T14258   0.844   4.425   7.683  0.1542 -0.3062  0.7933
  132OSM   C12S14259   1.033   4.368   7.784  1.0127 -0.7520  0.0910
  132OSM   H12S14260   1.100   4.452   7.756  0.4946 -1.1896 -2.5442
  132OSM   H12T14261   1.103   4.284   7.768  0.5512 -0.7542 -2.1300
  132OSM   C13S14262   0.980   4.371   7.924  0.0653 -0.3726 -0.2727
  132OSM   H13S14263   1.064   4.382   7.996 -0.8321  1.2825  0.5319
  132OSM   H13T14264   0.944   4.266   7.938 -1.1571 -0.0312 -0.8088
  132OSM   C14S14265   0.874   4.475   7.956  0.4018 -0.2875 -0.9498
  132OSM   H14S14266   0.774   4.471   7.908 -0.9721  1.8789  1.5488
  132OSM   H14T14267   0.918   4.571   7.921  1.1193 -0.2133  0.1088
  132OSM   C15S14268   0.849   4.484   8.105  0.1746  0.7612 -0.7484
  132OSM   H15S14269   0.790   4.577   8.123 -0.0039  0.4715  0.2048
  132OSM   H15T14270   0.940   4.481   8.169 -0.1839 -0.0559 -0.2556
  132OSM   C16S14271   0.775   4.364   8.165 -0.5116  0.5950 -0.6013
  132OSM   H16S14272   0.829   4.269   8.143  1.0436  0.8842  1.8661
  132OSM   H16T14273   0.676   4.364   8.115 -0.1208  1.7687 -1.4040
  132OSM   C17S14274   0.742   4.382   8.317  1.0271  0.2649  0.8434
  132OSM   H17S14275   0.639   4.344   8.331  0.1275  2.2047 -0.4183
  132OSM   H17T14276   0.759   4.487   8.348  2.2277  0.9381 -1.9498
  132OSM   C18S14277   0.837   4.309   8.410  0.2476  0.2114  0.3772
  132OSM   H18S14278   0.946   4.332   8.403  0.3142 -0.0777  0.4487
  132OSM   H18T14279   0.819   4.199   8.399 -4.0301  0.8345  0.3106
  132OSM   H18U14280   0.814   4.333   8.516 -0.8652  0.0546  0.1758
  132OSM    C1F14281   0.727   4.004   6.792 -0.0888  0.2520 -0.2861
  132OSM     OF14282   0.815   3.952   6.725 -0.5072 -0.1867 -0.5716
  132OSM    C2F14283   0.622   3.919   6.847 -0.0842  0.4538  0.7118
  132OSM    H2F14284   0.584   3.856   6.764 -1.4462  0.4337  1.3393
  132OSM    H2G14285   0.534   3.980   6.876 -0.0372  0.7895  0.1315
  132OSM    C3F14286   0.659   3.837   6.967 -0.6885 -0.5339  0.4299
  132OSM    H3F14287   0.745   3.770   6.945 -0.2722  0.3857 -0.8130
  132OSM    H3G14288   0.573   3.775   7.002 -0.0391 -0.2376  2.6508
  132OSM    C4F14289   0.704   3.938   7.075 -0.1165  0.1997  0.0343
  132OSM    H4F14290   0.623   4.014   7.070  1.8725  2.3541 -0.2730
  132OSM    H4G14291   0.801   3.985   7.046 -0.1417  1.3353  1.6929
  132OSM    C5F14292   0.740   3.878   7.209 -0.7910  0.4902 -0.2630
  132OSM    H5F14293   0.842   3.835   7.211 -1.1311 -0.3002  0.8775
  132OSM    H5G14294   0.674   3.794   7.239  0.0344 -0.9631 -2.4443
  132OSM    C6F14295   0.731   3.984   7.322 -0.7360  0.4343  0.3666
  132OSM    H6F14296   0.632   4.012   7.364  0.2390  1.9959  1.7256
  132OSM    H6G14297   0.782   4.078   7.292 -0.2605  0.2428  0.5714
  132OSM    C7F14298   0.818   3.940   7.447  0.1096 -0.6246  0.2819
  132OSM    H7F14299   0.827   4.026   7.516  0.1896 -0.1907 -0.2613
  132OSM    H7G14300   0.925   3.918   7.425  0.9460  1.4532  2.1770
  132OSM    C8F14301   0.770   3.816   7.518  0.4937  0.3781 -0.6084
  132OSM    H8F14302   0.850   3.771   7.581  0.5875  1.7892  0.3131
  132OSM    H8G14303   0.756   3.748   7.432  1.3624 -0.7542  0.1257
  132OSM    C9F14304   0.646   3.827   7.598 -0.3837  0.1112 -0.4564
  132OSM    H9F14305   0.556   3.863   7.545 -0.3444 -1.7962 -1.8580
  132OSM   C10F14306   0.633   3.797   7.731  0.3539  0.5599  0.3155
  132OSM   H10F14307   0.530   3.803   7.770  0.3140  3.1742 -0.0747
  132OSM   C11F14308   0.733   3.747   7.823 -0.7296 -0.3316  0.0429
  132OSM   H11F14309   0.835   3.784   7.795 -0.1010  0.2184  2.9442
  132OSM   H11G14310   0.739   3.637   7.827  4.5500 -0.1551  0.6499
  132OSM   C12F14311   0.717   3.804   7.961 -0.2217  0.3479 -0.6964
  132OSM   H12F14312   0.796   3.766   8.029 -2.7874  1.2078  2.9610
  132OSM   H12G14313   0.626   3.756   8.006  0.2561  0.4846  0.4319
  132OSM   C13F14314   0.714   3.958   7.980  0.3190 -0.9091  0.1188
  132OSM   H13F14315   0.641   3.994   7.904  3.1942  1.8294 -1.4357
  132OSM   H13G14316   0.819   3.993   7.973 -0.5820  1.9039 -0.1609
  132OSM   C14F14317   0.653   4.015   8.116  0.8394 -0.4375  0.3684
  132OSM   H14F14318   0.643   4.125   8.110 -0.5229 -0.5572  0.4029
  132OSM   H14G14319   0.730   3.999   8.195  0.5708 -0.4867  0.6216
  132OSM   C15F14320   0.518   3.951   8.152 -0.1967 -0.3142  0.3938
  132OSM   H15F14321   0.465   3.914   8.061  0.1960 -0.2454  0.1367
  132OSM   H15G14322   0.453   4.031   8.194  1.1972  0.6831  0.6653
  132OSM   C16F14323   0.521   3.834   8.259 -0.9406 -0.2804  0.0392
  132OSM   H16F14324   0.593   3.839   8.343 -0.5623  3.2835 -0.4229
  132OSM   H16G14325   0.557   3.746   8.201 -0.2215 -0.2288  0.4072
  132OSM   C17F14326   0.380   3.807   8.303 -0.2348 -1.0302  0.6692
  132OSM   H17F14327   0.298   3.820   8.229  0.2783  2.4515  0.6532
  132OSM   H17G14328   0.350   3.876   8.384 -2.3785 -1.6079  0.3879
  132OSM   C18F14329   0.360   3.673   8.368 -0.4964 -0.3254  0.2527
  132OSM   H18F14330   0.300   3.687   8.460  1.9477  3.5935  1.3947
  132OSM   H18G14331   0.458   3.628   8.397  0.2597  1.7185  0.9196
  132OSM   H18H14332   0.306   3.610   8.295  0.0058  0.2314 -0.6060
  133OSM      N14333   1.586   3.662   5.966  0.6741 -0.2083  0.0038
  133OSM    C1514334   1.554   3.798   5.904 -0.1837  0.4714  0.2771
  133OSM   H15A14335   1.446   3.799   5.902 -0.3563 -3.6179  1.7223
  133OSM   H15B14336   1.600   3.798   5.807 -2.1614  0.7831 -0.6691
  133OSM   H15C14337   1.584   3.881   5.966 -1.0800  1.2225 -0.2920
  133OSM    C1414338   1.538   3.552   5.877 -0.5412  0.3484  0.0175
  133OSM   H14A14339   1.549   3.458   5.930 -1.2900 -0.4517 -1.2111
  133OSM   H14B14340   1.582   3.553   5.778 -3.3408  0.8981 -1.2653
  133OSM   H14C14341   1.432   3.565   5.860 -0.1071  0.5247 -2.7787
  133OSM    C1314342   1.736   3.639   5.981 -0.5267 -0.2264 -0.6833
  133OSM   H13A14343   1.784   3.641   5.884  2.2055  0.5455  0.6468
  133OSM   H13B14344   1.759   3.547   6.034 -2.2787 -0.3526 -0.0889
  133OSM   H13C14345   1.767   3.719   6.047 -0.8493 -1.8281  1.4869
  133OSM    C1214346   1.522   3.647   6.100  0.3678  0.2482  0.5042
  133OSM   H12A14347   1.418   3.672   6.095  0.2006  0.2488  3.3210
  133OSM   H12B14348   1.571   3.726   6.155  1.3096  0.5758 -0.7805
  133OSM    C1114349   1.533   3.514   6.178 -0.0265 -0.1694 -0.3770
  133OSM   H11A14350   1.523   3.532   6.287  1.0247  0.0384 -0.3092
  133OSM   H11B14351   1.632   3.469   6.159 -0.3740 -0.9848 -0.2539
  133OSM      P14352   1.284   3.430   6.161  0.2238 -0.3538 -0.0605
  133OSM    O1314353   1.230   3.547   6.093  0.7728  0.0848  0.3655
  133OSM    O1414354   1.218   3.299   6.135 -0.3835  0.3164  0.0464
  133OSM    O1114355   1.283   3.459   6.317 -0.1859  0.2404  0.1243
  133OSM    O1214356   1.439   3.415   6.130  0.3743 -0.2398  0.1081
  133OSM    C1S14357   1.149   3.480   6.375 -0.1219  0.2987 -0.0645
  133OSM    H1S14358   1.082   3.392   6.363  1.2656 -1.2967  3.1672
  133OSM    H1T14359   1.116   3.569   6.316 -0.0260 -0.4948 -1.3379
  133OSM     NF14360   1.031   3.478   6.595  0.3675 -0.4068 -0.3785
  133OSM    HNF14361   0.974   3.556   6.620  3.4011  1.5914  0.6319
  133OSM    C2S14362   1.164   3.509   6.528  0.0896 -0.4775 -0.2700
  133OSM    H2S14363   1.237   3.439   6.573 -0.1234  0.3530  1.3905
  133OSM    C3S14364   1.206   3.655   6.541  0.3720  0.3272  0.5056
  133OSM    H3S14365   1.137   3.719   6.483 -0.8188 -0.5483  0.9400
  133OSM     O314366   1.328   3.671   6.472 -0.4524 -0.1549 -0.1315
  133OSM    HO314367   1.345   3.594   6.417  1.6813 -0.4319  0.8668
  133OSM    C4S14368   1.218   3.700   6.683  0.9591  0.4621 -0.3043
  133OSM    H4S14369   1.261   3.620   6.746 -1.0371 -1.0789 -0.8322
  133OSM    C5S14370   1.175   3.818   6.733 -0.4091 -0.1600  0.0639
  133OSM    H5S14371   1.160   3.899   6.660  1.6724 -0.4127 -0.6997
  133OSM    C6S14372   1.198   3.848   6.875 -0.8407 -0.6113  0.3231
  133OSM    H6S14373   1.168   3.953   6.898 -0.5237 -0.7411  1.3925
  133OSM    H6T14374   1.309   3.840   6.880 -0.7743 -0.5555 -0.9736
  133OSM    C7S14375   1.149   3.745   6.984  0.7733  0.2087 -0.0944
  133OSM    H7S14376   1.200   3.647   6.977 -0.8608 -0.6899  0.1831
  133OSM    H7T14377   1.044   3.722   6.957  1.0173  0.6368 -1.4219
  133OSM    C8S14378   1.154   3.810   7.129  0.1301  0.1423  0.1393
  133OSM    H8S14379   1.124   3.740   7.210  2.3662  0.4821  1.2781
  133OSM    H8T14380   1.080   3.893   7.137 -1.4985 -1.0345 -2.1282
  133OSM    C9S14381   1.289   3.870   7.179 -0.4549  0.8610  0.0744
  133OSM    H9S14382   1.326   3.932   7.094 -1.0846  0.6739 -0.3407
  133OSM    H9T14383   1.363   3.788   7.182 -2.8904 -1.3987  0.1721
  133OSM   C10S14384   1.268   3.965   7.297 -0.0121  0.2137  0.6981
  133OSM   H10S14385   1.195   4.047   7.279  0.7403  0.8877  0.7251
  133OSM   H10T14386   1.363   4.021   7.307 -0.6846  1.9613 -2.0928
  133OSM   C11S14387   1.228   3.896   7.432 -0.0860 -0.1905  0.2275
  133OSM   H11S14388   1.315   3.832   7.455  1.1008  0.3811 -2.4762
  133OSM   H11T14389   1.138   3.833   7.417  0.1423 -0.7207  1.0406
  133OSM   C12S14390   1.203   3.994   7.543  0.7957  0.9260 -0.0468
  133OSM   H12S14391   1.127   4.069   7.512  0.0790 -0.8666 -2.7996
  133OSM   H12T14392   1.297   4.042   7.579 -0.0768 -0.0553  3.7658
  133OSM   C13S14393   1.168   3.918   7.666  0.7164 -0.0206  0.6570
  133OSM   H13S14394   1.259   3.855   7.676 -0.3131 -2.2855 -2.9520
  133OSM   H13T14395   1.080   3.857   7.636  0.7405 -0.8252  2.2057
  133OSM   C14S14396   1.142   3.998   7.792 -0.5785  0.2469  0.3714
  133OSM   H14S14397   1.041   4.042   7.779  0.0952  0.4526 -5.4249
  133OSM   H14T14398   1.216   4.080   7.802 -1.7892  1.6497 -1.8120
  133OSM   C15S14399   1.162   3.910   7.922  0.2128 -0.0991 -0.3554
  133OSM   H15S14400   1.268   3.879   7.918 -0.3203 -2.0691  0.3808
  133OSM   H15T14401   1.105   3.815   7.915  0.9027 -0.4290 -1.5185
  133OSM   C16S14402   1.128   3.993   8.041  0.1281 -0.5964  0.3440
  133OSM   H16S14403   1.027   4.032   8.017  0.2818 -0.0193  0.6329
  133OSM   H16T14404   1.212   4.065   8.054 -0.7522  0.2939  1.0620
  133OSM   C17S14405   1.121   3.928   8.174 -1.2522 -0.4947  0.0494
  133OSM   H17S14406   1.208   3.860   8.183 -2.2884 -1.4153  4.0874
  133OSM   H17T14407   1.032   3.862   8.168 -0.1146 -2.4666  3.3449
  133OSM   C18S14408   1.111   4.021   8.298 -0.0390  0.6171  0.0633
  133OSM   H18S14409   1.101   3.951   8.384 -1.2088  0.4050 -0.2404
  133OSM   H18T14410   1.022   4.087   8.288  0.9244  2.2157  1.7474
  133OSM   H18U14411   1.198   4.090   8.303 -0.4754  1.2645 -0.9709
  133OSM    C1F14412   1.003   3.352   6.630 -0.1816  0.3447 -0.2861
  133OSM     OF14413   1.088   3.266   6.623 -0.2671  0.2130 -0.7016
  133OSM    C2F14414   0.863   3.320   6.673  0.2519  0.1951  0.5214
  133OSM    H2F14415   0.806   3.263   6.596  0.5168 -0.5885  0.8999
  133OSM    H2G14416   0.811   3.412   6.708  1.7257  1.8196 -1.4277
  133OSM    C3F14417   0.882   3.219   6.789 -0.4842  0.1463 -0.1825
  133OSM    H3F14418   0.924   3.121   6.760  2.0039  0.4137  2.3215
  133OSM    H3G14419   0.787   3.193   6.840 -0.5900 -0.1641 -0.5402
  133OSM    C4F14420   0.964   3.268   6.914 -0.1320 -0.5259  0.0639
  133OSM    H4F14421   1.062   3.298   6.873 -0.0859 -2.7473 -1.5612
  133OSM    H4G14422   0.986   3.181   6.979 -0.5770 -1.9135 -1.6038
  133OSM    C5F14423   0.913   3.386   6.988 -0.3039 -0.3853 -0.8583
  133OSM    H5F14424   0.900   3.473   6.920  0.3987  0.5144  0.1490
  133OSM    H5G14425   0.989   3.406   7.066 -0.5735 -0.7066 -0.5056
  133OSM    C6F14426   0.791   3.348   7.071 -0.1274 -0.6460  0.3261
  133OSM    H6F14427   0.810   3.247   7.113  1.0120  0.3799  2.3472
  133OSM    H6G14428   0.701   3.345   7.006  0.4947  0.9046 -0.6512
  133OSM    C7F14429   0.782   3.440   7.199  0.8075  0.1952  0.7963
  133OSM    H7F14430   0.796   3.547   7.174  1.0579  0.0925  0.4903
  133OSM    H7G14431   0.864   3.408   7.267 -1.0555 -0.0752  2.9803
  133OSM    C8F14432   0.650   3.414   7.272  0.5054 -0.1244  0.7650
  133OSM    H8F14433   0.641   3.304   7.284  1.8003 -0.3721 -0.4101
  133OSM    H8G14434   0.564   3.445   7.209  1.6513  1.8238  0.1119
  133OSM    C9F14435   0.641   3.491   7.400 -0.1018  1.2685 -0.2221
  133OSM    H9F14436   0.613   3.597   7.394  0.6476  1.4464 -0.6000
  133OSM   C10F14437   0.648   3.440   7.525  0.4962 -0.2622  0.9411
  133OSM   H10F14438   0.643   3.520   7.600 -2.1502  0.4985 -0.0249
  133OSM   C11F14439   0.654   3.295   7.566 -0.3833  0.1778  0.1768
  133OSM   H11F14440   0.710   3.246   7.485 -0.8614  1.4494 -0.9454
  133OSM   H11G14441   0.555   3.245   7.574  0.1490 -0.4080  4.3212
  133OSM   C12F14442   0.722   3.277   7.708  0.4121  0.2202  0.3036
  133OSM   H12F14443   0.705   3.171   7.736 -0.8564 -0.0853 -1.5026
  133OSM   H12G14444   0.667   3.336   7.783 -0.9054 -0.4108 -0.1477
  133OSM   C13F14445   0.874   3.310   7.710 -0.2777  0.3922  0.8261
  133OSM   H13F14446   0.896   3.292   7.818  2.2939 -0.3927  0.1965
  133OSM   H13G14447   0.889   3.414   7.676 -2.4445  0.7468  0.8829
  133OSM   C14F14448   0.958   3.220   7.626 -0.7873  0.1883 -0.7806
  133OSM   H14F14449   1.034   3.279   7.570  1.1997 -1.2611  0.3801
  133OSM   H14G14450   0.899   3.171   7.545 -0.1257  1.4481 -2.0631
  133OSM   C15F14451   1.020   3.106   7.699  0.7589 -0.1946  0.7761
  133OSM   H15F14452   1.096   3.136   7.775  1.6921  0.3418 -0.3627
  133OSM   H15G14453   1.060   3.042   7.618 -0.4872  1.3148 -1.0682
  133OSM   C16F14454   0.932   3.013   7.783  0.2256 -0.1216 -0.5003
  133OSM   H16F14455   0.852   2.960   7.727  0.1869 -1.9666  1.2662
  133OSM   H16G14456   0.888   3.069   7.868 -1.1200  0.9326 -1.8556
  133OSM   C17F14457   1.020   2.896   7.838  0.2972  0.3966  0.2245
  133OSM   H17F14458   1.117   2.932   7.879 -0.7985  2.1996  1.2855
  133OSM   H17G14459   1.050   2.834   7.751  0.4282  1.3353 -0.4081
  133OSM   C18F14460   0.936   2.812   7.937 -0.5656  0.1126  0.5840
  133OSM   H18F14461   0.923   2.878   8.025 -2.7279  1.2476 -0.5372
  133OSM   H18G14462   0.982   2.719   7.977 -0.8115 -0.4373 -0.3887
  133OSM   H18H14463   0.840   2.788   7.886 -0.1379 -0.6112  0.1032
  134OSM      N14464   2.549   0.543   6.542  0.0499 -0.1601  0.2798
  134OSM    C1514465   2.683   0.610   6.569  0.2186 -0.1936 -0.1067
  134OSM   H15A14466   2.769   0.564   6.523  1.0691  0.1176  1.1764
  134OSM   H15B14467   2.689   0.617   6.676  2.2231 -1.2941 -0.1381
  134OSM   H15C14468   2.673   0.716   6.549 -2.6896  0.0737  2.3635
  134OSM    C1414469   2.532   0.521   6.396  0.4394 -0.4222  0.3208
  134OSM   H14A14470   2.432   0.483   6.381  0.9671 -1.1994 -1.5211
  134OSM   H14B14471   2.606   0.451   6.358  1.5872  0.6625  0.5351
  134OSM   H14C14472   2.531   0.606   6.329  2.5071  0.1497  0.9676
  134OSM    C1314473   2.550   0.414   6.610  0.0618  0.2533  0.6138
  134OSM   H13A14474   2.568   0.426   6.716  1.9998 -2.6317  0.6613
  134OSM   H13B14475   2.629   0.353   6.569 -0.1088  0.1308  0.4638
  134OSM   H13C14476   2.456   0.361   6.600  1.5960 -1.9088 -3.5690
  134OSM    C1214477   2.443   0.639   6.583 -0.3330 -0.3280  0.1770
  134OSM   H12A14478   2.473   0.736   6.546  1.0917 -0.3784  1.1516
  134OSM   H12B14479   2.462   0.662   6.687  1.4504 -2.3956  0.3341
  134OSM    C1114480   2.294   0.616   6.549 -0.3788 -0.7166 -0.4168
  134OSM   H11A14481   2.270   0.639   6.443 -0.6377 -0.7201 -0.3571
  134OSM   H11B14482   2.231   0.690   6.603 -1.4609 -0.6658 -1.7379
  134OSM      P14483   2.125   0.409   6.512  0.0930  0.4840  0.0357
  134OSM    O1314484   2.014   0.504   6.517 -0.1724  0.2159  0.5466
  134OSM    O1414485   2.166   0.363   6.381  0.3898 -0.1448  0.2628
  134OSM    O1114486   2.096   0.282   6.600 -0.4818  0.0750 -0.1793
  134OSM    O1214487   2.252   0.482   6.586  0.2580  0.4046  0.0514
  134OSM    C1S14488   2.164   0.253   6.722 -0.4882 -0.4192  0.6507
  134OSM    H1S14489   2.106   0.295   6.807 -1.2034  1.9945 -0.9944
  134OSM    H1T14490   2.268   0.292   6.729  0.0020 -1.7523  1.0878
  134OSM     NF14491   2.217   0.069   6.879  0.8166  0.1938 -0.4397
  134OSM    HNF14492   2.313   0.045   6.893  0.4427 -1.4325 -0.5121
  134OSM    C2S14493   2.174   0.097   6.742  0.4772 -0.0512 -0.1596
  134OSM    H2S14494   2.073   0.054   6.726 -0.0542 -0.6508  4.1345
  134OSM    C3S14495   2.271   0.041   6.633 -0.0030 -0.4682  0.6401
  134OSM    H3S14496   2.372   0.086   6.636 -0.3174  0.1670  2.0528
  134OSM     O314497   2.224   0.061   6.502  0.0456  0.1036  0.7536
  134OSM    HO314498   2.149   0.120   6.501  0.7044  0.9580  1.0334
  134OSM    C4S14499   2.282  -0.112   6.665  0.0538 -0.3689 -0.6935
  134OSM    H4S14500   2.190  -0.170   6.650 -0.5444  0.3626  0.1025
  134OSM    C5S14501   2.390  -0.183   6.688  0.3158  0.5125  0.4402
  134OSM    H5S14502   2.488  -0.134   6.678  0.3811  0.4525  0.7792
  134OSM    C6S14503   2.394  -0.329   6.712 -1.1117  0.1831 -0.6335
  134OSM    H6S14504   2.424  -0.380   6.618  1.8634 -0.4522  0.6042
  134OSM    H6T14505   2.295  -0.378   6.724 -0.5257 -1.1966 -1.3580
  134OSM    C7S14506   2.493  -0.369   6.821  0.4303 -0.1116 -0.1720
  134OSM    H7S14507   2.593  -0.327   6.797  0.3200 -0.0031 -0.4408
  134OSM    H7T14508   2.500  -0.479   6.808 -1.6841 -0.3095  0.1959
  134OSM    C8S14509   2.441  -0.335   6.958 -0.7746 -0.5116 -0.0181
  134OSM    H8S14510   2.337  -0.374   6.964 -0.7999 -0.3704  0.4140
  134OSM    H8T14511   2.443  -0.226   6.977 -2.6485 -0.9813  3.1431
  134OSM    C9S14512   2.525  -0.403   7.065 -0.5699  0.7632  0.4622
  134OSM    H9S14513   2.629  -0.366   7.066 -0.3866  0.3662 -1.6360
  134OSM    H9T14514   2.531  -0.510   7.038 -1.3202 -0.1675  3.6965
  134OSM   C10S14515   2.464  -0.405   7.203  0.2808 -0.3723 -0.1578
  134OSM   H10S14516   2.375  -0.471   7.216 -0.5233  0.1951 -2.4630
  134OSM   H10T14517   2.412  -0.310   7.229  0.0378  0.6819 -4.2669
  134OSM   C11S14518   2.574  -0.424   7.309  0.4776  0.9878 -0.2693
  134OSM   H11S14519   2.638  -0.333   7.307 -0.5058  1.6756 -0.3954
  134OSM   H11T14520   2.645  -0.506   7.283  2.7903  2.5459  0.9128
  134OSM   C12S14521   2.518  -0.460   7.444 -0.1829  0.1650  0.4706
  134OSM   H12S14522   2.445  -0.542   7.428 -1.6279  1.5825 -0.3477
  134OSM   H12T14523   2.481  -0.369   7.496 -0.7950  0.0472  0.2485
  134OSM   C13S14524   2.633  -0.505   7.545 -0.1436 -0.0496  0.5297
  134OSM   H13S14525   2.696  -0.414   7.558 -2.0650  1.7686 -2.2135
  134OSM   H13T14526   2.683  -0.593   7.499  1.9958  0.2896  2.1434
  134OSM   C14S14527   2.586  -0.547   7.683  0.0776 -0.1466  0.5535
  134OSM   H14S14528   2.515  -0.633   7.683  0.1679 -0.2256 -0.4836
  134OSM   H14T14529   2.542  -0.454   7.725 -2.0965 -0.4868 -0.8713
  134OSM   C15S14530   2.707  -0.598   7.771  0.7243  0.1637 -0.9092
  134OSM   H15S14531   2.788  -0.523   7.763  0.7379  0.1606 -0.8022
  134OSM   H15T14532   2.743  -0.692   7.725  2.9629  0.3828  0.3338
  134OSM   C16S14533   2.674  -0.598   7.920 -0.0414 -0.1363  0.9685
  134OSM   H16S14534   2.621  -0.694   7.939  0.9353 -0.5654  1.5518
  134OSM   H16T14535   2.612  -0.513   7.955 -1.5148 -0.3439 -1.0276
  134OSM   C17S14536   2.798  -0.598   8.009 -0.1859 -0.2556 -0.2819
  134OSM   H17S14537   2.854  -0.503   7.994 -0.9648 -0.0187 -1.8483
  134OSM   H17T14538   2.866  -0.682   7.980 -0.2467  0.6610 -3.3253
  134OSM   C18S14539   2.756  -0.617   8.158  0.5843  0.3039 -1.1904
  134OSM   H18S14540   2.688  -0.702   8.179  0.1414  1.2152  1.2695
  134OSM   H18T14541   2.704  -0.526   8.194  0.8112 -0.0707  0.1092
  134OSM   H18U14542   2.846  -0.630   8.223 -1.1807  1.7894  1.6472
  134OSM    C1F14543   2.134   0.065   6.983 -0.1183  0.2552  0.2952
  134OSM     OF14544   2.014   0.080   6.977  0.3246 -0.2584  0.6355
  134OSM    C2F14545   2.202   0.034   7.116  1.0051 -1.0510 -0.2885
  134OSM    H2F14546   2.258   0.122   7.152 -0.1924 -0.5702  0.4296
  134OSM    H2G14547   2.280  -0.044   7.102  2.1925 -0.0303  0.5285
  134OSM    C3F14548   2.108  -0.007   7.232 -0.5484  0.0745 -0.5329
  134OSM    H3F14549   2.036  -0.085   7.199 -0.5759 -0.3206  0.4314
  134OSM    H3G14550   2.053   0.085   7.261  0.6340  0.3837  0.8341
  134OSM    C4F14551   2.176  -0.053   7.365 -0.0699 -0.0807 -0.0281
  134OSM    H4F14552   2.237   0.029   7.407 -0.9555  0.4561  0.2092
  134OSM    H4G14553   2.242  -0.140   7.344  3.7330  2.2684  1.7408
  134OSM    C5F14554   2.082  -0.094   7.483  0.2028  0.5058 -0.1067
  134OSM    H5F14555   2.004  -0.163   7.444 -2.7740  2.7289  1.6582
  134OSM    H5G14556   2.021  -0.009   7.521 -0.0827 -0.4314  1.5668
  134OSM    C6F14557   2.161  -0.150   7.601  0.1928  0.5849  0.0602
  134OSM    H6F14558   2.098  -0.132   7.690  0.0331  4.0798 -0.6566
  134OSM    H6G14559   2.259  -0.098   7.615  0.3655  0.2010  0.2869
  134OSM    C7F14560   2.176  -0.297   7.587  0.4711 -0.2899 -0.1777
  134OSM    H7F14561   2.235  -0.329   7.498 -0.8567  0.4205 -1.3377
  134OSM    H7G14562   2.089  -0.362   7.567 -0.3678  0.3052  1.4554
  134OSM    C8F14563   2.246  -0.370   7.715 -0.7672 -0.6617 -0.0446
  134OSM    H8F14564   2.180  -0.330   7.795  0.0733 -1.0009  0.8204
  134OSM    H8G14565   2.349  -0.332   7.733 -0.3311 -1.0483 -1.6318
  134OSM    C9F14566   2.240  -0.523   7.698  0.4408 -0.5351 -0.5921
  134OSM    H9F14567   2.266  -0.558   7.597  0.5676 -0.7240 -0.4964
  134OSM   C10F14568   2.208  -0.611   7.795  0.1127 -0.7064 -0.2991
  134OSM   H10F14569   2.189  -0.717   7.773  1.6092 -1.4144  1.6886
  134OSM   C11F14570   2.168  -0.572   7.936  0.2328  0.0057  0.2058
  134OSM   H11F14571   2.249  -0.506   7.974 -0.6573  1.2498 -0.0023
  134OSM   H11G14572   2.161  -0.662   8.000 -1.1481 -0.0736 -0.0381
  134OSM   C12F14573   2.025  -0.520   7.955  0.3438 -0.0516 -0.5026
  134OSM   H12F14574   1.948  -0.599   7.942 -0.4814  0.2043  2.4429
  134OSM   H12G14575   2.002  -0.458   7.866  0.8123 -0.3004 -0.7992
  134OSM   C13F14576   2.005  -0.436   8.077  1.3325 -0.1743  0.1813
  134OSM   H13F14577   2.058  -0.339   8.076  0.0458  0.5919  2.4667
  134OSM   H13G14578   2.051  -0.483   8.167 -1.2672 -3.3307 -0.0341
  134OSM   C14F14579   1.862  -0.397   8.113  0.0408  0.2962 -0.1678
  134OSM   H14F14580   1.834  -0.406   8.220 -2.3520  1.5662 -0.6365
  134OSM   H14G14581   1.795  -0.472   8.064 -0.3955  0.3204  0.3827
  134OSM   C15F14582   1.831  -0.252   8.068 -0.1888  0.3751 -0.1862
  134OSM   H15F14583   1.721  -0.249   8.086 -0.2619  2.8056 -0.9071
  134OSM   H15G14584   1.847  -0.239   7.959  0.0988  0.8205 -0.0905
  134OSM   C16F14585   1.906  -0.148   8.154  0.2849  0.0557 -0.0664
  134OSM   H16F14586   1.870  -0.047   8.123  1.1875  0.4325  0.1065
  134OSM   H16G14587   2.011  -0.135   8.122  0.2060 -0.3440 -0.4990
  134OSM   C17F14588   1.898  -0.159   8.302  0.2368 -0.5690 -0.0044
  134OSM   H17F14589   1.942  -0.253   8.342  3.1024  1.0249  0.7928
  134OSM   H17G14590   1.792  -0.167   8.334  0.3089 -1.7260 -0.0675
  134OSM   C18F14591   1.961  -0.037   8.366 -0.4726  0.1710 -0.1019
  134OSM   H18F14592   1.930  -0.032   8.473  1.3243 -2.4994  0.5903
  134OSM   H18G14593   1.940   0.050   8.301  0.4817 -1.4587 -2.6454
  134OSM   H18H14594   2.071  -0.049   8.369 -0.7121 -2.3313 -0.4994
  135OSM      N14595   2.019   0.050   6.164  0.4456  0.3073  0.7944
  135OSM    C1514596   2.022   0.200   6.173  0.2547 -0.0045  0.2335
  135OSM   H15A14597   2.085   0.240   6.252  1.8375 -2.9809  0.5626
  135OSM   H15B14598   1.919   0.225   6.195  0.5241 -0.6062  2.3795
  135OSM   H15C14599   2.035   0.252   6.079 -0.1429 -1.1026 -0.4415
  135OSM    C1414600   1.932  -0.008   6.059  0.4136  0.5423 -0.6744
  135OSM   H14A14601   1.965   0.032   5.964 -0.4974 -0.7867 -1.5796
  135OSM   H14B14602   1.829   0.021   6.070  0.0791 -1.2903  1.3221
  135OSM   H14C14603   1.932  -0.116   6.058 -2.3325  0.4817  1.2991
  135OSM    C1314604   2.159   0.020   6.119  0.1467  0.5989 -0.0348
  135OSM   H13A14605   2.180   0.069   6.025  0.3963 -0.4115 -0.5062
  135OSM   H13B14606   2.169  -0.086   6.107  0.1680  0.4160  1.4798
  135OSM   H13C14607   2.232   0.056   6.191 -1.5811  1.2914  1.4205
  135OSM    C1214608   1.983  -0.002   6.296 -0.6606  0.4568 -0.0702
  135OSM   H12A14609   2.071  -0.022   6.356 -0.5715 -0.9942 -0.6554
  135OSM   H12B14610   1.942  -0.102   6.285  1.0444 -0.6259  2.7715
  135OSM    C1114611   1.892   0.092   6.385 -0.1528  0.1408  1.0236
  135OSM   H11A14612   1.940   0.180   6.435  1.9174 -0.1449 -0.3994
  135OSM   H11B14613   1.864   0.015   6.460 -2.1973  0.8181  0.9881
  135OSM      P14614   1.651   0.191   6.384  0.1118  0.1745 -0.0723
  135OSM    O1314615   1.636   0.332   6.351 -1.1832 -0.0144  0.2475
  135OSM    O1414616   1.533   0.104   6.367 -0.1809 -0.1627 -0.2863
  135OSM    O1114617   1.681   0.188   6.538  0.8980  0.1716 -0.4563
  135OSM    O1214618   1.778   0.130   6.309 -0.4291  0.1200 -0.2975
  135OSM    C1S14619   1.742   0.274   6.621  0.0512  0.0971 -0.3403
  135OSM    H1S14620   1.707   0.376   6.596 -0.0864  0.0216 -0.4565
  135OSM    H1T14621   1.853   0.272   6.617  0.0633 -0.8802  0.1367
  135OSM     NF14622   1.761   0.331   6.865  0.4512 -0.0998 -0.5158
  135OSM    HNF14623   1.829   0.289   6.924  0.8668 -0.9656 -1.5787
  135OSM    C2S14624   1.697   0.248   6.769  0.0847 -0.2173 -0.0290
  135OSM    H2S14625   1.589   0.272   6.771 -0.3943 -2.2065 -0.8886
  135OSM    C3S14626   1.724   0.099   6.807  0.2806  0.5575 -0.3267
  135OSM    H3S14627   1.834   0.080   6.808 -0.1657 -2.3153  1.3563
  135OSM     O314628   1.657   0.011   6.724 -0.2983 -0.0203  0.2566
  135OSM    HO314629   1.645   0.072   6.651  1.6099  1.2680  0.9680
  135OSM    C4S14630   1.684   0.079   6.953  0.1629 -0.1023  0.4155
  135OSM    H4S14631   1.768   0.076   7.025  0.7325  0.7961 -0.2170
  135OSM    C5S14632   1.559   0.066   7.001  0.3767 -0.0106 -0.4895
  135OSM    H5S14633   1.471   0.072   6.936 -0.2704  0.4578  0.4113
  135OSM    C6S14634   1.530   0.044   7.145  0.3021  0.5918 -0.5459
  135OSM    H6S14635   1.462  -0.042   7.161  0.2483  0.6273 -0.5821
  135OSM    H6T14636   1.464   0.130   7.170  0.0014  0.7241 -1.7423
  135OSM    C7S14637   1.642   0.048   7.247  0.0600  0.5942  0.0260
  135OSM    H7S14638   1.688   0.149   7.255  1.3350  0.1150 -1.0693
  135OSM    H7T14639   1.719  -0.026   7.214  2.4949  2.2692  1.7832
  135OSM    C8S14640   1.602   0.006   7.390 -0.1076 -0.4514 -0.0503
  135OSM    H8S14641   1.538  -0.084   7.386  2.6404 -2.5149  0.9806
  135OSM    H8T14642   1.538   0.089   7.426 -0.5199 -0.6366 -0.3550
  135OSM    C9S14643   1.721  -0.013   7.493 -0.4790 -0.7254 -0.3149
  135OSM    H9S14644   1.795   0.068   7.478  1.0878 -1.8779  1.0247
  135OSM    H9T14645   1.772  -0.109   7.469 -1.0846 -1.0475 -0.3552
  135OSM   C10S14646   1.667  -0.037   7.641 -0.0155  0.4751 -0.6715
  135OSM   H10S14647   1.710  -0.121   7.700  0.1150  0.5843 -0.6099
  135OSM   H10T14648   1.561  -0.069   7.632  0.0981  0.1802 -0.9461
  135OSM   C11S14649   1.666   0.089   7.726  0.0397  0.3682  0.3664
  135OSM   H11S14650   1.615   0.171   7.671 -1.1417  0.3333  1.3893
  135OSM   H11T14651   1.774   0.110   7.744  0.2471 -2.2356  2.4876
  135OSM   C12S14652   1.614   0.085   7.871  0.1996 -0.1296  0.0331
  135OSM   H12S14653   1.652  -0.011   7.914 -1.6111  0.0992  2.2571
  135OSM   H12T14654   1.504   0.074   7.883  0.1335  1.5118  1.1061
  135OSM   C13S14655   1.671   0.198   7.951  0.1405 -0.5096 -0.4697
  135OSM   H13S14656   1.627   0.298   7.935  2.6678  1.1531  2.3223
  135OSM   H13T14657   1.781   0.215   7.940 -0.0991  2.0835  0.8301
  135OSM   C14S14658   1.647   0.179   8.100 -0.5363 -0.7162 -0.6790
  135OSM   H14S14659   1.707   0.097   8.144  3.9145  2.6436 -0.1076
  135OSM   H14T14660   1.537   0.164   8.094 -0.5241 -0.2177 -2.4160
  135OSM   C15S14661   1.674   0.309   8.184 -0.8670 -0.7199 -0.6944
  135OSM   H15S14662   1.614   0.392   8.142 -2.0536 -0.3524  1.5873
  135OSM   H15T14663   1.783   0.320   8.172 -0.9536 -1.1697 -1.8885
  135OSM   C16S14664   1.640   0.303   8.335  0.3656  1.1496  0.0964
  135OSM   H16S14665   1.697   0.223   8.387 -1.4454 -0.5577 -0.4654
  135OSM   H16T14666   1.532   0.281   8.342  0.5488 -0.3033 -1.1872
  135OSM   C17S14667   1.668   0.431   8.412 -0.3176 -0.2788 -0.3532
  135OSM   H17S14668   1.612   0.519   8.374 -0.5221 -1.0403 -1.8533
  135OSM   H17T14669   1.778   0.439   8.422 -0.4078  0.8648 -0.3016
  135OSM   C18S14670   1.615   0.428   8.558 -0.2602  0.1420  0.0600
  135OSM   H18S14671   1.641   0.330   8.604 -0.0910 -0.8904 -2.2166
  135OSM   H18T14672   1.505   0.441   8.555 -0.5339 -0.9840  3.0705
  135OSM   H18U14673   1.656   0.509   8.623 -0.1473  0.0629  0.0872
  135OSM    C1F14674   1.759   0.460   6.875  0.4818 -0.6992  0.0538
  135OSM     OF14675   1.683   0.519   6.799 -0.2036  0.0279  0.0239
  135OSM    C2F14676   1.865   0.520   6.959 -0.4154 -0.2640  0.4638
  135OSM    H2F14677   1.821   0.604   7.017  0.2924  0.3901  0.0678
  135OSM    H2G14678   1.938   0.574   6.895 -0.9823 -0.8261 -0.6892
  135OSM    C3F14679   1.942   0.424   7.052 -0.2963 -0.6864 -0.1545
  135OSM    H3F14680   2.044   0.470   7.058 -0.7774  0.2994  0.6821
  135OSM    H3G14681   1.951   0.322   7.009  0.6119 -0.9266  0.5666
  135OSM    C4F14682   1.892   0.397   7.194 -0.0161  0.0265 -0.4046
  135OSM    H4F14683   1.901   0.289   7.218  0.5850  0.2942  0.6167
  135OSM    H4G14684   1.785   0.428   7.194  0.2896  1.1704  1.1771
  135OSM    C5F14685   1.954   0.465   7.314  0.0532  0.0712 -0.3509
  135OSM    H5F14686   1.958   0.574   7.292  2.5787  0.0611 -0.0764
  135OSM    H5G14687   2.057   0.430   7.333 -0.4712 -2.7686 -2.4115
  135OSM    C6F14688   1.879   0.438   7.438 -0.1080  0.1074 -0.6307
  135OSM    H6F14689   1.848   0.331   7.443  0.3987 -0.1434 -2.4319
  135OSM    H6G14690   1.780   0.488   7.440 -0.5619 -0.7921  3.2501
  135OSM    C7F14691   1.957   0.454   7.563 -0.6073  0.2337 -0.1010
  135OSM    H7F14692   2.016   0.548   7.559  0.3171 -0.3631 -0.5953
  135OSM    H7G14693   2.020   0.362   7.568 -0.9301 -0.1355 -2.5597
  135OSM    C8F14694   1.867   0.460   7.693 -0.3397 -0.5849 -0.3607
  135OSM    H8F14695   1.815   0.362   7.691 -1.2542 -0.0816 -1.6201
  135OSM    H8G14696   1.800   0.544   7.666 -1.5109 -2.0563 -2.1907
  135OSM    C9F14697   1.928   0.481   7.829 -0.6090  0.5733  0.1095
  135OSM    H9F14698   1.919   0.583   7.868 -0.1475  0.3326  0.8433
  135OSM   C10F14699   2.003   0.389   7.896 -0.2468  0.2340 -0.2547
  135OSM   H10F14700   2.045   0.418   7.994 -0.0380  0.6186 -0.4574
  135OSM   C11F14701   2.033   0.256   7.844 -0.2513  0.3929  0.6944
  135OSM   H11F14702   2.116   0.261   7.770 -0.3786 -0.2610  0.5005
  135OSM   H11G14703   1.943   0.213   7.796  0.0535  0.2777  0.2187
  135OSM   C12F14704   2.070   0.154   7.955  0.1273 -1.1133  0.7217
  135OSM   H12F14705   2.045   0.054   7.915 -1.5579 -0.0511 -0.9480
  135OSM   H12G14706   2.006   0.171   8.044 -1.1788 -1.0982 -0.2168
  135OSM   C13F14707   2.219   0.157   7.993  0.0361 -0.3573 -0.5011
  135OSM   H13F14708   2.228   0.265   8.018  1.8092 -0.4485 -0.7079
  135OSM   H13G14709   2.271   0.127   7.900  0.5036  0.9382 -0.6735
  135OSM   C14F14710   2.247   0.092   8.133 -0.2378 -0.3190 -0.0692
  135OSM   H14F14711   2.192  -0.004   8.141  0.6292 -0.8155 -0.0985
  135OSM   H14G14712   2.209   0.168   8.205  0.7121  0.3659 -0.2891
  135OSM   C15F14713   2.404   0.067   8.150  0.9473 -0.0326  0.1958
  135OSM   H15F14714   2.458   0.163   8.139  0.1449  0.5394  1.0674
  135OSM   H15G14715   2.436   0.001   8.067  1.0410  0.2500  0.0055
  135OSM   C16F14716   2.437   0.015   8.286  0.2108 -0.6276 -0.2302
  135OSM   H16F14717   2.376  -0.078   8.282  0.5876 -0.9248  0.8777
  135OSM   H16G14718   2.400   0.085   8.363 -0.4758 -0.8073 -0.3914
  135OSM   C17F14719   2.584  -0.022   8.313  0.6988  0.2517  0.3165
  135OSM   H17F14720   2.626   0.074   8.351  1.3232 -0.9961  2.9394
  135OSM   H17G14721   2.628  -0.056   8.217 -0.1303  0.2614 -0.0670
  135OSM   C18F14722   2.611  -0.115   8.433  0.7054  0.2694 -0.0586
  135OSM   H18F14723   2.716  -0.148   8.437  0.9485  0.8996 -0.9882
  135OSM   H18G14724   2.538  -0.198   8.417  0.3291  0.1312  2.2873
  135OSM   H18H14725   2.587  -0.072   8.532  1.3010  0.3408  0.0513
  136OSM      N14726   6.335   0.369   6.072  0.1483  0.2046  0.3585
  136OSM    C1514727   6.218   0.433   6.007 -0.2935 -0.3446  0.0633
  136OSM   H15A14728   6.138   0.362   6.024 -1.7615  1.3221  0.2282
  136OSM   H15B14729   6.229   0.452   5.902  0.9281 -0.9917  0.0685
  136OSM   H15C14730   6.193   0.529   6.049 -1.7539 -0.0408 -1.4475
  136OSM    C1414731   6.303   0.313   6.210 -0.1941 -0.9221  0.7438
  136OSM   H14A14732   6.230   0.233   6.218 -0.2602 -0.8821  0.5553
  136OSM   H14B14733   6.270   0.390   6.279 -1.3336 -2.3484  1.8198
  136OSM   H14C14734   6.394   0.269   6.248  0.5629 -1.1517 -1.2876
  136OSM    C1314735   6.374   0.259   5.983  0.5557  0.2540  0.1402
  136OSM   H13A14736   6.455   0.206   6.031  2.8822  1.5482 -2.1859
  136OSM   H13B14737   6.407   0.295   5.886 -1.3352 -1.9793 -1.3707
  136OSM   H13C14738   6.297   0.184   5.978 -1.6564  2.5261 -1.2130
  136OSM    C1214739   6.455   0.468   6.089 -0.6016  0.1626 -0.1103
  136OSM   H12A14740   6.482   0.503   5.991  0.6554 -4.7903 -1.7048
  136OSM   H12B14741   6.538   0.411   6.128 -0.9499  0.5816  1.2741
  136OSM    C1114742   6.428   0.586   6.185  0.3332  0.3385 -0.8985
  136OSM   H11A14743   6.409   0.552   6.289 -1.6790  0.1437 -1.3002
  136OSM   H11B14744   6.338   0.637   6.145  1.8564  2.9561 -1.1262
  136OSM      P14745   6.544   0.809   6.119 -0.2379  0.0849  0.1165
  136OSM    O1314746   6.687   0.853   6.105  0.1969  0.2616  0.3130
  136OSM    O1414747   6.467   0.798   5.997  0.1964  0.1757  0.4701
  136OSM    O1114748   6.466   0.909   6.220  0.1177 -0.4006  0.5733
  136OSM    O1214749   6.544   0.670   6.184  0.0232 -0.0412  0.1604
  136OSM    C1S14750   6.449   0.866   6.360 -0.3305  0.0023 -0.5851
  136OSM    H1S14751   6.475   0.761   6.385  1.1776  0.1428 -1.4600
  136OSM    H1T14752   6.340   0.881   6.379 -0.4782  0.4899 -1.7509
  136OSM     NF14753   6.492   0.903   6.597 -0.0486 -0.0150  0.3901
  136OSM    HNF14754   6.415   0.944   6.646  0.3482  1.4546 -0.1766
  136OSM    C2S14755   6.521   0.960   6.467  0.0090 -0.2797 -0.6159
  136OSM    H2S14756   6.631   0.964   6.449  0.4404 -1.4374  1.5033
  136OSM    C3S14757   6.474   1.109   6.450  0.2169 -1.1352 -0.5007
  136OSM    H3S14758   6.365   1.127   6.463  0.8249  0.3681  2.8808
  136OSM     O314759   6.519   1.164   6.322  0.4463 -0.2730  0.3086
  136OSM    HO314760   6.522   1.079   6.278 -0.2803 -0.7501  1.1529
  136OSM    C4S14761   6.541   1.198   6.547 -0.0658  0.5851 -0.7664
  136OSM    H4S14762   6.640   1.233   6.514 -0.2474  0.8983 -0.9784
  136OSM    C5S14763   6.496   1.240   6.672  0.1199  0.1605 -0.1439
  136OSM    H5S14764   6.400   1.210   6.716 -0.1465  0.6320 -0.4052
  136OSM    C6S14765   6.582   1.326   6.764 -0.1189  1.0114  0.1251
  136OSM    H6S14766   6.681   1.343   6.718 -0.3117  0.4369 -0.5127
  136OSM    H6T14767   6.598   1.268   6.857 -0.3772  0.3033 -0.2657
  136OSM    C7S14768   6.531   1.465   6.797 -0.2935  0.1662  0.4485
  136OSM    H7S14769   6.446   1.458   6.868  0.1851 -1.1130  0.9036
  136OSM    H7T14770   6.506   1.507   6.697  0.4614  0.2668  0.3005
  136OSM    C8S14771   6.635   1.549   6.877 -0.1602  1.0143 -0.3592
  136OSM    H8S14772   6.613   1.655   6.852  0.5919  0.7471 -2.2561
  136OSM    H8T14773   6.740   1.532   6.844 -0.0159 -1.1469  1.1791
  136OSM    C9S14774   6.623   1.531   7.033  0.3119 -0.1976 -0.3929
  136OSM    H9S14775   6.665   1.433   7.064  1.6857  0.1628 -1.0790
  136OSM    H9T14776   6.514   1.537   7.057  0.8786 -1.5716  2.7453
  136OSM   C10S14777   6.696   1.644   7.103  0.3085 -0.5554 -0.2745
  136OSM   H10S14778   6.656   1.739   7.062  1.5148 -0.5489 -1.4638
  136OSM   H10T14779   6.803   1.632   7.075  0.3866 -1.5748  0.4595
  136OSM   C11S14780   6.683   1.631   7.256 -0.4697 -0.5623  0.5646
  136OSM   H11S14781   6.696   1.529   7.297  1.1880 -0.6752 -0.2121
  136OSM   H11T14782   6.583   1.665   7.292 -0.3273  1.0650 -0.4825
  136OSM   C12S14783   6.792   1.713   7.334 -0.0499  0.5131 -0.6488
  136OSM   H12S14784   6.793   1.812   7.284  0.5022  1.3197  0.9317
  136OSM   H12T14785   6.891   1.665   7.314 -0.6911 -1.9758  1.8100
  136OSM   C13S14786   6.772   1.711   7.484  0.4755 -0.0449  0.3105
  136OSM   H13S14787   6.757   1.607   7.522  2.1488 -0.0555  0.9981
  136OSM   H13T14788   6.681   1.771   7.504  0.2406  0.0424 -0.9467
  136OSM   C14S14789   6.891   1.768   7.564  0.4284 -0.4939  0.5064
  136OSM   H14S14790   6.897   1.873   7.527 -0.8762 -1.0122 -1.2375
  136OSM   H14T14791   6.987   1.713   7.550  1.7290  1.6536  0.6760
  136OSM   C15S14792   6.864   1.787   7.713 -0.3767 -0.3809 -0.1504
  136OSM   H15S14793   6.860   1.683   7.752 -1.0801  1.1934  4.2653
  136OSM   H15T14794   6.766   1.835   7.736 -1.0891 -2.5596  1.5677
  136OSM   C16S14795   6.979   1.858   7.796 -0.1059 -0.2202  0.5383
  136OSM   H16S14796   6.994   1.957   7.746 -3.9673 -1.0750 -2.5958
  136OSM   H16T14797   7.074   1.802   7.786  0.9734  1.6288  0.1656
  136OSM   C17S14798   6.944   1.871   7.945 -0.0698 -0.4865  0.2280
  136OSM   H17S14799   6.934   1.772   7.994  0.5506  0.6940  2.8427
  136OSM   H17T14800   6.846   1.921   7.959 -0.6529 -2.0932  2.0668
  136OSM   C18S14801   7.060   1.944   8.017  0.2631  0.7476 -0.4343
  136OSM   H18S14802   7.144   1.873   8.003  0.1837  0.3601  0.9252
  136OSM   H18T14803   7.035   1.959   8.124 -0.9619  2.4864 -0.9300
  136OSM   H18U14804   7.096   2.041   7.978 -0.4569  0.7365 -1.1467
  136OSM    C1F14805   6.551   0.801   6.656 -0.2890 -0.5263  0.4653
  136OSM     OF14806   6.632   0.731   6.599  0.6947 -0.0652  0.5048
  136OSM    C2F14807   6.501   0.776   6.794  0.2198  0.2858 -0.2484
  136OSM    H2F14808   6.473   0.669   6.804  2.1317 -0.2887 -0.8693
  136OSM    H2G14809   6.420   0.848   6.820  0.7808  1.4562 -1.6595
  136OSM    C3F14810   6.619   0.809   6.890  1.2303  0.0795  0.1350
  136OSM    H3F14811   6.666   0.904   6.857  0.1768 -0.3305 -2.7104
  136OSM    H3G14812   6.697   0.730   6.879 -1.2374 -2.5426  0.7548
  136OSM    C4F14813   6.594   0.822   7.038  0.7126  0.4406  0.1257
  136OSM    H4F14814   6.552   0.726   7.075  0.6149  0.1078 -0.8220
  136OSM    H4G14815   6.516   0.899   7.058 -0.5874 -0.8104 -0.0595
  136OSM    C5F14816   6.725   0.850   7.113 -0.5995 -0.1592 -0.6571
  136OSM    H5F14817   6.759   0.953   7.090 -0.4626 -0.2112 -0.6865
  136OSM    H5G14818   6.800   0.784   7.065  0.3256  1.0442 -0.8746
  136OSM    C6F14819   6.741   0.818   7.267  0.3779  0.4419 -0.0194
  136OSM    H6F14820   6.850   0.801   7.281  0.2479  0.1909  0.7394
  136OSM    H6G14821   6.694   0.721   7.293  0.8036 -0.0274 -0.9987
  136OSM    C7F14822   6.694   0.939   7.341  0.0091  0.2626  0.1157
  136OSM    H7F14823   6.584   0.948   7.334 -0.0516  0.0341  0.7728
  136OSM    H7G14824   6.749   1.032   7.315 -0.5439  0.2060 -1.3000
  136OSM    C8F14825   6.706   0.928   7.491 -0.5982  0.7487 -0.7763
  136OSM    H8F14826   6.633   0.850   7.523  1.1316  0.1215  1.8943
  136OSM    H8G14827   6.674   1.024   7.536 -0.3307  0.5671 -0.1826
  136OSM    C9F14828   6.836   0.886   7.557 -0.0622  1.4107 -0.4227
  136OSM    H9F14829   6.920   0.942   7.512  0.3744  0.5493 -0.6921
  136OSM   C10F14830   6.866   0.804   7.661  0.7638  0.2814 -0.4129
  136OSM   H10F14831   6.971   0.791   7.690  0.2686  0.7507  1.6541
  136OSM   C11F14832   6.774   0.724   7.748 -0.4963  0.9354 -0.2045
  136OSM   H11F14833   6.798   0.618   7.773 -3.9629  0.2705  0.5697
  136OSM   H11G14834   6.681   0.708   7.689 -0.3653  1.3808 -0.5285
  136OSM   C12F14835   6.746   0.807   7.873  0.4874  0.3481 -0.1949
  136OSM   H12F14836   6.643   0.781   7.907 -0.6602  1.6921 -2.5306
  136OSM   H12G14837   6.759   0.915   7.854 -1.9847  0.8975  1.0124
  136OSM   C13F14838   6.834   0.767   7.989 -0.3178 -0.8324 -0.1382
  136OSM   H13F14839   6.936   0.757   7.947  0.1699  0.5338  0.7011
  136OSM   H13G14840   6.800   0.673   8.037 -1.0339  0.5323  2.1078
  136OSM   C14F14841   6.843   0.875   8.104 -0.9401  0.3886  0.7784
  136OSM   H14F14842   6.873   0.967   8.051  0.9538  1.1042  3.0034
  136OSM   H14G14843   6.940   0.856   8.154 -0.9510  1.0794  1.0628
  136OSM   C15F14844   6.721   0.867   8.200 -0.4169  0.1418  0.1399
  136OSM   H15F14845   6.727   0.769   8.252  1.4774  0.2056  0.0921
  136OSM   H15G14846   6.634   0.870   8.131  0.6665 -0.2076 -1.2591
  136OSM   C16F14847   6.718   0.985   8.307 -0.0480  0.0996  0.0409
  136OSM   H16F14848   6.754   1.071   8.247  2.4973 -2.2601 -1.9456
  136OSM   H16G14849   6.793   0.954   8.384  1.8724 -1.0690 -2.2518
  136OSM   C17F14850   6.581   1.017   8.376 -0.7837 -0.7104 -0.5615
  136OSM   H17F14851   6.606   1.081   8.464 -1.1886 -2.0800  0.5551
  136OSM   H17G14852   6.539   0.923   8.417 -4.0342  0.7185 -0.4953
  136OSM   C18F14853   6.476   1.078   8.285  0.6108  0.3048 -0.8173
  136OSM   H18F14854   6.519   1.153   8.216 -1.1982 -0.1257 -2.4561
  136OSM   H18G14855   6.398   1.132   8.344  2.1706  1.4689  0.2175
  136OSM   H18H14856   6.428   0.996   8.227  0.2202 -0.1663  0.1596
  137OSM      N14857   3.410   6.189   6.258 -0.3896  0.0598 -0.7897
  137OSM    C1514858   3.329   6.204   6.134  1.1083  0.0578  0.8402
  137OSM   H15A14859   3.241   6.143   6.143  0.1970  0.8390 -2.0561
  137OSM   H15B14860   3.371   6.155   6.047 -1.3508 -2.5188  1.0449
  137OSM   H15C14861   3.286   6.300   6.108  0.9894 -0.6568 -1.7310
  137OSM    C1414862   3.429   6.044   6.289 -0.2237 -0.2774  0.1469
  137OSM   H14A14863   3.330   6.001   6.279 -1.3460  1.8897  1.4896
  137OSM   H14B14864   3.469   6.042   6.389  1.5567  3.1613 -0.4229
  137OSM   H14C14865   3.490   6.003   6.210  0.5235  1.7436 -0.3726
  137OSM    C1314866   3.550   6.250   6.232  0.3297  0.0117  0.5902
  137OSM   H13A14867   3.610   6.231   6.320  0.0019 -0.4447  0.7206
  137OSM   H13B14868   3.556   6.353   6.202 -0.4191 -0.2476 -0.4537
  137OSM   H13C14869   3.596   6.205   6.146  2.5473  2.6838  0.3426
  137OSM    C1214870   3.342   6.263   6.373  0.1320 -0.5202  0.3976
  137OSM   H12A14871   3.237   6.238   6.373  0.0141 -0.0592  1.4235
  137OSM   H12B14872   3.350   6.370   6.357 -0.2195 -0.3339  1.4256
  137OSM    C1114873   3.400   6.242   6.508 -0.8197 -0.2340 -0.1079
  137OSM   H11A14874   3.390   6.324   6.582 -1.3500 -0.3325 -0.0752
  137OSM   H11B14875   3.509   6.221   6.496 -1.3021 -1.6026 -2.3041
  137OSM      P14876   3.193   6.124   6.612 -0.0040  0.0406  0.3268
  137OSM    O1314877   3.115   6.228   6.542  0.4334  0.1009 -0.3491
  137OSM    O1414878   3.150   5.982   6.589  0.1417  0.0744 -0.0092
  137OSM    O1114879   3.201   6.151   6.770 -0.1402 -0.4014 -0.3855
  137OSM    O1214880   3.344   6.128   6.559  0.2556 -0.3384 -0.2559
  137OSM    C1S14881   3.325   6.145   6.838 -0.1209  0.8108 -0.5465
  137OSM    H1S14882   3.390   6.233   6.818  0.5183  1.1944  2.8354
  137OSM    H1T14883   3.385   6.057   6.809  1.6457  2.0162 -0.5878
  137OSM     NF14884   3.423   6.125   7.064 -0.3304 -0.3889  0.2375
  137OSM    HNF14885   3.462   6.037   7.091  0.7282  0.3381  1.1263
  137OSM    C2S14886   3.303   6.128   6.988  0.1689 -0.1066 -0.4522
  137OSM    H2S14887   3.256   6.221   7.028 -0.4607 -0.4896 -0.2856
  137OSM    C3S14888   3.212   5.995   7.005 -0.4326  0.4676  0.6303
  137OSM    H3S14889   3.269   5.915   6.953 -0.1155  1.3276 -0.3565
  137OSM     O314890   3.080   5.992   6.944 -0.0067  0.2029  0.2141
  137OSM    HO314891   3.076   6.071   6.889 -2.3555  0.2408  0.3921
  137OSM    C4S14892   3.195   5.948   7.148 -0.2896  0.0015  0.4011
  137OSM    H4S14893   3.283   5.893   7.186 -0.9833 -1.8682 -0.6205
  137OSM    C5S14894   3.094   5.962   7.232  0.0442 -0.5717  0.3219
  137OSM    H5S14895   3.006   6.015   7.193  0.3072 -1.0023 -0.8769
  137OSM    C6S14896   3.065   5.918   7.370  0.2450 -0.1801 -0.0595
  137OSM    H6S14897   2.973   5.857   7.383 -0.3322  0.5962 -0.4601
  137OSM    H6T14898   3.048   5.995   7.448  1.6066 -1.1711  1.2483
  137OSM    C7S14899   3.183   5.843   7.432 -0.0196 -0.2234  0.0564
  137OSM    H7S14900   3.257   5.922   7.459  1.5509 -2.7949  3.6796
  137OSM    H7T14901   3.235   5.780   7.357  0.7439 -1.1321  1.3299
  137OSM    C8S14902   3.156   5.751   7.550  0.0504  0.2758  0.4200
  137OSM    H8S14903   3.254   5.725   7.595 -0.4635 -0.7625  0.9496
  137OSM    H8T14904   3.105   5.657   7.518 -0.8480  1.1827 -0.8764
  137OSM    C9S14905   3.066   5.819   7.647 -0.1091  0.2222 -0.8213
  137OSM    H9S14906   2.962   5.819   7.607 -0.6789 -1.5611  0.6035
  137OSM    H9T14907   3.088   5.923   7.679 -2.3594  0.9828 -1.6163
  137OSM   C10S14908   3.065   5.745   7.782 -0.3047 -0.4201 -0.5510
  137OSM   H10S14909   3.170   5.728   7.812 -0.5256 -2.5288 -0.9259
  137OSM   H10T14910   3.014   5.651   7.753 -1.4559 -0.0168  0.1496
  137OSM   C11S14911   2.984   5.812   7.891 -0.1112 -0.3371  0.1692
  137OSM   H11S14912   2.882   5.825   7.850 -1.3599  0.4083  3.3915
  137OSM   H11T14913   3.016   5.917   7.914  0.2097 -0.4027  0.0355
  137OSM   C12S14914   2.993   5.739   8.025  0.6321 -0.6335 -0.1932
  137OSM   H12S14915   3.097   5.728   8.062  1.5773  3.9594 -1.2659
  137OSM   H12T14916   2.950   5.636   8.019 -0.8972  0.0452 -1.0582
  137OSM   C13S14917   2.918   5.822   8.130  0.1468  0.0662  0.4679
  137OSM   H13S14918   2.818   5.857   8.094  0.2934  1.0025  0.9657
  137OSM   H13T14919   2.984   5.911   8.142 -0.7428  0.6214  1.3294
  137OSM   C14S14920   2.884   5.740   8.254 -1.1480  0.0452 -0.9848
  137OSM   H14S14921   2.965   5.680   8.299 -2.7635 -1.2574  0.2803
  137OSM   H14T14922   2.811   5.664   8.219  0.7622 -0.9931 -2.7860
  137OSM   C15S14923   2.815   5.826   8.361  0.1613 -0.1750  0.6907
  137OSM   H15S14924   2.722   5.865   8.313  0.2708 -1.6263 -0.7153
  137OSM   H15T14925   2.873   5.915   8.395 -0.4277  0.4527  0.0713
  137OSM   C16S14926   2.779   5.742   8.483  0.9361 -0.4048 -1.0538
  137OSM   H16S14927   2.878   5.719   8.527  0.0763  0.2167  1.3085
  137OSM   H16T14928   2.735   5.644   8.453 -1.4575  1.0485 -2.4725
  137OSM   C17S14929   2.675   5.818   8.569  0.6066  0.5875 -0.2877
  137OSM   H17S14930   2.596   5.834   8.492 -2.6164 -1.4939  2.4351
  137OSM   H17T14931   2.719   5.914   8.603  0.2072  1.2933 -1.7067
  137OSM   C18S14932   2.626   5.729   8.686  0.0553 -0.4569  0.3866
  137OSM   H18S14933   2.588   5.633   8.645 -0.0366  0.0604 -0.7519
  137OSM   H18T14934   2.529   5.772   8.720  0.7720  1.7320 -0.2728
  137OSM   H18U14935   2.702   5.715   8.766  0.2957  1.0101  0.4330
  137OSM    C1F14936   3.509   6.231   7.070 -0.0548  0.7731  0.3811
  137OSM     OF14937   3.489   6.339   7.017  0.0358 -0.0907  0.3995
  137OSM    C2F14938   3.642   6.196   7.137 -0.3495 -0.0594 -0.3782
  137OSM    H2F14939   3.716   6.193   7.055  1.5108  0.4025  1.2383
  137OSM    H2G14940   3.636   6.098   7.189 -1.9380  0.6770  0.8783
  137OSM    C3F14941   3.689   6.308   7.237 -0.3111  0.2456  0.0037
  137OSM    H3F14942   3.715   6.404   7.187  3.4326 -1.6842 -2.0143
  137OSM    H3G14943   3.780   6.265   7.284 -1.5913 -2.5642  0.0399
  137OSM    C4F14944   3.587   6.319   7.353  0.7857 -0.5223  0.1179
  137OSM    H4F14945   3.578   6.224   7.410 -0.3492 -0.0381  0.7673
  137OSM    H4G14946   3.484   6.342   7.319 -0.2294 -1.9767  2.1027
  137OSM    C5F14947   3.640   6.417   7.458 -0.2423  0.8748  0.5804
  137OSM    H5F14948   3.555   6.466   7.511  0.2512 -0.9193  3.1012
  137OSM    H5G14949   3.693   6.499   7.406  0.9868 -1.3939 -1.8251
  137OSM    C6F14950   3.737   6.356   7.557 -0.1510  0.6039 -0.4679
  137OSM    H6F14951   3.835   6.345   7.506  0.9299  0.0135  1.7217
  137OSM    H6G14952   3.694   6.260   7.593 -0.4124  0.6449 -0.6684
  137OSM    C7F14953   3.754   6.449   7.681  0.1551  0.3465  0.3557
  137OSM    H7F14954   3.657   6.482   7.724  1.5452  3.0782  1.4822
  137OSM    H7G14955   3.812   6.535   7.642 -1.4084  0.8744 -0.8650
  137OSM    C8F14956   3.841   6.394   7.791  0.0181  0.5030 -0.2213
  137OSM    H8F14957   3.887   6.467   7.860 -0.2560 -0.7190  1.2633
  137OSM    H8G14958   3.936   6.357   7.746 -0.7098  0.2169 -1.5606
  137OSM    C9F14959   3.782   6.283   7.865 -0.4781 -0.7710  0.1957
  137OSM    H9F14960   3.786   6.189   7.809  0.5651 -1.6455  1.7058
  137OSM   C10F14961   3.713   6.279   7.981 -0.0136  0.5363  0.1393
  137OSM   H10F14962   3.677   6.185   8.024  0.3073  1.3116  2.1655
  137OSM   C11F14963   3.684   6.402   8.064 -0.0483 -0.3576 -0.4683
  137OSM   H11F14964   3.586   6.442   8.032 -0.0034 -0.5111 -0.7998
  137OSM   H11G14965   3.763   6.478   8.052  1.2476 -1.4248  1.0667
  137OSM   C12F14966   3.672   6.396   8.215 -0.1947  0.6397 -0.3433
  137OSM   H12F14967   3.656   6.497   8.259 -0.6039 -0.3590  1.8575
  137OSM   H12G14968   3.762   6.342   8.249 -1.4825 -1.4719 -0.2226
  137OSM   C13F14969   3.555   6.309   8.252  0.5045 -0.3515 -0.7693
  137OSM   H13F14970   3.556   6.210   8.200  2.4244 -0.6232 -0.2497
  137OSM   H13G14971   3.457   6.358   8.231 -0.7968 -1.7800  1.6499
  137OSM   C14F14972   3.568   6.275   8.405 -0.0991 -0.0454 -0.5159
  137OSM   H14F14973   3.468   6.267   8.453 -1.3098 -0.3955 -3.0523
  137OSM   H14G14974   3.617   6.363   8.452  0.2881 -1.1347  1.1937
  137OSM   C15F14975   3.659   6.154   8.429 -0.2713 -0.3157  0.7863
  137OSM   H15F14976   3.758   6.168   8.381 -1.0855 -2.5457 -1.6485
  137OSM   H15G14977   3.613   6.064   8.382  1.5958 -0.0548 -1.6214
  137OSM   C16F14978   3.662   6.132   8.577 -0.1043  0.0089  0.8349
  137OSM   H16F14979   3.645   6.218   8.645  0.5569 -0.9334  2.1973
  137OSM   H16G14980   3.756   6.085   8.614  0.6011  0.6325 -0.1297
  137OSM   C17F14981   3.551   6.035   8.619  0.6285  0.4327  0.2308
  137OSM   H17F14982   3.553   5.950   8.546  2.4323 -0.2719  1.0456
  137OSM   H17G14983   3.454   6.083   8.599  1.2225  1.4297 -0.2942
  137OSM   C18F14984   3.566   5.987   8.766 -0.0662 -0.1041  0.0129
  137OSM   H18F14985   3.664   5.942   8.792  0.0997 -0.8687 -1.9162
  137OSM   H18G14986   3.491   5.914   8.805  1.7564 -1.4044  1.1973
  137OSM   H18H14987   3.562   6.078   8.830 -1.1708  2.2590 -3.3348
  138OSM      N14988   3.763   1.174   5.743  0.0693 -0.1538 -0.2421
  138OSM    C1514989   3.797   1.125   5.603  0.0820 -0.3078  0.2622
  138OSM   H15A14990   3.753   1.198   5.536 -1.2315 -0.4374  0.9540
  138OSM   H15B14991   3.741   1.036   5.581  1.0012 -0.4936 -1.3400
  138OSM   H15C14992   3.902   1.116   5.583 -0.1076 -0.3061 -0.7651
  138OSM    C1414993   3.627   1.239   5.746  0.2767  0.3511  0.8282
  138OSM   H14A14994   3.560   1.170   5.696  1.5796  0.3310 -0.9243
  138OSM   H14B14995   3.630   1.332   5.690  0.2815  0.0669  0.3579
  138OSM   H14C14996   3.589   1.249   5.847 -1.3947 -2.7382  0.5510
  138OSM    C1314997   3.771   1.064   5.838  0.1931  0.0778  0.1310
  138OSM   H13A14998   3.742   1.093   5.938  1.8002 -1.1978  1.0040
  138OSM   H13B14999   3.867   1.016   5.832 -0.2200 -0.4708 -2.7746
  138OSM   H13C15000   3.702   0.985   5.812 -1.0463  1.0515  0.4298
  138OSM    C1215001   3.859   1.282   5.793  0.3051 -0.2708 -0.7530
  138OSM   H12A15002   3.862   1.364   5.722 -0.0938  1.2794  0.9971
  138OSM   H12B15003   3.956   1.235   5.784 -0.1357 -1.5865  1.1598
  138OSM    C1115004   3.846   1.341   5.941  0.2233 -0.3823 -0.5368
  138OSM   H11A15005   3.761   1.412   5.943  1.3688  1.0290 -1.1153
  138OSM   H11B15006   3.934   1.407   5.961 -0.0335 -0.3902  0.6675
  138OSM      P15007   3.946   1.184   6.131  0.0896  0.1929  0.0537
  138OSM    O1315008   3.911   1.052   6.192  0.1619 -0.4251 -0.5393
  138OSM    O1415009   4.069   1.189   6.045 -0.1417 -0.1471 -0.3616
  138OSM    O1115010   3.950   1.289   6.254 -0.6004  0.1209  0.6766
  138OSM    O1215011   3.828   1.242   6.047  0.1121 -0.5919  0.5030
  138OSM    C1S15012   3.855   1.260   6.360 -0.2887  0.8432  0.0925
  138OSM    H1S15013   3.898   1.181   6.425 -0.7539  1.9797  1.8376
  138OSM    H1T15014   3.749   1.233   6.343 -0.8218  1.6195  1.9980
  138OSM     NF15015   3.783   1.351   6.596 -0.5518  0.2308 -0.1411
  138OSM    HNF15016   3.687   1.377   6.594 -0.3603  0.9144 -0.3553
  138OSM    C2S15017   3.854   1.380   6.469 -0.3182  0.0313  0.2230
  138OSM    H2S15018   3.959   1.411   6.487  0.2536  0.5777 -3.7073
  138OSM    C3S15019   3.793   1.512   6.402  0.2777 -0.3459  0.3653
  138OSM    H3S15020   3.682   1.509   6.405  0.2848 -0.3454  0.6268
  138OSM     O315021   3.831   1.537   6.266  0.6511 -0.0244  0.0795
  138OSM    HO315022   3.880   1.458   6.243  0.1453 -0.9238  1.9718
  138OSM    C4S15023   3.838   1.638   6.469  0.4696 -0.1633  0.7889
  138OSM    H4S15024   3.944   1.668   6.472  0.6662 -0.7703  0.0833
  138OSM    C5S15025   3.765   1.723   6.539  0.5163 -0.2745  0.7971
  138OSM    H5S15026   3.661   1.698   6.563 -0.0924  0.7552 -0.6370
  138OSM    C6S15027   3.815   1.850   6.608  0.2876  0.3180  0.2555
  138OSM    H6S15028   3.750   1.939   6.590 -0.1443 -0.1621 -0.5937
  138OSM    H6T15029   3.911   1.882   6.561  1.2181 -0.7525  1.3938
  138OSM    C7S15030   3.834   1.843   6.760 -0.4734 -0.2511  0.0943
  138OSM    H7S15031   3.880   1.938   6.795  0.6673  0.0289 -2.0740
  138OSM    H7T15032   3.913   1.768   6.782 -1.7107 -1.0712  1.9101
  138OSM    C8S15033   3.697   1.814   6.832  0.9619  0.2873  0.3225
  138OSM    H8S15034   3.632   1.756   6.764 -0.0624  0.9603  0.7198
  138OSM    H8T15035   3.647   1.911   6.848 -1.2093 -0.7291 -0.1639
  138OSM    C9S15036   3.721   1.746   6.969 -0.3680 -0.6888  0.0439
  138OSM    H9S15037   3.776   1.652   6.949  1.0518 -0.0139  0.6925
  138OSM    H9T15038   3.622   1.715   7.009 -0.5611 -2.7107 -1.9156
  138OSM   C10S15039   3.788   1.843   7.068 -0.1406 -0.3362 -0.7367
  138OSM   H10S15040   3.727   1.933   7.089  0.3647  0.0586 -0.9491
  138OSM   H10T15041   3.885   1.883   7.032 -0.7665  0.3897 -1.6538
  138OSM   C11S15042   3.815   1.762   7.201 -0.4206 -0.3912 -0.2737
  138OSM   H11S15043   3.896   1.690   7.180  0.0153  0.2527 -0.8024
  138OSM   H11T15044   3.727   1.699   7.228 -0.3522 -0.0848  0.7016
  138OSM   C12S15045   3.859   1.856   7.314 -0.1879 -0.0036  1.0682
  138OSM   H12S15046   3.809   1.955   7.318  1.0267  0.6506  0.5154
  138OSM   H12T15047   3.968   1.872   7.296 -0.4446 -0.5893 -1.0873
  138OSM   C13S15048   3.853   1.800   7.460  0.0040 -0.3051  0.1404
  138OSM   H13S15049   3.935   1.728   7.476  1.9836  1.3615 -2.0754
  138OSM   H13T15050   3.750   1.759   7.468 -1.1489  2.3392 -0.4836
  138OSM   C14S15051   3.859   1.920   7.560 -0.4584 -0.8894 -0.2538
  138OSM   H14S15052   3.764   1.977   7.549  0.5996  1.0175  0.3407
  138OSM   H14T15053   3.945   1.983   7.529 -1.6028  0.2782 -1.1062
  138OSM   C15S15054   3.867   1.872   7.709 -0.7029 -1.8244 -0.5959
  138OSM   H15S15055   3.975   1.848   7.721  0.3616  3.2735  1.3274
  138OSM   H15T15056   3.789   1.792   7.711 -2.9610  0.3501  0.9459
  138OSM   C16S15057   3.841   1.994   7.801 -0.3566 -0.0295  0.0330
  138OSM   H16S15058   3.739   2.032   7.779 -0.2680  0.5866  0.6464
  138OSM   H16T15059   3.915   2.069   7.765  0.0261 -0.4861 -0.1377
  138OSM   C17S15060   3.866   1.972   7.951  0.1461  0.0592  0.0563
  138OSM   H17S15061   3.842   2.070   7.996  3.0088  0.6036  0.4962
  138OSM   H17T15062   3.975   1.960   7.970 -0.0523  0.6979  1.6176
  138OSM   C18S15063   3.773   1.863   8.002 -0.8058  0.0244  0.1179
  138OSM   H18S15064   3.814   1.760   7.994  1.8987  1.1568 -0.9464
  138OSM   H18T15065   3.675   1.878   7.952 -1.2027  0.5662  1.0380
  138OSM   H18U15066   3.766   1.860   8.113 -2.4678 -1.1097  0.0057
  138OSM    C1F15067   3.846   1.276   6.686 -0.3971 -0.3819 -0.2909
  138OSM     OF15068   3.965   1.272   6.675 -0.2886 -0.0339 -0.6113
  138OSM    C2F15069   3.775   1.203   6.784 -0.2856  0.2433 -0.3354
  138OSM    H2F15070   3.693   1.151   6.731 -0.8847  0.9367 -0.0905
  138OSM    H2G15071   3.735   1.275   6.859 -1.7543 -1.0228  0.1118
  138OSM    C3F15072   3.864   1.097   6.859 -0.5352 -0.0391 -0.4111
  138OSM    H3F15073   3.943   1.146   6.920 -0.5801 -0.7151  0.1862
  138OSM    H3G15074   3.914   1.035   6.782 -0.2962  1.3830 -1.4343
  138OSM    C4F15075   3.792   0.992   6.940  0.6175  0.3424 -0.4303
  138OSM    H4F15076   3.868   0.920   6.978 -0.8689 -0.0500  1.8828
  138OSM    H4G15077   3.720   0.928   6.885  1.8189 -1.4452  0.0347
  138OSM    C5F15078   3.728   1.050   7.065 -0.8519  0.8005 -0.6101
  138OSM    H5F15079   3.645   0.986   7.101 -0.9126  1.2883  0.1069
  138OSM    H5G15080   3.687   1.148   7.033 -0.2011  1.4047  0.3696
  138OSM    C6F15081   3.828   1.075   7.176  0.0071 -0.1710 -0.1750
  138OSM    H6F15082   3.897   1.160   7.155  1.6641 -0.8475  2.3415
  138OSM    H6G15083   3.893   0.987   7.193  1.4787  0.7253 -1.0683
  138OSM    C7F15084   3.757   1.107   7.308 -0.1278 -0.2342  0.9280
  138OSM    H7F15085   3.682   1.029   7.334 -0.7108  0.0411  0.1007
  138OSM    H7G15086   3.695   1.199   7.295 -0.8455 -0.6808  1.1863
  138OSM    C8F15087   3.859   1.125   7.425  0.1087  0.7241 -0.2938
  138OSM    H8F15088   3.951   1.175   7.388  0.1777  0.3119 -0.6882
  138OSM    H8G15089   3.893   1.020   7.437  3.6518  1.8749  0.2098
  138OSM    C9F15090   3.791   1.191   7.541  0.0232  0.3421 -0.0631
  138OSM    H9F15091   3.692   1.153   7.568  0.2365 -1.3064 -1.5248
  138OSM   C10F15092   3.847   1.291   7.612  0.4932  0.1583  0.1887
  138OSM   H10F15093   3.783   1.341   7.687  0.1572 -1.6345  1.1293
  138OSM   C11F15094   3.976   1.363   7.588 -0.3245  0.0903  0.7031
  138OSM   H11F15095   3.975   1.402   7.484 -1.2085 -2.9109 -0.4913
  138OSM   H11G15096   4.060   1.290   7.584  0.8782  1.4659  0.5428
  138OSM   C12F15097   4.018   1.474   7.678  0.5200  0.3612  0.1037
  138OSM   H12F15098   3.948   1.558   7.663 -0.3708 -0.5068 -0.7143
  138OSM   H12G15099   4.117   1.507   7.639 -0.3478  1.8122 -0.8988
  138OSM   C13F15100   4.030   1.444   7.830 -1.2399  0.7347  0.7074
  138OSM   H13F15101   4.105   1.363   7.846 -1.7712  0.0678 -0.1331
  138OSM   H13G15102   3.931   1.410   7.865 -1.0859 -1.2778 -0.6819
  138OSM   C14F15103   4.058   1.567   7.911 -0.7408 -0.1185  0.0061
  138OSM   H14F15104   3.975   1.637   7.889 -1.3269  0.2378  3.1819
  138OSM   H14G15105   4.157   1.603   7.875 -0.2591 -1.3587  0.0339
  138OSM   C15F15106   4.062   1.542   8.059  0.0465  0.4815  0.4078
  138OSM   H15F15107   4.143   1.473   8.092  0.8327  1.4989  0.6122
  138OSM   H15G15108   3.968   1.495   8.095  1.4095 -1.5481  1.4527
  138OSM   C16F15109   4.080   1.672   8.148  0.0955 -0.0970  0.2091
  138OSM   H16F15110   3.987   1.730   8.165 -0.1374  0.1785 -1.9405
  138OSM   H16G15111   4.159   1.734   8.102 -0.3090  0.1122 -0.2089
  138OSM   C17F15112   4.131   1.631   8.291  0.2627 -0.4468  0.6499
  138OSM   H17F15113   4.135   1.728   8.344 -1.0658 -0.0495  0.0487
  138OSM   H17G15114   4.237   1.601   8.276  0.5735  0.8547  0.1481
  138OSM   C18F15115   4.035   1.540   8.362  0.8023  0.2514  0.3677
  138OSM   H18F15116   4.073   1.515   8.463 -1.1332 -1.0144  0.8019
  138OSM   H18G15117   4.034   1.442   8.311  3.1718 -0.3652  1.4406
  138OSM   H18H15118   3.929   1.571   8.370  1.9094  3.7313  3.2117
  139OSM      N15119   3.404   2.088   6.045 -0.2353  0.0494 -0.0550
  139OSM    C1515120   3.494   2.174   6.137 -0.7402  0.1279 -0.1457
  139OSM   H15A15121   3.541   2.114   6.213 -0.8921 -2.4082 -1.9916
  139OSM   H15B15122   3.431   2.252   6.179 -0.5358 -1.1762  2.7288
  139OSM   H15C15123   3.569   2.209   6.068 -0.1212 -3.1260 -1.1990
  139OSM    C1415124   3.492   1.999   5.959  0.6092 -0.8154 -0.3427
  139OSM   H14A15125   3.530   1.918   6.019 -1.5423 -1.4636  0.2036
  139OSM   H14B15126   3.570   2.058   5.914 -1.2158  1.6911 -0.3031
  139OSM   H14C15127   3.441   1.968   5.869 -0.1665 -1.8710  0.4357
  139OSM    C1315128   3.319   2.009   6.143  0.8033  0.1128 -0.2061
  139OSM   H13A15129   3.249   1.937   6.102 -0.1570 -0.9278  3.1216
  139OSM   H13B15130   3.259   2.085   6.192 -0.5744 -0.1916 -1.3704
  139OSM   H13C15131   3.384   1.957   6.211 -0.8162 -0.5691  0.8547
  139OSM    C1215132   3.325   2.186   5.956 -0.2853  0.6376 -0.1476
  139OSM   H12A15133   3.260   2.122   5.898 -1.8777 -0.0247  2.2571
  139OSM   H12B15134   3.385   2.240   5.885 -4.1738  2.2040 -2.3962
  139OSM    C1115135   3.239   2.301   6.019 -0.0673  0.3426 -0.8370
  139OSM   H11A15136   3.181   2.357   5.942 -1.0901 -0.3909 -0.6205
  139OSM   H11B15137   3.308   2.368   6.075 -0.2319 -1.1636  1.2475
  139OSM      P15138   3.015   2.183   6.067 -0.2232  0.0506 -0.2521
  139OSM    O1315139   2.912   2.283   6.103  0.0771 -0.5306  0.1268
  139OSM    O1415140   3.028   2.144   5.927  0.5155  0.1255 -0.1516
  139OSM    O1115141   2.994   2.054   6.159 -0.2811 -0.4683 -0.2721
  139OSM    O1215142   3.149   2.235   6.114  0.1176  0.2056 -0.4925
  139OSM    C1S15143   3.026   2.048   6.300 -0.5991  0.0532  0.1955
  139OSM    H1S15144   3.099   2.125   6.334  1.3427 -1.9198  0.6687
  139OSM    H1T15145   3.070   1.952   6.334 -0.3478  0.1160  0.0508
  139OSM     NF15146   2.928   2.094   6.532 -0.5527 -0.0236 -0.2497
  139OSM    HNF15147   2.936   2.025   6.604 -0.6480  1.1878  0.9240
  139OSM    C2S15148   2.898   2.040   6.392 -0.4417  0.2380 -0.5039
  139OSM    H2S15149   2.825   2.116   6.357 -0.7344 -0.0905 -0.6094
  139OSM    C3S15150   2.841   1.896   6.373  0.0774  0.0542  0.3932
  139OSM    H3S15151   2.916   1.821   6.405 -0.9881 -0.3875  1.9375
  139OSM     O315152   2.802   1.852   6.244 -0.6378  0.2307 -0.2530
  139OSM    HO315153   2.840   1.921   6.189  0.6611  0.6765  1.1760
  139OSM    C4S15154   2.720   1.884   6.467 -0.0941 -0.5548 -0.8507
  139OSM    H4S15155   2.746   1.803   6.536 -0.2497 -0.2161 -0.3857
  139OSM    C5S15156   2.600   1.930   6.468 -0.3123 -0.8656  0.2458
  139OSM    H5S15157   2.574   2.000   6.388  1.4044 -0.6168 -0.1269
  139OSM    C6S15158   2.495   1.899   6.575  0.8775  0.0565  1.0829
  139OSM    H6S15159   2.530   1.833   6.658  0.1831 -2.7399 -0.7890
  139OSM    H6T15160   2.413   1.843   6.525  0.2184  1.3506  0.7069
  139OSM    C7S15161   2.446   2.033   6.633 -0.1683 -0.3416  0.1143
  139OSM    H7S15162   2.391   2.081   6.550 -0.0202  0.1542  0.3047
  139OSM    H7T15163   2.538   2.088   6.664  0.9510 -2.2979  0.3479
  139OSM    C8S15164   2.357   2.013   6.753 -0.0114 -0.7140 -0.1940
  139OSM    H8S15165   2.273   1.953   6.711  1.2237 -2.4517 -0.2250
  139OSM    H8T15166   2.310   2.111   6.775  2.1808  0.2575  0.2605
  139OSM    C9S15167   2.418   1.959   6.880 -0.2799  0.2376  0.4040
  139OSM    H9S15168   2.507   2.020   6.908 -0.7902 -0.5628  3.9174
  139OSM    H9T15169   2.462   1.860   6.855 -0.0363  0.3869  0.2365
  139OSM   C10S15170   2.316   1.950   6.998 -0.1743  0.1438 -0.4245
  139OSM   H10S15171   2.249   1.863   6.985 -1.3548  1.4832 -3.6260
  139OSM   H10T15172   2.252   2.041   6.996  0.8563  0.9263  0.9032
  139OSM   C11S15173   2.378   1.951   7.140  0.1037 -0.2581 -0.0725
  139OSM   H11S15174   2.455   2.030   7.149 -0.1116 -0.3092  2.6039
  139OSM   H11T15175   2.423   1.850   7.156  0.6408  0.1767  1.2137
  139OSM   C12S15176   2.271   1.972   7.247  1.1041  0.4231 -0.1441
  139OSM   H12S15177   2.185   1.905   7.224 -0.0505  1.8840 -0.1627
  139OSM   H12T15178   2.222   2.072   7.240  0.0260  0.0559  1.6827
  139OSM   C13S15179   2.340   1.955   7.387 -0.4131 -0.3763  0.2533
  139OSM   H13S15180   2.443   1.994   7.370  0.3495 -2.0661  0.8781
  139OSM   H13T15181   2.352   1.851   7.425  1.7047  0.4322  1.9092
  139OSM   C14S15182   2.272   2.046   7.493  0.9267  0.1790  0.6973
  139OSM   H14S15183   2.165   2.021   7.481  1.4131 -1.5768 -0.2317
  139OSM   H14T15184   2.279   2.153   7.466 -0.1813 -0.3661 -1.8002
  139OSM   C15S15185   2.321   2.024   7.639 -0.1748  0.3545 -0.0798
  139OSM   H15S15186   2.340   1.915   7.654  2.1072  0.6710 -0.3785
  139OSM   H15T15187   2.250   2.054   7.719  1.4551 -1.8137  2.2845
  139OSM   C16S15188   2.452   2.097   7.678 -0.0443  0.2676  0.1550
  139OSM   H16S15189   2.444   2.203   7.648  1.6582  0.0407 -1.1588
  139OSM   H16T15190   2.524   2.051   7.607  0.1187 -0.1107  0.5547
  139OSM   C17S15191   2.490   2.071   7.827 -0.0380 -0.7182 -0.1323
  139OSM   H17S15192   2.460   1.967   7.853 -2.1809 -0.4198 -1.3488
  139OSM   H17T15193   2.433   2.147   7.885  1.4185 -0.4975  1.0657
  139OSM   C18S15194   2.644   2.088   7.851  0.3564 -0.8417  0.6037
  139OSM   H18S15195   2.668   2.098   7.959  0.1880  0.2897  0.5475
  139OSM   H18T15196   2.678   2.187   7.813  1.6122 -0.9381  1.4450
  139OSM   H18U15197   2.701   2.015   7.790 -0.2857 -1.3478  0.6124
  139OSM    C1F15198   2.943   2.213   6.561 -0.0518 -0.2061  0.3532
  139OSM     OF15199   2.927   2.298   6.472 -0.3035 -0.1783  0.1633
  139OSM    C2F15200   2.965   2.237   6.711 -0.2108  0.7858 -0.3237
  139OSM    H2F15201   3.008   2.339   6.715 -0.0950  0.6807  1.7473
  139OSM    H2G15202   3.034   2.159   6.751  0.2256  0.5309 -1.5555
  139OSM    C3F15203   2.835   2.230   6.798 -0.5989  0.0246 -0.0291
  139OSM    H3F15204   2.811   2.125   6.823 -1.9725  0.3933  0.2063
  139OSM    H3G15205   2.750   2.278   6.744 -0.9215  0.2046  0.6349
  139OSM    C4F15206   2.842   2.294   6.936 -0.0288 -0.4535 -0.5974
  139OSM    H4F15207   2.844   2.404   6.923  2.3941 -0.1844  1.7094
  139OSM    H4G15208   2.938   2.261   6.981  0.5640  2.3160  0.2491
  139OSM    C5F15209   2.729   2.243   7.020  0.5333 -0.0745  0.7813
  139OSM    H5F15210   2.714   2.134   7.005 -1.0484  0.1430  0.7099
  139OSM    H5G15211   2.635   2.294   6.990  0.1447 -1.6846 -0.8228
  139OSM    C6F15212   2.752   2.263   7.169 -0.7563  0.5727 -0.0057
  139OSM    H6F15213   2.846   2.211   7.198 -0.9348 -0.4815 -1.2200
  139OSM    H6G15214   2.671   2.214   7.227  1.2717  0.3661  2.6934
  139OSM    C7F15215   2.766   2.410   7.203  0.3175 -0.4790  0.2516
  139OSM    H7F15216   2.678   2.459   7.156  1.5495  0.4979 -1.0988
  139OSM    H7G15217   2.859   2.446   7.154 -1.0193  0.4151 -1.6907
  139OSM    C8F15218   2.758   2.448   7.356  0.2410  0.5868 -0.0555
  139OSM    H8F15219   2.667   2.408   7.403  0.3191  0.6555  0.1538
  139OSM    H8G15220   2.757   2.559   7.350 -0.0569  0.6621  1.3447
  139OSM    C9F15221   2.879   2.406   7.434  0.3274 -0.1898  0.1535
  139OSM    H9F15222   2.891   2.297   7.438  1.5874 -0.0090  1.2765
  139OSM   C10F15223   2.976   2.480   7.491  0.0515 -0.1000 -0.3553
  139OSM   H10F15224   3.048   2.425   7.554 -0.8164 -0.3466  0.4159
  139OSM   C11F15225   3.010   2.628   7.491  0.3184 -0.0142 -0.4940
  139OSM   H11F15226   2.980   2.674   7.394 -2.8113 -1.5093 -0.3138
  139OSM   H11G15227   3.118   2.648   7.508  0.1909 -1.0466  1.6802
  139OSM   C12F15228   2.946   2.708   7.598 -0.3583 -0.0627  0.2185
  139OSM   H12F15229   2.836   2.713   7.581 -0.4429  2.5702  1.2138
  139OSM   H12G15230   2.978   2.815   7.599  1.3404 -0.5605 -0.1999
  139OSM   C13F15231   2.969   2.676   7.755  0.2642  0.3227 -0.3713
  139OSM   H13F15232   2.943   2.568   7.762  1.0322 -0.1863 -4.3284
  139OSM   H13G15233   2.892   2.728   7.816  0.2151 -1.2063  0.9136
  139OSM   C14F15234   3.117   2.704   7.806  0.2599 -0.1935 -0.4283
  139OSM   H14F15235   3.129   2.814   7.818 -1.0909  0.0715 -1.4189
  139OSM   H14G15236   3.188   2.657   7.734  0.7697 -2.3898  1.4394
  139OSM   C15F15237   3.140   2.652   7.951  0.4783 -0.0102 -0.5789
  139OSM   H15F15238   3.051   2.672   8.015  2.2292 -1.0742  2.2955
  139OSM   H15G15239   3.228   2.708   7.989  0.0701  0.8094 -0.8297
  139OSM   C16F15240   3.148   2.501   7.964 -0.6110 -0.4276 -0.4768
  139OSM   H16F15241   3.211   2.474   7.877  1.0957 -0.5795  0.7834
  139OSM   H16G15242   3.056   2.443   7.940  0.4636 -2.8833  1.1368
  139OSM   C17F15243   3.218   2.447   8.091  0.4046  0.1924  0.3948
  139OSM   H17F15244   3.320   2.484   8.117  0.6402 -0.2255  0.0750
  139OSM   H17G15245   3.227   2.338   8.072  0.0361  0.3349 -0.6368
  139OSM   C18F15246   3.125   2.444   8.209  0.2432  0.6967 -0.0719
  139OSM   H18F15247   3.023   2.422   8.172  1.1610 -1.2237 -1.5591
  139OSM   H18G15248   3.125   2.543   8.260 -0.0409  1.6866 -1.9447
  139OSM   H18H15249   3.156   2.369   8.285  0.7295  1.0954  0.1258
  140OSM      N15250   2.826   4.401   5.983 -0.6348 -0.6792  0.1940
  140OSM    C1515251   2.902   4.515   6.039 -0.6590 -0.3615  0.1236
  140OSM   H15A15252   2.992   4.476   6.083 -0.3957 -0.8905 -0.8605
  140OSM   H15B15253   2.849   4.561   6.121 -0.8043 -0.2784 -0.0142
  140OSM   H15C15254   2.936   4.580   5.960 -1.1222 -1.2142 -0.7977
  140OSM    C1415255   2.716   4.448   5.890  0.4004 -0.2512  0.0317
  140OSM   H14A15256   2.651   4.521   5.937  0.0376  0.7506 -1.9912
  140OSM   H14B15257   2.656   4.369   5.848  0.2468  0.8850 -1.9359
  140OSM   H14C15258   2.759   4.501   5.806  0.3163  0.9819  0.7551
  140OSM    C1315259   2.929   4.327   5.898 -0.4507 -0.5276 -0.2056
  140OSM   H13A15260   2.877   4.249   5.845 -1.2380  0.0874 -0.3576
  140OSM   H13B15261   3.014   4.287   5.950 -0.4342  0.0886  0.2546
  140OSM   H13C15262   2.978   4.396   5.830 -1.8439  2.4896  1.7338
  140OSM    C1215263   2.777   4.306   6.089 -0.0310  0.4594 -0.1624
  140OSM   H12A15264   2.746   4.212   6.047  0.3398  0.0346  0.5043
  140OSM   H12B15265   2.690   4.342   6.142 -1.4113 -0.0790 -2.0239
  140OSM    C1115266   2.877   4.270   6.203 -0.1829  1.1088 -0.3512
  140OSM   H11A15267   2.973   4.233   6.161 -0.6731 -2.1570  1.2435
  140OSM   H11B15268   2.845   4.181   6.263  1.9098 -0.3761 -1.3698
  140OSM      P15269   2.785   4.419   6.390  0.4105  0.1091  0.0077
  140OSM    O1315270   2.831   4.494   6.504  0.2738 -0.4054 -0.0658
  140OSM    O1415271   2.672   4.486   6.317 -0.1950  0.1382 -0.0016
  140OSM    O1115272   2.727   4.283   6.451 -0.7801  0.1240  0.1529
  140OSM    O1215273   2.900   4.380   6.293 -0.3811 -0.2992 -0.0538
  140OSM    C1S15274   2.802   4.195   6.536  0.4092  0.1333 -0.0588
  140OSM    H1S15275   2.912   4.200   6.527  0.4513 -0.2283  0.2535
  140OSM    H1T15276   2.772   4.089   6.527 -1.4628  0.4327  2.0439
  140OSM     NF15277   2.860   4.136   6.756 -0.3231  0.8069 -0.3493
  140OSM    HNF15278   2.835   4.041   6.770 -0.5948  0.8106 -0.8222
  140OSM    C2S15279   2.770   4.223   6.680  0.1899 -0.7894 -0.4424
  140OSM    H2S15280   2.792   4.329   6.703 -0.7820 -0.2263 -2.0678
  140OSM    C3S15281   2.616   4.202   6.712 -0.3359  0.0990 -0.1029
  140OSM    H3S15282   2.593   4.096   6.687 -0.5202  0.1785 -0.2777
  140OSM     O315283   2.532   4.284   6.624 -0.1407 -0.0905 -0.1720
  140OSM    HO315284   2.596   4.294   6.554 -1.4808  0.5706 -1.3194
  140OSM    C4S15285   2.583   4.231   6.856  0.8470 -0.5764  0.4070
  140OSM    H4S15286   2.618   4.324   6.903 -0.9052  1.1299 -1.5630
  140OSM    C5S15287   2.508   4.149   6.932  0.0644  0.0681 -0.6885
  140OSM    H5S15288   2.491   4.044   6.902 -0.7696 -0.4422  1.4203
  140OSM    C6S15289   2.474   4.179   7.079  0.1988  0.0420 -0.1515
  140OSM    H6S15290   2.368   4.153   7.103 -0.1364  1.4299 -0.0471
  140OSM    H6T15291   2.481   4.288   7.099  2.4948 -0.0478 -0.3967
  140OSM    C7S15292   2.563   4.100   7.179 -0.0393 -0.2409 -0.5628
  140OSM    H7S15293   2.666   4.142   7.180 -1.4998  3.5439  0.4541
  140OSM    H7T15294   2.577   3.995   7.145 -2.1871 -0.9023  0.5549
  140OSM    C8S15295   2.498   4.095   7.311 -0.5253 -0.2022 -0.3782
  140OSM    H8S15296   2.401   4.042   7.316 -0.3028 -0.4276  1.9997
  140OSM    H8T15297   2.470   4.200   7.334 -0.7157  0.0663 -1.8299
  140OSM    C9S15298   2.600   4.053   7.422  0.3114  0.3503  0.4658
  140OSM    H9S15299   2.560   4.077   7.523 -0.5221  0.0915  0.1990
  140OSM    H9T15300   2.689   4.119   7.411  0.3762 -0.0973 -1.8622
  140OSM   C10S15301   2.643   3.907   7.414 -1.0995 -0.2803  0.0637
  140OSM   H10S15302   2.709   3.883   7.328 -0.9861 -2.0110  0.6138
  140OSM   H10T15303   2.548   3.850   7.402 -2.3779  1.5810  1.1261
  140OSM   C11S15304   2.720   3.866   7.534  0.7199  0.1452 -0.3971
  140OSM   H11S15305   2.789   3.941   7.578 -0.7354  1.6516 -0.6651
  140OSM   H11T15306   2.780   3.778   7.502  1.6193 -0.3885  2.6023
  140OSM   C12S15307   2.635   3.827   7.655  0.2186  0.4708 -0.4513
  140OSM   H12S15308   2.551   3.765   7.618 -0.1544  0.8118 -0.1901
  140OSM   H12T15309   2.605   3.926   7.696 -1.2305  0.2316 -0.9171
  140OSM   C13S15310   2.714   3.749   7.761  0.8246  0.2848  0.1143
  140OSM   H13S15311   2.805   3.807   7.789 -0.2971  0.0923  4.5686
  140OSM   H13T15312   2.749   3.652   7.718 -0.2029 -1.0165  2.1353
  140OSM   C14S15313   2.631   3.722   7.887 -0.2003  0.1273  0.6416
  140OSM   H14S15314   2.545   3.663   7.846 -0.3958  0.3181  0.7751
  140OSM   H14T15315   2.597   3.824   7.914 -1.3201 -0.1794  0.4465
  140OSM   C15S15316   2.698   3.669   8.009  0.1698 -0.0955 -0.0945
  140OSM   H15S15317   2.791   3.726   8.032 -0.6726  0.4366  2.1156
  140OSM   H15T15318   2.724   3.564   7.985 -1.4174 -0.7482  0.9447
  140OSM   C16S15319   2.597   3.676   8.133  0.1425 -0.4835  0.6446
  140OSM   H16S15320   2.559   3.773   8.171 -1.7791 -1.1481  0.5027
  140OSM   H16T15321   2.656   3.642   8.221  0.6936  0.0609  0.4829
  140OSM   C17S15322   2.470   3.598   8.118 -0.0073  0.2723 -0.3430
  140OSM   H17S15323   2.482   3.490   8.094 -2.9749  0.5035 -3.1899
  140OSM   H17T15324   2.418   3.640   8.029 -0.5792 -1.6449 -0.9438
  140OSM   C18S15325   2.372   3.602   8.237 -0.2194  0.4687  0.6886
  140OSM   H18S15326   2.314   3.696   8.235  1.6327  1.6141  0.3482
  140OSM   H18T15327   2.408   3.577   8.339  1.0014  1.0667  0.4059
  140OSM   H18U15328   2.289   3.531   8.216  1.3760 -1.6577  1.2663
  140OSM    C1F15329   2.984   4.176   6.787  0.0578  0.1817  0.4680
  140OSM     OF15330   3.039   4.262   6.721  0.7511  0.1754 -0.1952
  140OSM    C2F15331   3.048   4.112   6.909  0.4439 -0.4093 -0.6742
  140OSM    H2F15332   3.047   4.001   6.900 -2.2044 -0.4284 -0.6506
  140OSM    H2G15333   2.989   4.147   6.996  0.1082  1.6780 -1.6951
  140OSM    C3F15334   3.194   4.171   6.925 -0.2862 -0.1927  0.0081
  140OSM    H3F15335   3.201   4.280   6.903 -0.3594 -0.3010 -0.5656
  140OSM    H3G15336   3.252   4.133   6.838  1.2632  0.7577  0.6091
  140OSM    C4F15337   3.268   4.128   7.049  0.2345  1.1118 -0.1766
  140OSM    H4F15338   3.360   4.188   7.032  1.9658 -1.6665 -0.8294
  140OSM    H4G15339   3.293   4.020   7.041 -0.7250  0.8147  0.6774
  140OSM    C5F15340   3.200   4.156   7.183  0.5517  0.1661 -0.1213
  140OSM    H5F15341   3.105   4.099   7.191 -0.2735  1.2969 -1.5076
  140OSM    H5G15342   3.162   4.261   7.186  1.8746  0.7021 -1.2384
  140OSM    C6F15343   3.312   4.145   7.290 -0.5565 -0.2582  0.1856
  140OSM    H6F15344   3.394   4.219   7.278  0.4111 -1.4660 -0.8590
  140OSM    H6G15345   3.354   4.043   7.301  0.9891  0.3877  0.3932
  140OSM    C7F15346   3.238   4.156   7.426  0.1679  0.2755  0.5514
  140OSM    H7F15347   3.160   4.076   7.436  1.1089 -0.7652 -0.3273
  140OSM    H7G15348   3.179   4.250   7.429  2.6040  1.8422 -0.0324
  140OSM    C8F15349   3.330   4.143   7.545 -0.1180 -0.2149  0.1955
  140OSM    H8F15350   3.395   4.232   7.526  0.7695 -1.3170 -2.0772
  140OSM    H8G15351   3.392   4.052   7.533  0.7476  0.4411 -0.3979
  140OSM    C9F15352   3.277   4.153   7.679  0.0544 -0.6870 -0.5907
  140OSM    H9F15353   3.261   4.254   7.719  1.0092 -1.2630  1.2960
  140OSM   C10F15354   3.239   4.052   7.758  0.0107 -0.1227  0.2937
  140OSM   H10F15355   3.190   4.077   7.853 -4.7119 -2.2556 -1.4258
  140OSM   C11F15356   3.238   3.903   7.730 -0.0312 -0.2031  0.0947
  140OSM   H11F15357   3.197   3.878   7.630 -3.2222 -0.9498  1.5143
  140OSM   H11G15358   3.191   3.846   7.814 -0.5380 -0.0931 -0.1178
  140OSM   C12F15359   3.390   3.868   7.739 -0.5022 -0.1042 -0.1227
  140OSM   H12F15360   3.455   3.950   7.701 -0.0168  0.1969  1.3484
  140OSM   H12G15361   3.411   3.769   7.692 -0.0810 -1.4150  2.7382
  140OSM   C13F15362   3.444   3.855   7.885  0.6550 -0.0485  0.7110
  140OSM   H13F15363   3.422   3.748   7.906  1.2509 -0.7467 -1.9809
  140OSM   H13G15364   3.380   3.916   7.951 -0.1447 -1.2835  1.0798
  140OSM   C14F15365   3.593   3.877   7.893  0.2187  0.0468 -0.4109
  140OSM   H14F15366   3.618   3.986   7.889 -1.3059  0.3576 -1.9757
  140OSM   H14G15367   3.637   3.842   7.797  1.1847  1.5843 -0.5472
  140OSM   C15F15368   3.654   3.811   8.014  0.8295 -0.2883 -0.2159
  140OSM   H15F15369   3.763   3.835   8.013  1.2866 -2.1366  1.4576
  140OSM   H15G15370   3.643   3.704   7.989  1.5589 -0.2597 -0.6801
  140OSM   C16F15371   3.615   3.843   8.155 -0.0737 -0.6004  0.3745
  140OSM   H16F15372   3.508   3.817   8.171 -0.0803 -0.0075  1.3402
  140OSM   H16G15373   3.611   3.952   8.174  3.0910 -0.6125  1.3946
  140OSM   C17F15374   3.696   3.768   8.264 -0.2781 -0.3244 -0.0707
  140OSM   H17F15375   3.706   3.662   8.231 -0.7378  0.5596 -3.2166
  140OSM   H17G15376   3.637   3.776   8.358  0.3385  0.7459  0.2331
  140OSM   C18F15377   3.842   3.820   8.282 -0.5842 -0.4864  0.4398
  140OSM   H18F15378   3.887   3.786   8.378  0.4567  1.8781  0.8329
  140OSM   H18G15379   3.855   3.930   8.282  0.7781 -0.6382  1.4222
  140OSM   H18H15380   3.911   3.778   8.207 -0.8651 -0.4006  0.1314
  141OSM      N15381   2.514   6.626   6.252 -0.6916  0.1795  0.3525
  141OSM    C1515382   2.517   6.706   6.119  0.4000 -0.4895 -0.2522
  141OSM   H15A15383   2.473   6.804   6.134 -1.3959 -1.7586  3.2982
  141OSM   H15B15384   2.458   6.664   6.039  1.7033  0.3069 -1.6558
  141OSM   H15C15385   2.618   6.719   6.083  0.4096 -0.2955 -0.1565
  141OSM    C1415386   2.611   6.675   6.352 -0.1069 -0.3996  0.0148
  141OSM   H14A15387   2.709   6.686   6.307 -0.9356 -0.4628 -1.8556
  141OSM   H14B15388   2.623   6.603   6.432 -1.2995  1.4872  1.9369
  141OSM   H14C15389   2.590   6.775   6.387  3.1032  0.1256  0.5860
  141OSM    C1315390   2.371   6.620   6.304 -0.5494 -0.5374 -0.1006
  141OSM   H13A15391   2.339   6.718   6.336  2.7050  0.6958 -0.4610
  141OSM   H13B15392   2.353   6.551   6.386 -0.0291  0.6043  0.9848
  141OSM   H13C15393   2.315   6.582   6.220  0.3702 -1.1587 -0.4399
  141OSM    C1215394   2.562   6.484   6.214 -0.3957 -0.1446 -0.3666
  141OSM   H12A15395   2.660   6.498   6.172 -1.3534  3.5390 -1.5496
  141OSM   H12B15396   2.496   6.442   6.139 -1.4494  1.5581 -0.4084
  141OSM    C1115397   2.577   6.378   6.320  1.0412  0.1731 -0.2733
  141OSM   H11A15398   2.485   6.351   6.375  0.9007  0.2688 -0.4603
  141OSM   H11B15399   2.654   6.411   6.393 -0.2119  1.2853  0.5603
  141OSM      P15400   2.556   6.134   6.215 -0.1476  0.1007 -0.2956
  141OSM    O1315401   2.437   6.170   6.138 -0.1563  0.0860  0.0661
  141OSM    O1415402   2.644   6.046   6.140  0.4738  0.2506 -0.0755
  141OSM    O1115403   2.521   6.072   6.362  0.3505 -0.1299 -0.0989
  141OSM    O1215404   2.633   6.269   6.252  0.0199 -0.0237  0.2298
  141OSM    C1S15405   2.619   6.056   6.464  0.4648 -0.5272 -0.0807
  141OSM    H1S15406   2.705   6.125   6.450  0.6594 -0.3329  1.9586
  141OSM    H1T15407   2.652   5.950   6.464 -1.0470 -1.0204 -0.9450
  141OSM     NF15408   2.661   6.106   6.699  0.2202 -0.3581 -0.4273
  141OSM    HNF15409   2.679   6.023   6.751  1.8959 -1.2002 -2.2713
  141OSM    C2S15410   2.556   6.091   6.605  0.6009 -0.3876  0.1965
  141OSM    H2S15411   2.502   6.187   6.593  0.9460 -0.2029  0.1003
  141OSM    C3S15412   2.458   5.982   6.640 -0.4052  0.8169  0.0992
  141OSM    H3S15413   2.513   5.896   6.685 -2.4014 -1.5272 -1.7658
  141OSM     O315414   2.389   5.919   6.537 -0.2262 -0.1396 -0.4390
  141OSM    HO315415   2.412   5.961   6.454 -2.5164  0.0945 -0.9966
  141OSM    C4S15416   2.371   6.023   6.751 -0.5877  0.8268  0.6348
  141OSM    H4S15417   2.426   6.008   6.846 -1.9568 -2.6625  0.9230
  141OSM    C5S15418   2.252   6.084   6.739 -0.3132  0.6785  0.2244
  141OSM    H5S15419   2.219   6.099   6.635  2.1219  1.9579 -0.4155
  141OSM    C6S15420   2.159   6.130   6.848  0.1281 -0.1704 -0.0558
  141OSM    H6S15421   2.059   6.082   6.843 -0.2323  0.6105 -0.4632
  141OSM    H6T15422   2.136   6.237   6.828 -0.9309 -0.0891  1.4772
  141OSM    C7S15423   2.225   6.106   6.984 -0.6854 -0.2013 -0.3851
  141OSM    H7S15424   2.320   6.162   6.996 -0.5671 -0.9320  2.4567
  141OSM    H7T15425   2.229   5.995   6.983 -0.8994 -0.2379  1.3776
  141OSM    C8S15426   2.130   6.140   7.101 -0.1807  0.4080  0.1319
  141OSM    H8S15427   2.030   6.097   7.078  0.1650 -0.1373 -0.3729
  141OSM    H8T15428   2.106   6.246   7.122  1.2656  0.7015  0.3134
  141OSM    C9S15429   2.190   6.083   7.233  0.0008  0.0157  0.6744
  141OSM    H9S15430   2.275   6.154   7.246  0.0486 -0.3284  2.4352
  141OSM    H9T15431   2.240   5.986   7.214  1.2766  0.8163 -0.0673
  141OSM   C10S15432   2.103   6.096   7.361 -0.4864 -0.0384 -0.6153
  141OSM   H10S15433   2.002   6.062   7.331 -1.4920  1.6582  0.7282
  141OSM   H10T15434   2.100   6.202   7.396 -0.2348 -0.3634  0.4239
  141OSM   C11S15435   2.144   5.994   7.483  0.8411  0.0004  0.0963
  141OSM   H11S15436   2.227   6.034   7.545  1.3363 -1.7694  0.6131
  141OSM   H11T15437   2.188   5.902   7.438  1.7500 -0.3414  1.6344
  141OSM   C12S15438   2.012   5.966   7.552 -0.5712 -0.2181 -0.0753
  141OSM   H12S15439   1.940   5.928   7.476 -1.3153  0.7843  0.1242
  141OSM   H12T15440   1.969   6.063   7.585 -0.6675 -0.0850 -0.5820
  141OSM   C13S15441   2.029   5.865   7.658  0.8954 -0.2563 -0.4952
  141OSM   H13S15442   2.102   5.897   7.736 -1.3905  0.4414  1.4216
  141OSM   H13T15443   2.064   5.767   7.621  0.9278 -0.9484  1.3274
  141OSM   C14S15444   1.887   5.847   7.731 -0.2440  0.1438 -0.2255
  141OSM   H14S15445   1.807   5.815   7.661 -1.6300  2.2156  0.3612
  141OSM   H14T15446   1.861   5.953   7.752  3.3472  1.0126  0.1635
  141OSM   C15S15447   1.892   5.754   7.855  0.3291  0.2929  0.5129
  141OSM   H15S15448   1.924   5.654   7.819  1.9859  0.1250  2.3643
  141OSM   H15T15449   1.794   5.754   7.907  0.3307 -2.0116  0.5784
  141OSM   C16S15450   1.997   5.800   7.958 -0.4244 -0.4584  0.1953
  141OSM   H16S15451   2.012   5.905   7.925 -0.9965 -0.5967 -0.5313
  141OSM   H16T15452   2.087   5.738   7.941  0.8404  1.5114 -0.3896
  141OSM   C17S15453   1.936   5.802   8.098  0.0963  0.1251  1.1805
  141OSM   H17S15454   1.910   5.699   8.132  0.7914  0.4313  2.7127
  141OSM   H17T15455   1.851   5.874   8.093 -0.2422 -0.3751 -0.3275
  141OSM   C18S15456   2.028   5.864   8.207  0.2972  0.5027  0.0701
  141OSM   H18S15457   2.110   5.793   8.232 -1.9955 -2.0437  0.6768
  141OSM   H18T15458   1.973   5.885   8.302  0.2295  0.7795 -0.0312
  141OSM   H18U15459   2.079   5.954   8.166 -0.6884  0.1984 -1.8674
  141OSM    C1F15460   2.746   6.211   6.700  0.6510 -0.2933 -0.4887
  141OSM     OF15461   2.739   6.303   6.622  0.4050 -0.9736  0.3559
  141OSM    C2F15462   2.856   6.205   6.803  1.0069 -0.2071  0.3500
  141OSM    H2F15463   2.935   6.142   6.758  1.2348  0.8663 -0.7972
  141OSM    H2G15464   2.809   6.163   6.894 -1.0060  0.8107 -0.1992
  141OSM    C3F15465   2.902   6.350   6.838  0.3514 -0.1210  0.4996
  141OSM    H3F15466   2.815   6.408   6.875  1.4357  2.6388 -1.1397
  141OSM    H3G15467   2.943   6.405   6.750 -0.9262  0.6232  0.3540
  141OSM    C4F15468   3.006   6.361   6.951  0.0604  0.1624  0.9902
  141OSM    H4F15469   3.012   6.469   6.974  1.4034  0.2302  0.3710
  141OSM    H4G15470   3.111   6.332   6.926 -0.1418 -0.4021  0.7911
  141OSM    C5F15471   2.958   6.300   7.090  0.4566 -0.3393  0.5694
  141OSM    H5F15472   2.979   6.191   7.082 -1.5919 -0.6412 -1.2461
  141OSM    H5G15473   2.848   6.308   7.103  0.5765  2.7323  0.0004
  141OSM    C6F15474   3.033   6.347   7.223  0.3907 -0.1851  0.9513
  141OSM    H6F15475   3.026   6.458   7.226  1.4211 -0.1512  2.2067
  141OSM    H6G15476   3.142   6.329   7.213  0.7700  2.5074 -0.1006
  141OSM    C7F15477   2.977   6.296   7.354 -0.7010 -0.5745 -0.3494
  141OSM    H7F15478   2.948   6.189   7.343 -0.0414 -0.6624 -1.3087
  141OSM    H7G15479   2.879   6.344   7.375 -1.2813 -2.4095  1.2112
  141OSM    C8F15480   3.074   6.336   7.471  0.7308 -0.7722  0.3301
  141OSM    H8F15481   3.014   6.308   7.560  0.1837  3.6830  1.4779
  141OSM    H8G15482   3.080   6.447   7.468 -2.2950 -0.5518  0.3211
  141OSM    C9F15483   3.213   6.268   7.495 -1.2094 -0.2476 -0.3417
  141OSM    H9F15484   3.259   6.253   7.396  0.1798  1.1930  0.0621
  141OSM   C10F15485   3.268   6.240   7.615  0.3668  0.1364  0.0579
  141OSM   H10F15486   3.373   6.208   7.627  0.9552  2.2913  0.8555
  141OSM   C11F15487   3.197   6.260   7.752  0.6884 -0.1612  0.8681
  141OSM   H11F15488   3.177   6.157   7.790 -3.2067 -0.5759 -2.0558
  141OSM   H11G15489   3.097   6.306   7.746  0.1851 -1.2267  0.9232
  141OSM   C12F15490   3.273   6.345   7.854 -0.1904  0.2082 -0.2658
  141OSM   H12F15491   3.279   6.450   7.816  1.1925  0.6315  1.0998
  141OSM   H12G15492   3.371   6.299   7.875  0.2291  0.6962 -1.1010
  141OSM   C13F15493   3.184   6.366   7.980  0.0461  0.0125  0.4755
  141OSM   H13F15494   3.078   6.392   7.958 -0.3920 -1.0134  1.3419
  141OSM   H13G15495   3.232   6.448   8.036 -2.2821  0.7139  1.5275
  141OSM   C14F15496   3.188   6.248   8.076 -0.8246 -0.1055  0.2824
  141OSM   H14F15497   3.290   6.205   8.066  0.3165  2.3810  0.7445
  141OSM   H14G15498   3.128   6.172   8.023 -0.0558 -0.3240 -0.2819
  141OSM   C15F15499   3.130   6.274   8.214 -0.1179  0.9416  0.9365
  141OSM   H15F15500   3.033   6.327   8.212  0.6219  2.4021  2.3493
  141OSM   H15G15501   3.210   6.344   8.246  1.1358  0.8030 -1.7944
  141OSM   C16F15502   3.137   6.159   8.308 -0.3578 -0.2005  0.2930
  141OSM   H16F15503   3.245   6.149   8.331 -0.5001  0.0975  1.0997
  141OSM   H16G15504   3.099   6.066   8.260  2.1061  0.2580 -2.7210
  141OSM   C17F15505   3.055   6.172   8.440 -0.2268  0.8238 -0.3806
  141OSM   H17F15506   2.945   6.171   8.424 -0.1318 -3.3202 -1.2062
  141OSM   H17G15507   3.081   6.266   8.493  2.3531  0.9670 -1.8128
  141OSM   C18F15508   3.084   6.051   8.540  0.2657 -0.3790  0.2037
  141OSM   H18F15509   3.018   6.051   8.629 -1.4824  0.7067 -1.0558
  141OSM   H18G15510   3.190   6.068   8.568  0.5754  0.9123 -1.6309
  141OSM   H18H15511   3.059   5.952   8.495 -1.3675  0.1663 -0.1447
  142OSM      N15512   2.491   1.173   6.054 -0.7770  0.7126  0.2149
  142OSM    C1515513   2.379   1.103   6.118  0.2015  0.3736 -0.1366
  142OSM   H15A15514   2.282   1.144   6.097 -0.2984 -1.1186 -0.8308
  142OSM   H15B15515   2.389   1.084   6.224 -0.9444 -2.1663 -0.4337
  142OSM   H15C15516   2.370   1.007   6.069  2.5890 -0.1330  0.3364
  142OSM    C1415517   2.479   1.158   5.900 -0.1406 -0.0594 -0.1691
  142OSM   H14A15518   2.385   1.190   5.858  1.0107  3.2004 -0.3889
  142OSM   H14B15519   2.495   1.059   5.861 -3.7108  0.2388 -2.6077
  142OSM   H14C15520   2.552   1.222   5.852  0.6587 -1.2938 -0.6345
  142OSM    C1315521   2.491   1.321   6.087 -0.7895 -0.0719 -0.1463
  142OSM   H13A15522   2.521   1.327   6.191 -0.1074 -2.1316 -0.2167
  142OSM   H13B15523   2.394   1.364   6.063 -1.2763 -0.7551  0.5478
  142OSM   H13C15524   2.562   1.378   6.029 -2.9212  1.7881 -1.0020
  142OSM    C1215525   2.620   1.113   6.107 -0.2482  0.2422  0.2710
  142OSM   H12A15526   2.699   1.139   6.038 -0.8236 -1.1152 -0.9333
  142OSM   H12B15527   2.611   1.005   6.106 -0.8138  0.2843  0.7292
  142OSM    C1115528   2.669   1.146   6.248  0.4910  0.0822 -0.8458
  142OSM   H11A15529   2.676   1.257   6.254 -1.7131  0.2345 -0.5709
  142OSM   H11B15530   2.773   1.109   6.266  0.5295  1.0150  1.0156
  142OSM      P15531   2.585   0.955   6.412 -0.1251 -0.3426 -0.0477
  142OSM    O1315532   2.469   0.873   6.375  0.2105  0.0137 -0.0418
  142OSM    O1415533   2.715   0.896   6.371  0.1181 -0.3642  0.2547
  142OSM    O1115534   2.594   0.971   6.576 -0.2931 -0.6575 -0.0480
  142OSM    O1215535   2.570   1.100   6.341  0.0315 -0.4437  0.3971
  142OSM    C1S15536   2.715   1.027   6.628 -0.4344 -0.7960  0.1606
  142OSM    H1S15537   2.733   1.128   6.586  2.3657  0.0387  3.1507
  142OSM    H1T15538   2.803   0.964   6.603  1.5025  0.9994  2.1987
  142OSM     NF15539   2.832   1.098   6.833 -0.4545  0.1764  0.0193
  142OSM    HNF15540   2.912   1.049   6.866 -0.6230 -1.0140 -1.2944
  142OSM    C2S15541   2.714   1.020   6.780  0.5231  0.0934  0.9391
  142OSM    H2S15542   2.628   1.075   6.824 -0.1804  0.1023 -0.4525
  142OSM    C3S15543   2.707   0.872   6.817 -0.0866 -0.6361  0.2389
  142OSM    H3S15544   2.772   0.809   6.751 -1.0300 -0.5316 -0.8131
  142OSM     O315545   2.579   0.812   6.778  0.0430 -0.0515 -0.0908
  142OSM    HO315546   2.541   0.867   6.709 -1.7781  0.6706  1.4264
  142OSM    C4S15547   2.737   0.844   6.962 -0.5908 -0.1092  0.4964
  142OSM    H4S15548   2.842   0.854   6.991 -0.6443  1.5933  0.1242
  142OSM    C5S15549   2.646   0.829   7.057 -0.3155 -0.1364 -0.2823
  142OSM    H5S15550   2.541   0.831   7.026 -0.0088 -0.1129 -1.3282
  142OSM    C6S15551   2.678   0.818   7.201  0.8859 -0.1742  0.6816
  142OSM    H6S15552   2.662   0.711   7.225  3.4782 -1.1493 -1.5951
  142OSM    H6T15553   2.603   0.878   7.257  2.8050  1.7271  1.2829
  142OSM    C7S15554   2.806   0.866   7.264 -0.0881  0.2663 -0.6483
  142OSM    H7S15555   2.817   0.976   7.249  0.8260  0.1251 -1.0248
  142OSM    H7T15556   2.890   0.805   7.225  1.1356 -0.4508  2.9468
  142OSM    C8S15557   2.809   0.846   7.424 -0.3860  0.3835  0.4900
  142OSM    H8S15558   2.741   0.763   7.453 -1.3380  0.7627 -0.6124
  142OSM    H8T15559   2.772   0.939   7.473 -0.2324  0.9427 -0.4459
  142OSM    C9S15560   2.957   0.813   7.458 -0.1190  0.0628  0.1509
  142OSM    H9S15561   3.020   0.900   7.430  1.4772 -1.0760  0.1572
  142OSM    H9T15562   2.995   0.723   7.405 -0.3281 -1.9928  3.3357
  142OSM   C10S15563   2.965   0.785   7.612  0.1964 -0.3827  0.6745
  142OSM   H10S15564   3.073   0.764   7.632  0.4448  0.1991 -0.0169
  142OSM   H10T15565   2.911   0.689   7.629 -0.4353 -0.5126 -1.8433
  142OSM   C11S15566   2.925   0.896   7.708  0.3500 -0.1872  0.3585
  142OSM   H11S15567   2.864   0.972   7.654 -1.1739 -0.4211  1.7261
  142OSM   H11T15568   3.012   0.955   7.745  0.6222  1.4363 -2.7570
  142OSM   C12S15569   2.859   0.838   7.835  0.3355  0.0659 -0.1369
  142OSM   H12S15570   2.920   0.767   7.894 -1.6059 -1.2693  0.3394
  142OSM   H12T15571   2.766   0.786   7.803  1.1618 -1.3705 -0.2527
  142OSM   C13S15572   2.843   0.951   7.940 -0.6123 -0.1533  0.3922
  142OSM   H13S15573   2.778   1.026   7.891  0.6928  1.7720  1.5600
  142OSM   H13T15574   2.938   1.001   7.965 -1.7129  1.7068  0.9694
  142OSM   C14S15575   2.772   0.892   8.055  0.6107  0.0345  0.0408
  142OSM   H14S15576   2.827   0.798   8.076 -0.6486 -1.4974 -3.2414
  142OSM   H14T15577   2.673   0.855   8.018  1.3680 -2.6424  0.5600
  142OSM   C15S15578   2.770   0.972   8.181  0.4090  0.4372 -0.5025
  142OSM   H15S15579   2.722   1.070   8.162  1.6239  1.6521  2.5033
  142OSM   H15T15580   2.869   0.992   8.228  0.9755 -1.0612 -0.9939
  142OSM   C16S15581   2.687   0.895   8.289  0.6696  0.3514  0.5427
  142OSM   H16S15582   2.687   0.959   8.380  1.0443  1.4062 -0.1983
  142OSM   H16T15583   2.724   0.792   8.308  0.8593 -0.1566 -2.3857
  142OSM   C17S15584   2.537   0.891   8.258  0.1523  0.1886 -0.3975
  142OSM   H17S15585   2.509   0.827   8.172 -0.2502  1.6411 -1.3632
  142OSM   H17T15586   2.500   0.995   8.240 -1.2567 -0.2428 -0.0509
  142OSM   C18S15587   2.451   0.832   8.361 -0.1023  0.2571  0.0717
  142OSM   H18S15588   2.473   0.725   8.386 -1.0141  0.5449  2.2982
  142OSM   H18T15589   2.344   0.838   8.331  0.4382  0.1711 -1.8871
  142OSM   H18U15590   2.463   0.888   8.456  0.0196 -0.0826  0.2582
  142OSM    C1F15591   2.831   1.231   6.827 -0.6488  0.3470 -0.2298
  142OSM     OF15592   2.768   1.289   6.737  0.1713 -0.5667  0.3558
  142OSM    C2F15593   2.923   1.297   6.928 -0.1021 -0.0076 -0.2279
  142OSM    H2F15594   2.947   1.399   6.891  1.7641 -1.3570 -2.8651
  142OSM    H2G15595   3.014   1.235   6.936  1.2279  2.0116  0.6495
  142OSM    C3F15596   2.855   1.298   7.066  0.5385  0.4656 -0.0504
  142OSM    H3F15597   2.822   1.197   7.098  2.2278  0.0435  0.3977
  142OSM    H3G15598   2.763   1.359   7.049  0.5928  0.4168 -0.5442
  142OSM    C4F15599   2.941   1.357   7.182 -0.0874  0.2987  0.0728
  142OSM    H4F15600   2.958   1.466   7.172 -0.2481  0.4281  1.1960
  142OSM    H4G15601   3.036   1.300   7.181  0.4452  1.1392  1.4911
  142OSM    C5F15602   2.901   1.338   7.328  0.0005 -0.3841  1.0889
  142OSM    H5F15603   2.870   1.233   7.344 -0.1060 -0.5205  0.0125
  142OSM    H5G15604   2.813   1.404   7.340 -0.6179 -0.6288 -1.8126
  142OSM    C6F15605   3.010   1.385   7.425 -0.0352 -0.7127  0.0699
  142OSM    H6F15606   2.971   1.462   7.495  3.0246 -0.4619  1.5592
  142OSM    H6G15607   3.097   1.434   7.376 -0.1109  1.0261  1.6123
  142OSM    C7F15608   3.079   1.277   7.497 -0.2260  0.2070 -0.5415
  142OSM    H7F15609   3.171   1.249   7.441  1.4121  1.1397  1.6055
  142OSM    H7G15610   3.017   1.186   7.484 -0.8005  0.2470  1.7179
  142OSM    C8F15611   3.103   1.322   7.645  0.0030  0.0713  0.1110
  142OSM    H8F15612   3.173   1.408   7.647  1.3322 -0.9581 -0.6419
  142OSM    H8G15613   3.152   1.233   7.691  1.2614  0.6381 -0.1185
  142OSM    C9F15614   2.975   1.336   7.722 -0.0155 -0.0641 -0.8022
  142OSM    H9F15615   2.883   1.300   7.675 -0.9081 -1.7411  2.1014
  142OSM   C10F15616   2.975   1.395   7.844  0.9348  0.7761 -0.6912
  142OSM   H10F15617   2.881   1.394   7.901  1.0279  0.0728 -0.5468
  142OSM   C11F15618   3.096   1.443   7.913  0.0048 -0.2146  0.3845
  142OSM   H11F15619   3.067   1.540   7.958 -2.7293 -0.7958 -0.0824
  142OSM   H11G15620   3.184   1.471   7.850  2.2123 -2.8515  2.1467
  142OSM   C12F15621   3.144   1.336   8.012  0.4393 -0.2529 -0.4680
  142OSM   H12F15622   3.255   1.331   8.016  0.4774  0.4692 -0.4342
  142OSM   H12G15623   3.117   1.242   7.959 -0.2366  0.8330 -2.0991
  142OSM   C13F15624   3.070   1.342   8.144  0.2892  0.2694 -0.6737
  142OSM   H13F15625   2.960   1.342   8.126 -0.1670 -0.2573  1.8969
  142OSM   H13G15626   3.088   1.442   8.190 -2.6804  1.6596 -2.3800
  142OSM   C14F15627   3.095   1.236   8.253  0.2404 -0.3358 -0.6623
  142OSM   H14F15628   3.204   1.227   8.271  0.1529  0.4728  0.3170
  142OSM   H14G15629   3.068   1.140   8.203  0.2174 -0.7346  0.1101
  142OSM   C15F15630   3.018   1.235   8.387  0.4967  0.9479  0.2713
  142OSM   H15F15631   2.909   1.250   8.367  0.3337 -0.2116  0.2242
  142OSM   H15G15632   3.043   1.328   8.443  2.0353  1.6599 -1.5691
  142OSM   C16F15633   3.038   1.099   8.466  0.2023  0.3455 -0.0487
  142OSM   H16F15634   3.013   1.015   8.398  0.3778  1.0598 -1.0141
  142OSM   H16G15635   2.957   1.091   8.541  0.2215 -1.3307 -0.1852
  142OSM   C17F15636   3.178   1.086   8.518 -0.3397 -0.3838  0.8970
  142OSM   H17F15637   3.253   1.149   8.465 -0.4832  0.6315  1.8730
  142OSM   H17G15638   3.216   0.982   8.516 -0.2362 -0.3376  0.2156
  142OSM   C18F15639   3.181   1.126   8.668  0.4874 -0.2469 -0.1053
  142OSM   H18F15640   3.146   1.230   8.683  1.6836 -0.2666  3.3284
  142OSM   H18G15641   3.285   1.120   8.706 -1.2057  0.4375  5.1345
  142OSM   H18H15642   3.124   1.055   8.733 -1.8748  1.9534  0.3176
  143OSM      N15643   3.904   2.488   6.338 -0.1968  0.3087 -0.4773
  143OSM    C1515644   3.865   2.434   6.199 -0.5117  0.1315  0.1669
  143OSM   H15A15645   3.874   2.326   6.195  0.7330  0.2213  0.2958
  143OSM   H15B15646   3.933   2.474   6.126  1.4286 -2.3426  0.5410
  143OSM   H15C15647   3.764   2.455   6.169  0.0210 -1.5045 -2.9780
  143OSM    C1415648   3.836   2.418   6.447  0.0867  0.2264 -0.7103
  143OSM   H14A15649   3.731   2.441   6.433  0.4731  1.7113 -1.1934
  143OSM   H14B15650   3.873   2.446   6.544 -0.2373  0.9038 -0.7790
  143OSM   H14C15651   3.853   2.311   6.452  0.1571  0.2550 -0.3537
  143OSM    C1315652   4.050   2.463   6.355 -0.7188 -0.1301  0.3982
  143OSM   H13A15653   4.078   2.480   6.458  0.8531 -3.7030  0.6761
  143OSM   H13B15654   4.101   2.536   6.295 -1.0585 -0.3016 -0.1025
  143OSM   H13C15655   4.070   2.360   6.327  1.2481 -0.4120  2.6543
  143OSM    C1215656   3.869   2.634   6.353  0.6986 -0.1259  0.3123
  143OSM   H12A15657   3.901   2.666   6.452 -0.8659  0.6216  0.5892
  143OSM   H12B15658   3.763   2.649   6.348  0.5646 -0.8467  0.8594
  143OSM    C1115659   3.942   2.725   6.260  0.6330  0.5060 -0.0084
  143OSM   H11A15660   3.900   2.824   6.289 -2.0776 -0.9825  1.3149
  143OSM   H11B15661   3.915   2.705   6.154  1.9922  0.4034 -0.3484
  143OSM      P15662   4.164   2.853   6.278  0.0540 -0.1747  0.2887
  143OSM    O1315663   4.294   2.831   6.214 -0.3023  0.3734 -0.1522
  143OSM    O1415664   4.084   2.965   6.221 -0.0966 -0.3695 -0.2135
  143OSM    O1115665   4.171   2.869   6.436 -0.1773  0.1665  0.0683
  143OSM    O1215666   4.085   2.725   6.265 -0.2173  0.3565  0.5539
  143OSM    C1S15667   4.264   2.952   6.491 -0.1659 -0.2400 -0.5766
  143OSM    H1S15668   4.248   3.056   6.454  0.1943  0.0095 -0.0254
  143OSM    H1T15669   4.367   2.931   6.454  0.5349  0.0199  1.2028
  143OSM     NF15670   4.352   3.013   6.703  0.1509 -1.1380 -0.4303
  143OSM    HNF15671   4.441   2.969   6.712  0.5539 -0.4789 -1.1632
  143OSM    C2S15672   4.254   2.931   6.641 -0.8703 -0.3016 -0.0668
  143OSM    H2S15673   4.150   2.955   6.674 -1.3244 -0.0292 -1.6446
  143OSM    C3S15674   4.281   2.778   6.679 -0.6451  0.0355 -0.6422
  143OSM    H3S15675   4.387   2.748   6.667 -0.6763 -0.5467  0.4631
  143OSM     O315676   4.197   2.682   6.609  0.0372  0.1431  0.2444
  143OSM    HO315677   4.167   2.740   6.539  1.5512  0.1714 -0.3919
  143OSM    C4S15678   4.270   2.751   6.834  0.8808  0.8948 -0.1604
  143OSM    H4S15679   4.359   2.704   6.877  0.9736  0.8212 -0.4300
  143OSM    C5S15680   4.159   2.778   6.907  0.9322 -0.0937 -0.0249
  143OSM    H5S15681   4.071   2.816   6.853  2.1959 -0.1765 -2.2304
  143OSM    C6S15682   4.139   2.757   7.051  0.4644 -0.4240  0.1287
  143OSM    H6S15683   4.237   2.735   7.099  0.7624  0.8676  0.1494
  143OSM    H6T15684   4.070   2.671   7.065  1.2337 -1.1132 -0.2678
  143OSM    C7S15685   4.086   2.886   7.126 -0.3102  0.4885  0.0983
  143OSM    H7S15686   4.003   2.930   7.068 -0.2177 -0.2404 -0.5912
  143OSM    H7T15687   4.163   2.967   7.130 -2.4481  2.5856  0.1205
  143OSM    C8S15688   4.035   2.863   7.274 -0.1107 -0.5294  0.5934
  143OSM    H8S15689   4.125   2.830   7.331  0.5070 -0.4928 -0.3365
  143OSM    H8T15690   3.963   2.779   7.279 -0.0932 -0.5482  0.5412
  143OSM    C9S15691   3.977   2.996   7.338 -0.5134  1.3375  0.6518
  143OSM    H9S15692   3.913   3.045   7.263 -0.3947 -0.0466 -0.3836
  143OSM    H9T15693   4.062   3.067   7.347  0.6358  0.1468 -0.3675
  143OSM   C10S15694   3.911   2.987   7.469 -0.2516 -0.1443  0.5674
  143OSM   H10S15695   3.814   2.934   7.469 -0.8024  0.8370 -0.3455
  143OSM   H10T15696   3.887   3.093   7.495  0.3142 -0.1932  1.3015
  143OSM   C11S15697   4.004   2.928   7.579 -0.1283  0.2640 -0.0653
  143OSM   H11S15698   4.087   3.002   7.585 -1.1580  1.5652 -1.4651
  143OSM   H11T15699   4.043   2.829   7.545 -0.1535 -0.5748  2.2681
  143OSM   C12S15700   3.939   2.909   7.713 -0.0762 -0.7234  0.9282
  143OSM   H12S15701   3.866   2.825   7.707 -0.8092 -0.1596  1.7014
  143OSM   H12T15702   3.876   2.999   7.731 -0.1612 -0.4174 -0.8112
  143OSM   C13S15703   4.035   2.920   7.827 -0.2349 -0.2799 -0.1439
  143OSM   H13S15704   4.087   3.016   7.811  0.5415 -0.7463 -0.4632
  143OSM   H13T15705   4.113   2.840   7.824  0.3620  0.2350  1.0833
  143OSM   C14S15706   3.959   2.928   7.961  0.3503 -0.4732 -0.3846
  143OSM   H14S15707   3.906   2.832   7.980  1.6541 -0.8017  1.8327
  143OSM   H14T15708   3.894   3.016   7.975 -0.5379 -0.8099 -2.2328
  143OSM   C15S15709   4.064   2.927   8.071 -0.9324  0.2853  0.1119
  143OSM   H15S15710   4.122   2.833   8.061 -0.7015  0.4454 -0.0693
  143OSM   H15T15711   4.008   2.921   8.168  2.9944 -1.0438  2.4042
  143OSM   C16S15712   4.148   3.052   8.088  0.1408  0.9533  0.1728
  143OSM   H16S15713   4.069   3.128   8.070 -0.0973  0.2982 -1.6541
  143OSM   H16T15714   4.229   3.050   8.012 -1.0767 -2.1402 -1.1026
  143OSM   C17S15715   4.212   3.063   8.225 -0.1257  0.2824  0.4718
  143OSM   H17S15716   4.272   2.973   8.249  1.6267  0.4655 -2.9548
  143OSM   H17T15717   4.138   3.085   8.305 -0.3558  3.1255 -0.4505
  143OSM   C18S15718   4.308   3.186   8.212  0.0738 -0.2010  0.2020
  143OSM   H18S15719   4.265   3.284   8.184  0.9617 -0.4786 -2.3045
  143OSM   H18T15720   4.387   3.163   8.137  0.6203 -0.3498  0.8213
  143OSM   H18U15721   4.349   3.197   8.314 -0.0724 -2.1855  0.4901
  143OSM    C1F15722   4.332   3.146   6.708  0.9359 -0.1534 -0.7306
  143OSM     OF15723   4.232   3.190   6.659  0.4970  0.4279 -0.9893
  143OSM    C2F15724   4.445   3.230   6.763  0.3296  1.1276  1.1094
  143OSM    H2F15725   4.478   3.286   6.672 -1.3643  2.1515  1.0915
  143OSM    H2G15726   4.524   3.163   6.804  0.5096  1.4151  1.2351
  143OSM    C3F15727   4.395   3.329   6.863 -0.5521  0.6048 -0.5508
  143OSM    H3F15728   4.318   3.290   6.933 -0.6201  2.2284  0.2985
  143OSM    H3G15729   4.348   3.414   6.810  1.7576  2.0388 -0.3825
  143OSM    C4F15730   4.513   3.394   6.945  0.1989 -0.0214  0.5214
  143OSM    H4F15731   4.460   3.462   7.015  1.3044  0.4234  0.9369
  143OSM    H4G15732   4.583   3.447   6.878 -0.0482  1.4893  1.4451
  143OSM    C5F15733   4.590   3.291   7.029 -0.0228  0.9396  0.3254
  143OSM    H5F15734   4.654   3.243   6.952 -0.7353  0.6676 -0.1029
  143OSM    H5G15735   4.522   3.212   7.067 -0.4906  0.5713 -1.2139
  143OSM    C6F15736   4.683   3.360   7.137  0.0608 -0.1210  0.3981
  143OSM    H6F15737   4.621   3.409   7.215  2.0177 -1.5409  2.8883
  143OSM    H6G15738   4.736   3.444   7.086  0.3981  0.6018  1.9128
  143OSM    C7F15739   4.779   3.270   7.203 -0.3371 -0.8834 -0.3806
  143OSM    H7F15740   4.826   3.201   7.130  1.3899 -0.7327  0.5420
  143OSM    H7G15741   4.721   3.210   7.276 -2.4600  0.0481 -1.2866
  143OSM    C8F15742   4.892   3.343   7.284  0.4345 -0.4177 -0.4835
  143OSM    H8F15743   4.837   3.410   7.353 -0.0668  0.2159 -1.4839
  143OSM    H8G15744   4.961   3.412   7.231 -0.3792  1.0171  0.3073
  143OSM    C9F15745   4.971   3.236   7.361 -0.7530  0.6361  0.2731
  143OSM    H9F15746   4.952   3.133   7.326  2.3509  0.0236  0.2779
  143OSM   C10F15747   5.037   3.248   7.476  0.8986 -0.2431 -0.3865
  143OSM   H10F15748   5.093   3.161   7.512  2.5278 -0.1746 -2.6660
  143OSM   C11F15749   5.050   3.391   7.545  0.6478 -0.4200  0.5528
  143OSM   H11F15750   4.987   3.473   7.504 -0.6399 -0.5480  2.2357
  143OSM   H11G15751   5.151   3.436   7.538  0.2986  0.3149  0.1557
  143OSM   C12F15752   5.022   3.394   7.695 -0.4286 -0.2309 -0.6589
  143OSM   H12F15753   5.071   3.306   7.743  0.5813  0.9606  0.5215
  143OSM   H12G15754   4.920   3.361   7.721  0.8311 -2.0398  2.2545
  143OSM   C13F15755   5.058   3.525   7.757  0.0859 -0.1999  0.5124
  143OSM   H13F15756   5.003   3.599   7.695  0.0938 -2.0099 -1.7101
  143OSM   H13G15757   5.167   3.539   7.743 -0.0225 -1.0356 -1.2285
  143OSM   C14F15758   5.030   3.519   7.910 -0.2386  0.8147  0.3495
  143OSM   H14F15759   5.086   3.435   7.955 -1.4359  0.6010  1.4721
  143OSM   H14G15760   4.920   3.508   7.923  0.0260 -0.1050  1.8560
  143OSM   C15F15761   5.087   3.646   7.976  0.0985 -0.2030 -0.1430
  143OSM   H15F15762   5.098   3.732   7.907  2.8133 -0.2149  0.2249
  143OSM   H15G15763   5.195   3.625   7.994  0.3645  0.8510 -0.5098
  143OSM   C16F15764   5.016   3.700   8.099  0.7463 -0.2908  0.0150
  143OSM   H16F15765   5.093   3.764   8.148  1.5844 -0.1024 -1.5214
  143OSM   H16G15766   4.980   3.623   8.169 -1.2109  0.1815 -0.4448
  143OSM   C17F15767   4.896   3.792   8.063  0.1846  0.2712 -0.0634
  143OSM   H17F15768   4.813   3.740   8.010 -0.1701  0.8144 -0.0407
  143OSM   H17G15769   4.929   3.866   7.987  0.3716  0.9284  0.6527
  143OSM   C18F15770   4.849   3.869   8.185  0.4751  0.0181  0.1835
  143OSM   H18F15771   4.928   3.906   8.253 -0.4605  0.7482  0.8833
  143OSM   H18G15772   4.795   3.795   8.249  0.8925 -0.0402  0.4729
  143OSM   H18H15773   4.771   3.943   8.157  1.0644 -0.0568 -1.6848
  144OSM      N15774   2.676   3.233   6.374  0.2227  0.2914 -0.1569
  144OSM    C1515775   2.702   3.364   6.435 -0.2536  0.3660  0.2761
  144OSM   H15A15776   2.690   3.373   6.542  0.2143 -1.1472  0.4668
  144OSM   H15B15777   2.637   3.439   6.393  0.0298 -0.2846 -1.3522
  144OSM   H15C15778   2.803   3.396   6.415  0.6725 -0.6695  3.0364
  144OSM    C1415779   2.534   3.221   6.342 -0.3247  0.1224 -0.6695
  144OSM   H14A15780   2.504   3.281   6.257 -2.1212 -0.2594 -0.3325
  144OSM   H14B15781   2.472   3.225   6.430  1.1781  0.2071  0.4109
  144OSM   H14C15782   2.515   3.120   6.308 -0.9924  0.1225 -0.2928
  144OSM    C1315783   2.746   3.221   6.243 -0.0497 -0.2460 -0.3692
  144OSM   H13A15784   2.730   3.121   6.204 -0.3045  0.1446 -1.2613
  144OSM   H13B15785   2.852   3.238   6.250 -0.4546  1.7284  1.5953
  144OSM   H13C15786   2.712   3.293   6.171  1.6148  0.0750 -0.8522
  144OSM    C1215787   2.725   3.123   6.470  0.1842 -0.1103  0.8111
  144OSM   H12A15788   2.665   3.139   6.558 -1.2308  1.2006 -0.3658
  144OSM   H12B15789   2.828   3.139   6.499  0.2202 -1.0072  1.1966
  144OSM    C1115790   2.703   2.974   6.434 -0.4451  0.2938  0.2230
  144OSM   H11A15791   2.597   2.959   6.404 -0.7597  3.2594 -0.3056
  144OSM   H11B15792   2.720   2.922   6.530 -1.0718  1.4150  0.9471
  144OSM      P15793   2.860   2.810   6.296 -0.4304 -0.4481 -0.6320
  144OSM    O1315794   2.779   2.693   6.244 -0.1732  0.1030 -0.2213
  144OSM    O1415795   2.976   2.854   6.213 -0.2142 -0.3099  0.1381
  144OSM    O1115796   2.902   2.767   6.442 -0.3637 -0.3833  0.3800
  144OSM    O1215797   2.778   2.939   6.316  0.4334  0.3595  0.2581
  144OSM    C1S15798   3.008   2.850   6.498  0.0565  0.1550 -0.0276
  144OSM    H1S15799   2.978   2.956   6.489 -4.0151 -0.9233  0.0660
  144OSM    H1T15800   3.107   2.834   6.449  0.3141 -0.5673  0.7028
  144OSM     NF15801   3.113   2.919   6.712  0.4767 -0.4191  0.3351
  144OSM    HNF15802   3.193   2.872   6.747  0.3564 -1.1287 -0.3412
  144OSM    C2S15803   3.021   2.827   6.649  0.6997  0.2407 -0.2478
  144OSM    H2S15804   2.926   2.848   6.703  0.2302 -0.0615 -0.9424
  144OSM    C3S15805   3.039   2.674   6.681  0.3432  1.3329 -0.5156
  144OSM    H3S15806   3.125   2.622   6.633  0.0724 -2.2744  2.5715
  144OSM     O315807   2.924   2.604   6.637 -0.0227  0.2567  0.4697
  144OSM    HO315808   2.880   2.670   6.583  2.5359  1.6314 -0.0466
  144OSM    C4S15809   3.046   2.661   6.833  0.1823  0.5149 -0.5630
  144OSM    H4S15810   2.948   2.675   6.881  0.7948  0.8700  0.5768
  144OSM    C5S15811   3.163   2.640   6.898  0.6285  0.7784  0.7405
  144OSM    H5S15812   3.256   2.637   6.840  1.6456 -0.5089  2.3605
  144OSM    C6S15813   3.171   2.638   7.050  0.1214 -0.0358  0.0468
  144OSM    H6S15814   3.068   2.620   7.087  0.2315  1.3737  1.0276
  144OSM    H6T15815   3.194   2.735   7.098 -0.2280  0.2684 -0.4023
  144OSM    C7S15816   3.274   2.541   7.111 -0.6369  0.0382  0.1952
  144OSM    H7S15817   3.375   2.586   7.109 -0.1435 -0.9676  1.7874
  144OSM    H7T15818   3.279   2.444   7.058  1.8420  1.9448 -3.2275
  144OSM    C8S15819   3.241   2.511   7.259 -0.2496  0.1069  0.6591
  144OSM    H8S15820   3.143   2.459   7.265  1.5404 -4.0280 -3.0772
  144OSM    H8T15821   3.236   2.613   7.305 -2.3853 -0.6044  2.0709
  144OSM    C9S15822   3.354   2.433   7.318  0.0703  0.0627 -0.5122
  144OSM    H9S15823   3.448   2.492   7.324  0.5462 -0.9030  2.0056
  144OSM    H9T15824   3.374   2.332   7.276  2.3607 -0.1720  1.0458
  144OSM   C10S15825   3.315   2.408   7.465 -0.0556 -0.0483  0.4148
  144OSM   H10S15826   3.225   2.345   7.476 -1.6021  2.1680  0.7847
  144OSM   H10T15827   3.290   2.506   7.511  2.0685  0.5038  0.4708
  144OSM   C11S15828   3.431   2.346   7.545  0.0654  0.0602  0.5181
  144OSM   H11S15829   3.524   2.399   7.515 -1.5845  1.8601 -1.5710
  144OSM   H11T15830   3.443   2.243   7.505 -0.5397 -0.9664  2.9398
  144OSM   C12S15831   3.410   2.351   7.703  0.0346  0.5968  1.4664
  144OSM   H12S15832   3.315   2.295   7.716 -0.7270  1.7541  0.9203
  144OSM   H12T15833   3.398   2.451   7.749 -1.5141  0.3511  1.6112
  144OSM   C13S15834   3.530   2.288   7.771  0.0991  0.9786 -0.0032
  144OSM   H13S15835   3.611   2.360   7.749  0.3998  1.0481  1.2690
  144OSM   H13T15836   3.540   2.181   7.742 -0.9923  0.5259  1.2125
  144OSM   C14S15837   3.520   2.291   7.923 -0.7192  0.0885 -1.1085
  144OSM   H14S15838   3.432   2.238   7.965 -2.8598  1.9233 -3.1347
  144OSM   H14T15839   3.499   2.396   7.952 -0.1287 -0.2734  0.6703
  144OSM   C15S15840   3.643   2.237   7.990  0.1423  0.3625 -0.7533
  144OSM   H15S15841   3.740   2.268   7.945  1.2290 -2.4799 -0.4444
  144OSM   H15T15842   3.639   2.126   7.989 -3.1297  0.3870  1.8295
  144OSM   C16S15843   3.646   2.297   8.135 -0.5764 -0.4056  0.7060
  144OSM   H16S15844   3.647   2.408   8.128 -0.1170 -0.5038 -1.0192
  144OSM   H16T15845   3.742   2.264   8.178 -0.2789 -0.2493  0.1660
  144OSM   C17S15846   3.539   2.247   8.234  0.4459 -0.3260 -0.1694
  144OSM   H17S15847   3.566   2.144   8.267 -1.4395 -0.7361  0.1211
  144OSM   H17T15848   3.439   2.240   8.186  0.2325 -1.1643  0.3876
  144OSM   C18S15849   3.521   2.330   8.359  0.0285 -0.1542  1.1380
  144OSM   H18S15850   3.599   2.310   8.436 -1.1578  1.5394  2.8109
  144OSM   H18T15851   3.425   2.305   8.407 -0.3696 -0.0309  0.4178
  144OSM   H18U15852   3.532   2.439   8.339 -0.2468 -0.2019  0.7241
  144OSM    C1F15853   3.098   3.050   6.711  0.7058 -0.4517  0.0538
  144OSM     OF15854   2.978   3.094   6.704 -0.0071  0.4510 -0.0520
  144OSM    C2F15855   3.220   3.132   6.736  0.6719 -0.3227 -0.2721
  144OSM    H2F15856   3.242   3.172   6.635 -1.3697 -1.8447 -1.3480
  144OSM    H2G15857   3.304   3.069   6.771  3.9260  3.1564 -1.4440
  144OSM    C3F15858   3.196   3.250   6.832  0.1414  0.1712  0.4608
  144OSM    H3F15859   3.162   3.219   6.933  0.8262  0.6400  0.8417
  144OSM    H3G15860   3.109   3.303   6.788 -1.6986 -4.9557 -2.5562
  144OSM    C4F15861   3.314   3.336   6.858  0.2217  0.7021 -0.3380
  144OSM    H4F15862   3.295   3.428   6.916 -0.4939 -1.0512  2.3006
  144OSM    H4G15863   3.339   3.387   6.763 -2.3202  0.7033 -1.0374
  144OSM    C5F15864   3.431   3.253   6.920 -0.1257  0.4275  0.0798
  144OSM    H5F15865   3.487   3.193   6.845 -3.0343  0.3431 -2.0939
  144OSM    H5G15866   3.391   3.185   6.998  0.5225 -0.5140 -0.3988
  144OSM    C6F15867   3.526   3.351   6.993 -0.2574 -0.8221 -0.2181
  144OSM    H6F15868   3.535   3.444   6.932 -1.1419 -0.1025  0.7512
  144OSM    H6G15869   3.625   3.300   6.998  0.1253  0.0429  1.7195
  144OSM    C7F15870   3.475   3.384   7.129  0.3951 -0.0182  0.2747
  144OSM    H7F15871   3.458   3.291   7.187 -0.3711  0.1550  0.3404
  144OSM    H7G15872   3.373   3.425   7.111  0.4076  0.2517  0.8223
  144OSM    C8F15873   3.556   3.492   7.220 -0.2576  0.5367 -0.3391
  144OSM    H8F15874   3.473   3.535   7.281 -1.2868 -1.5448 -0.2354
  144OSM    H8G15875   3.590   3.575   7.154 -0.5009 -0.6768 -2.0178
  144OSM    C9F15876   3.672   3.420   7.291  0.1131 -0.3839 -0.0920
  144OSM    H9F15877   3.748   3.387   7.219 -1.1557  2.3767 -2.7660
  144OSM   C10F15878   3.696   3.413   7.423 -0.1599  0.3302 -0.4840
  144OSM   H10F15879   3.783   3.354   7.455 -1.5564 -1.6343 -0.2273
  144OSM   C11F15880   3.617   3.466   7.541  0.1643 -0.5770 -0.1026
  144OSM   H11F15881   3.558   3.555   7.512 -1.9745 -0.9850  2.8228
  144OSM   H11G15882   3.686   3.502   7.620  2.2068 -0.5689 -1.8295
  144OSM   C12F15883   3.540   3.354   7.601  0.0450  0.5378  0.0433
  144OSM   H12F15884   3.475   3.297   7.531 -0.8566  1.8245 -0.1969
  144OSM   H12G15885   3.461   3.384   7.674  0.1123 -1.7952  1.1169
  144OSM   C13F15886   3.627   3.254   7.673  0.1439 -0.4537  0.2699
  144OSM   H13F15887   3.674   3.200   7.589 -0.7468 -0.8784  0.0421
  144OSM   H13G15888   3.573   3.173   7.727 -1.5072  0.7155  0.4121
  144OSM   C14F15889   3.736   3.304   7.771  0.1884 -0.1058  0.6636
  144OSM   H14F15890   3.819   3.357   7.720 -2.4028  1.9729 -1.5923
  144OSM   H14G15891   3.779   3.212   7.815  0.2590 -0.1841  0.4286
  144OSM   C15F15892   3.685   3.390   7.885  0.1037  0.4620 -0.5295
  144OSM   H15F15893   3.657   3.494   7.857 -0.0460  0.1693 -1.4874
  144OSM   H15G15894   3.766   3.404   7.959  0.2615 -0.8010 -0.4549
  144OSM   C16F15895   3.566   3.339   7.965  0.8815  0.2715 -0.1285
  144OSM   H16F15896   3.607   3.253   8.021  0.7648  0.2186 -0.1249
  144OSM   H16G15897   3.478   3.317   7.901 -0.0254 -0.0305  1.2077
  144OSM   C17F15898   3.514   3.462   8.048  0.5231 -0.0829  0.1809
  144OSM   H17F15899   3.453   3.523   7.978 -0.6069 -1.4558 -0.0684
  144OSM   H17G15900   3.604   3.520   8.078 -0.5282 -1.1050  5.7554
  144OSM   C18F15901   3.439   3.429   8.173 -0.4498  0.1567 -0.6771
  144OSM   H18F15902   3.435   3.523   8.232  1.0690 -0.8508  1.1023
  144OSM   H18G15903   3.490   3.348   8.230 -0.0560  0.4666 -0.5856
  144OSM   H18H15904   3.337   3.393   8.149 -0.6893  0.0511  0.4676
  145SAPE     N15905   1.763   4.356  10.705 -0.2008  0.5104  0.3171
  145SAPE   HN115906   1.785   4.440  10.763  2.0033  0.4620 -0.3904
  145SAPE   HN215907   1.827   4.366  10.624  0.0586 -0.5926  0.3718
  145SAPE   HN315908   1.664   4.368  10.676  0.2065  0.6688 -1.0187
  145SAPE   C1215909   1.793   4.231  10.790 -0.3425 -0.3738 -0.0266
  145SAPE  H12A15910   1.706   4.224  10.859 -1.1017 -0.5029 -0.9832
  145SAPE  H12B15911   1.894   4.232  10.835  0.2019  1.6016 -1.2174
  145SAPE   C1115912   1.777   4.104  10.700 -0.1108 -0.0300  0.4048
  145SAPE  H11A15913   1.781   4.019  10.771  1.7551 -1.6408 -1.5611
  145SAPE  H11B15914   1.852   4.093  10.619 -0.3331  1.6497 -0.0471
  145SAPE     P15915   1.574   3.980  10.575 -0.1631  0.3384 -0.1135
  145SAPE   O1315916   1.661   3.867  10.584  0.0361  0.5199 -0.5927
  145SAPE   O1415917   1.439   3.963  10.635 -0.4376 -0.2076  0.0715
  145SAPE   O1215918   1.652   4.102  10.636  0.2174 -0.3778  0.5358
  145SAPE   O1115919   1.557   4.015  10.417 -0.0477  0.2369 -0.2906
  145SAPE    C115920   1.688   4.026  10.349 -0.0321 -0.4818 -0.4575
  145SAPE    HA15921   1.737   4.117  10.390 -0.8805 -0.7182  1.1487
  145SAPE    HB15922   1.756   3.940  10.369  0.3904 -0.3418 -1.2756
  145SAPE    C215923   1.670   4.042  10.194  0.1756  0.1682 -0.4296
  145SAPE    HS15924   1.769   4.025  10.146  2.2488  3.5921  2.3611
  145SAPE   O2115925   1.611   4.165  10.153  0.3114 -0.2037 -0.6711
  145SAPE   C2115926   1.690   4.261  10.124  0.4483 -0.2025  0.5409
  145SAPE   O2215927   1.812   4.248  10.107  0.2854  0.1860 -0.2052
  145SAPE   C2215928   1.608   4.388  10.111  0.1970  0.2914  0.3368
  145SAPE   H2R15929   1.538   4.380  10.025  0.0806  0.2791  0.4320
  145SAPE   H2S15930   1.556   4.384  10.209 -1.0447  0.5401 -0.3004
  145SAPE    C315931   1.576   3.924  10.146 -0.2998  0.6370 -0.5422
  145SAPE    HX15932   1.471   3.959  10.157 -0.2962  1.5250 -3.0858
  145SAPE    HY15933   1.592   3.836  10.211 -1.9458 -0.3770 -1.4960
  145SAPE   O3115934   1.599   3.899  10.005 -0.0007  0.2290  0.0762
  145SAPE   C3115935   1.698   3.813   9.979  0.4611  0.6153 -0.7473
  145SAPE   O3215936   1.764   3.761  10.062  0.1682 -0.0037  0.5331
  145SAPE   C3215937   1.731   3.802   9.833  0.3466  0.0690 -0.7031
  145SAPE   H2X15938   1.665   3.873   9.778 -2.4575 -1.8454  0.0438
  145SAPE   H2Y15939   1.692   3.704   9.798 -0.6887 -0.2646  1.2820
  145SAPE   C2315940   1.700   4.506  10.101 -0.3401 -0.7568  0.6198
  145SAPE   H3R15941   1.793   4.498  10.161  1.1913  0.2586 -1.5435
  145SAPE   H3S15942   1.649   4.595  10.143  2.8289  1.3535  0.1333
  145SAPE   C2415943   1.729   4.542   9.955  0.5527 -0.3200 -0.5739
  145SAPE   H4R15944   1.631   4.544   9.903  0.3210  0.3598 -0.1113
  145SAPE   H4S15945   1.783   4.460   9.903  0.9529 -0.4352  0.0243
  145SAPE   C2515946   1.794   4.678   9.931  0.3395  0.6079  0.1483
  145SAPE   H5R15947   1.832   4.727  10.022  0.3413  1.4594 -0.3086
  145SAPE   C2615948   1.799   4.741   9.813  0.4541  0.2516  0.0691
  145SAPE   H6R15949   1.853   4.837   9.816 -0.8835  1.0365 -0.2936
  145SAPE   C2715950   1.747   4.692   9.674  0.4035 -0.0406 -0.0242
  145SAPE   H7R15951   1.669   4.616   9.692  2.4575 -2.3226 -0.5765
  145SAPE   H7S15952   1.826   4.646   9.611  1.2778  2.5294 -0.9009
  145SAPE   C2815953   1.663   4.796   9.598  0.8405 -0.1751  0.3166
  145SAPE   H8R15954   1.589   4.854   9.655  0.9100  2.0835 -1.7846
  145SAPE   C2915955   1.688   4.828   9.469 -0.2419 -0.6439 -0.2449
  145SAPE   H9R15956   1.616   4.891   9.414  1.1961 -0.1465 -1.6192
  145SAPE  C21015957   1.805   4.780   9.388  0.6030 -0.6765 -0.0431
  145SAPE  H10R15958   1.765   4.695   9.328 -0.6872  0.3941 -0.7378
  145SAPE  H10S15959   1.894   4.760   9.450  0.1521 -1.9954  0.1835
  145SAPE  C21115960   1.852   4.895   9.301  0.4006 -0.1327  0.4014
  145SAPE  H11R15961   1.934   4.958   9.339 -1.8041  2.6361  0.7751
  145SAPE  C21215962   1.809   4.932   9.176  0.9005 -0.1543  0.5136
  145SAPE  H12R15963   1.848   5.025   9.133  1.0377  0.5234  2.0999
  145SAPE  C21315964   1.706   4.875   9.081 -0.5256  0.3957 -0.7156
  145SAPE  H13R15965   1.618   4.942   9.073 -1.0918 -0.2251  0.1453
  145SAPE  H13S15966   1.670   4.781   9.129  1.8573 -0.3827 -0.3735
  145SAPE  C21415967   1.768   4.846   8.946 -0.5440 -0.5834  1.3969
  145SAPE  H14R15968   1.859   4.899   8.917 -1.2250  0.7606  1.6873
  145SAPE  C21515969   1.734   4.749   8.868 -0.1988  0.0464  0.4215
  145SAPE  H15R15970   1.787   4.734   8.773 -0.1438  3.3239 -0.1509
  145SAPE  C21615971   1.623   4.644   8.896 -0.5779  0.3097 -0.1929
  145SAPE  H16R15972   1.543   4.665   8.971  0.9351 -1.2976  1.9123
  145SAPE  H16S15973   1.672   4.552   8.933 -0.8342  0.7085  1.1500
  145SAPE  C21715974   1.550   4.618   8.766  0.4739 -0.0997 -0.5707
  145SAPE  H17R15975   1.470   4.541   8.766 -0.1762  0.5469 -2.0526
  145SAPE  H17S15976   1.613   4.593   8.678  0.0626 -0.9114 -0.6404
  145SAPE  C21815977   1.473   4.741   8.728 -0.6503  0.5142  0.2243
  145SAPE  H18R15978   1.532   4.835   8.718 -0.8535  0.4431 -1.8712
  145SAPE  H18S15979   1.386   4.761   8.795  0.1037  1.2450  0.9868
  145SAPE  C21915980   1.409   4.726   8.585 -0.1419  0.3981  0.2515
  145SAPE  H19R15981   1.336   4.807   8.564 -0.3699 -0.6630 -3.4119
  145SAPE  H19S15982   1.347   4.634   8.593 -1.0329  0.7454 -2.3486
  145SAPE  C22015983   1.503   4.720   8.462 -0.1019 -0.5418 -0.3314
  145SAPE  H20R15984   1.541   4.822   8.439  0.4257 -0.9780 -1.4311
  145SAPE  H20S15985   1.448   4.678   8.375 -0.4749  1.2387 -0.9705
  145SAPE  H20T15986   1.592   4.656   8.482  1.4893  1.7053 -0.0618
  145SAPE   C3315987   1.877   3.831   9.809 -0.2881  0.5876 -0.2176
  145SAPE   H3X15988   1.937   3.737   9.798 -3.3915 -1.3485 -1.2405
  145SAPE   H3Y15989   1.934   3.888   9.885 -0.7444 -0.1938  0.7199
  145SAPE   C3415990   1.891   3.916   9.682 -0.4104  0.4634  0.7995
  145SAPE   H4X15991   1.993   3.959   9.679 -0.2506  0.1177  1.3183
  145SAPE   H4Y15992   1.824   4.004   9.688 -1.1849  0.1105 -1.9773
  145SAPE   C3515993   1.855   3.842   9.548 -0.2923  0.2683  0.1223
  145SAPE   H5X15994   1.746   3.827   9.528 -0.0614 -4.5622  1.6629
  145SAPE   H5Y15995   1.907   3.745   9.562 -1.5675 -0.5107 -0.4182
  145SAPE   C3615996   1.905   3.917   9.419  0.2730  0.4140  0.2302
  145SAPE   H6X15997   2.012   3.944   9.433 -0.2471  1.4970  2.3268
  145SAPE   H6Y15998   1.852   4.014   9.433 -1.3677 -0.5441  0.7601
  145SAPE   C3715999   1.865   3.847   9.289  0.6913  0.7556 -0.3991
  145SAPE   H7X16000   1.757   3.821   9.285  0.6264  0.3852  2.4582
  145SAPE   H7Y16001   1.923   3.753   9.289 -1.1783 -0.4108 -1.3273
  145SAPE   C3816002   1.912   3.922   9.162  0.1152 -0.4379  0.0382
  145SAPE   H8X16003   1.872   4.025   9.159  1.4819  0.1246  1.1065
  145SAPE   H8Y16004   1.885   3.872   9.067 -0.5987  0.5135 -0.2663
  145SAPE   C3916005   2.062   3.942   9.149 -0.2700 -0.0484  0.2385
  145SAPE   H9X16006   2.115   3.848   9.126 -3.3453 -1.7475 -0.1919
  145SAPE   H9Y16007   2.105   3.990   9.240  0.4339 -0.5986  0.1957
  145SAPE  C31016008   2.094   4.033   9.033 -0.5240 -0.7355  0.3922
  145SAPE  H10X16009   2.034   4.126   9.045 -1.9430 -1.5964  0.0634
  145SAPE  H10Y16010   2.072   3.985   8.936  0.0646  0.8944 -0.5701
  145SAPE  C31116011   2.239   4.081   9.042 -0.2892  0.6391 -0.4329
  145SAPE  H11X16012   2.309   3.996   9.022 -0.0135  1.0259 -1.1321
  145SAPE  H11Y16013   2.259   4.129   9.140 -2.7516  2.0878 -0.5982
  145SAPE  C31216014   2.276   4.194   8.948 -0.0125 -0.1555 -0.3662
  145SAPE  H12X16015   2.212   4.283   8.972 -0.0661 -0.5559  1.0331
  145SAPE  H12Y16016   2.248   4.158   8.847  1.6573  1.8485 -1.5972
  145SAPE  C31316017   2.429   4.235   8.935 -0.4987 -0.3054 -0.0881
  145SAPE  H13X16018   2.494   4.145   8.932 -0.3230 -0.1260 -2.4292
  145SAPE  H13Y16019   2.451   4.285   9.032 -3.0776 -0.3732  0.5762
  145SAPE  C31416020   2.459   4.304   8.808  0.3026 -0.8425  0.6415
  145SAPE  H14X16021   2.384   4.384   8.787  0.3432 -1.3230 -1.4342
  145SAPE  H14Y16022   2.424   4.234   8.729  2.9055 -0.6965 -0.6825
  145SAPE  C31516023   2.593   4.365   8.797 -0.1749 -0.6195  0.9795
  145SAPE  H15X16024   2.672   4.297   8.838  2.9069  1.6439 -0.9488
  145SAPE  H15Y16025   2.597   4.445   8.873 -0.2950 -1.4217  1.8370
  145SAPE  C31616026   2.638   4.424   8.655  0.2987  0.1628 -0.0026
  145SAPE  H16X16027   2.568   4.509   8.639  1.1268  0.9976  0.7426
  145SAPE  H16Y16028   2.611   4.347   8.579 -0.6606  1.6870 -1.2294
  145SAPE  C31716029   2.785   4.461   8.640  0.7618 -0.2799 -0.1592
  145SAPE  H17X16030   2.857   4.378   8.660  0.0380 -0.8142  0.2465
  145SAPE  H17Y16031   2.805   4.545   8.710 -1.1965  1.6720 -1.8641
  145SAPE  C31816032   2.816   4.514   8.499 -0.7088  0.3978 -0.6524
  145SAPE  H18X16033   2.761   4.609   8.484  2.5923  2.0146 -2.8515
  145SAPE  H18Y16034   2.791   4.431   8.429 -0.8718  1.0899 -1.4128
  145SAPE  H18Z16035   2.925   4.529   8.505 -1.0272  2.1788  1.7032
  146SAPE     N16036   0.794   4.830  10.681 -1.0237 -0.1909 -0.0040
  146SAPE   HN116037   0.822   4.749  10.741  0.8380  1.3232  1.2224
  146SAPE   HN216038   0.812   4.923  10.724  1.7356  0.0779 -1.5959
  146SAPE   HN316039   0.695   4.827  10.649 -0.2206 -2.3708 -2.4373
  146SAPE   C1216040   0.874   4.845  10.550  0.1873 -0.0086  0.1995
  146SAPE  H12A16041   0.819   4.928  10.501  0.5550 -0.3556 -0.8013
  146SAPE  H12B16042   0.852   4.752  10.493 -3.0878  1.2404 -0.7385
  146SAPE   C1116043   1.018   4.885  10.587 -0.2619  0.6684 -0.5722
  146SAPE  H11A16044   1.079   4.876  10.494 -2.7711 -2.7176 -2.0102
  146SAPE  H11B16045   1.063   4.801  10.645  1.8251  0.7624 -2.0079
  146SAPE     P16046   1.057   5.149  10.616 -0.0507 -0.5277 -0.3387
  146SAPE   O1316047   0.973   5.240  10.693 -0.3584 -0.4777 -0.2663
  146SAPE   O1416048   1.205   5.164  10.628  0.7677  0.1497 -0.1558
  146SAPE   O1216049   1.028   5.001  10.661  0.4689 -0.0221 -0.1657
  146SAPE   O1116050   1.005   5.154  10.463 -0.0198  0.0828 -0.5455
  146SAPE    C116051   1.104   5.194  10.364  0.9014 -0.1477 -0.1307
  146SAPE    HA16052   1.190   5.128  10.342  0.4064 -0.6890 -0.4580
  146SAPE    HB16053   1.044   5.179  10.272  0.7339 -0.2252 -0.0100
  146SAPE    C216054   1.131   5.351  10.366 -0.5053  0.4842  0.2210
  146SAPE    HS16055   1.181   5.372  10.463  1.0210 -1.8758 -0.0272
  146SAPE   O2116056   1.007   5.412  10.371  0.2517 -0.0060 -0.2764
  146SAPE   C2116057   1.003   5.541  10.401  0.7573  0.3441  0.1863
  146SAPE   O2216058   1.095   5.618  10.421 -0.5943 -0.3990  0.3541
  146SAPE   C2216059   0.856   5.580  10.404 -0.1796 -0.1905 -0.2466
  146SAPE   H2R16060   0.796   5.543  10.318 -0.0228  0.6308 -0.7199
  146SAPE   H2S16061   0.816   5.518  10.487 -0.9335  1.6281  0.7988
  146SAPE    C316062   1.211   5.396  10.241  0.0293  0.2567 -1.0048
  146SAPE    HX16063   1.317   5.367  10.257  0.1806  0.7197 -1.1685
  146SAPE    HY16064   1.214   5.507  10.235  1.7155  0.4140  1.8094
  146SAPE   O3116065   1.171   5.321  10.122  0.1857 -0.2459  0.3080
  146SAPE   C3116066   1.084   5.398  10.043  0.1341 -0.7190 -0.0844
  146SAPE   O3216067   1.066   5.515  10.055  0.3120 -0.3120 -0.1148
  146SAPE   C3216068   1.024   5.313   9.938 -0.2961 -0.1507 -0.4431
  146SAPE   H2X16069   0.917   5.290   9.955  0.1375 -0.8152  1.4618
  146SAPE   H2Y16070   1.080   5.218   9.939  0.6708  0.4143 -0.3194
  146SAPE   C2316071   0.835   5.729  10.441  0.2498  0.4307 -0.2234
  146SAPE   H3R16072   0.924   5.793  10.462  0.3455  0.4441 -0.6556
  146SAPE   H3S16073   0.762   5.748  10.522  0.4112 -1.0795  0.2803
  146SAPE   C2416074   0.766   5.804  10.316 -0.1274  0.2492  0.2435
  146SAPE   H4R16075   0.757   5.914  10.331 -2.2215 -0.1039  1.9272
  146SAPE   H4S16076   0.661   5.768  10.307 -0.2985  0.7386  0.2127
  146SAPE   C2516077   0.838   5.772  10.187 -0.0132 -0.0319  0.0821
  146SAPE   H5R16078   0.947   5.787  10.192  0.0256  0.3310 -1.4993
  146SAPE   C2616079   0.789   5.700  10.084  0.3929  0.2171 -0.6670
  146SAPE   H6R16080   0.855   5.670  10.001 -1.7543 -1.9501 -1.6739
  146SAPE   C2716081   0.654   5.634  10.076  0.0095  0.3233 -0.3483
  146SAPE   H7R16082   0.603   5.605  10.170 -0.2793  1.0932 -0.2656
  146SAPE   H7S16083   0.669   5.545  10.010 -0.3262  0.4216 -0.5607
  146SAPE   C2816084   0.561   5.713   9.992  0.0454  0.0692 -0.8352
  146SAPE   H8R16085   0.535   5.809  10.039  1.1575 -0.2712  0.5080
  146SAPE   C2916086   0.517   5.692   9.865  0.3047 -0.2605 -0.1359
  146SAPE   H9R16087   0.451   5.769   9.824  0.1702 -0.7421 -0.8133
  146SAPE  C21016088   0.548   5.574   9.777  0.3077  0.5116 -0.9833
  146SAPE  H10R16089   0.450   5.548   9.731 -0.8447  1.0703  1.0598
  146SAPE  H10S16090   0.589   5.491   9.838 -2.1756  1.7847  2.6212
  146SAPE  C21116091   0.649   5.581   9.665 -0.1229  0.3634  0.4250
  146SAPE  H11R16092   0.745   5.622   9.698 -0.2502  1.7841 -0.9094
  146SAPE  C21216093   0.630   5.556   9.530  0.2110 -0.1266 -0.0410
  146SAPE  H12R16094   0.716   5.584   9.467  0.7935 -0.3229  0.6563
  146SAPE  C21316095   0.503   5.523   9.468  0.3643 -0.1236  0.3646
  146SAPE  H13R16096   0.536   5.519   9.362  1.9241  2.1319  0.7155
  146SAPE  H13S16097   0.434   5.610   9.476  1.2201  0.8491 -2.2416
  146SAPE  C21416098   0.423   5.401   9.500 -0.2271  0.4299 -0.1985
  146SAPE  H14R16099   0.427   5.373   9.606 -0.3675  0.2893 -0.2299
  146SAPE  C21516100   0.329   5.364   9.414  0.6020  0.2616 -0.9394
  146SAPE  H15R16101   0.271   5.271   9.427  0.0037  0.6818 -0.5635
  146SAPE  C21616102   0.304   5.417   9.276 -0.1585 -0.0942 -0.0098
  146SAPE  H16R16103   0.385   5.486   9.245 -0.5434  0.6612  0.6295
  146SAPE  H16S16104   0.201   5.455   9.258 -0.0920 -0.2193 -0.6712
  146SAPE  C21716105   0.320   5.304   9.169  0.0663  0.6193  0.6744
  146SAPE  H17R16106   0.240   5.230   9.191 -0.1274  0.2487 -1.1969
  146SAPE  H17S16107   0.415   5.249   9.190  1.1408  2.0195 -0.4372
  146SAPE  C21816108   0.303   5.344   9.028 -0.4260 -0.3493 -0.1087
  146SAPE  H18R16109   0.193   5.346   9.009 -0.7768 -2.0428  1.5287
  146SAPE  H18S16110   0.326   5.257   8.962 -3.7825 -2.9983  2.0170
  146SAPE  C21916111   0.358   5.477   8.978  0.3665 -0.0951  0.1146
  146SAPE  H19R16112   0.469   5.469   8.984  0.4954  0.2380 -1.5406
  146SAPE  H19S16113   0.330   5.562   9.045 -2.7978 -0.3196 -0.8419
  146SAPE  C22016114   0.329   5.513   8.831  0.8287 -0.4078 -0.3882
  146SAPE  H20R16115   0.301   5.421   8.776  1.3897  0.5683 -2.3487
  146SAPE  H20S16116   0.417   5.567   8.790 -1.0419  2.5120 -0.7534
  146SAPE  H20T16117   0.239   5.578   8.828  1.4381  0.6575  2.9191
  146SAPE   C3316118   1.035   5.387   9.804 -1.0689  0.1725 -0.3125
  146SAPE   H3X16119   1.129   5.444   9.789 -0.5225 -0.0479  2.0605
  146SAPE   H3Y16120   0.954   5.455   9.773 -1.0638 -1.0778 -3.2649
  146SAPE   C3416121   1.042   5.289   9.687  0.3436 -0.4514 -0.0594
  146SAPE   H4X16122   0.969   5.207   9.705 -0.9025  0.7121  0.2874
  146SAPE   H4Y16123   1.137   5.232   9.691  1.6641  1.5800 -1.9824
  146SAPE   C3516124   1.037   5.357   9.548 -0.5330 -0.6067  0.1904
  146SAPE   H5X16125   1.101   5.448   9.557 -1.5823  0.3473 -1.6949
  146SAPE   H5Y16126   0.934   5.389   9.523  0.1182  0.7895 -0.7630
  146SAPE   C3616127   1.102   5.273   9.435  0.0473 -0.5114 -0.0411
  146SAPE   H6X16128   1.042   5.181   9.447 -1.3493  0.4632  0.4597
  146SAPE   H6Y16129   1.206   5.235   9.450  0.4817  0.7236  0.1397
  146SAPE   C3716130   1.090   5.343   9.308  0.2191  0.4722 -0.9546
  146SAPE   H7X16131   1.155   5.432   9.294 -1.2932  1.6534 -0.7092
  146SAPE   H7Y16132   0.983   5.374   9.301  0.8194  3.2650  1.3755
  146SAPE   C3816133   1.137   5.256   9.187 -0.6623 -0.2600 -0.1457
  146SAPE   H8X16134   1.073   5.166   9.183 -0.1546 -0.7445  2.0943
  146SAPE   H8Y16135   1.241   5.224   9.208 -0.0837  1.1293 -0.7924
  146SAPE   C3916136   1.121   5.316   9.055  0.1444  0.3040 -0.4229
  146SAPE   H9X16137   1.185   5.403   9.026 -1.1436  0.4457 -2.9893
  146SAPE   H9Y16138   1.012   5.335   9.045  0.3578  2.3931  0.8163
  146SAPE  C31016139   1.145   5.214   8.934 -0.3060 -0.7306  0.8672
  146SAPE  H10X16140   1.100   5.261   8.844 -1.8020  2.1723  3.0355
  146SAPE  H10Y16141   1.085   5.123   8.952 -0.5379 -0.6196  0.6665
  146SAPE  C31116142   1.294   5.179   8.916  0.4258  0.1465 -0.3197
  146SAPE  H11X16143   1.329   5.121   9.004  1.3539  0.1307 -0.6947
  146SAPE  H11Y16144   1.357   5.270   8.923  2.9108 -1.3923 -1.6561
  146SAPE  C31216145   1.317   5.106   8.780 -0.0438  0.1580 -0.2927
  146SAPE  H12X16146   1.260   5.012   8.770  0.7050 -0.2742 -0.6005
  146SAPE  H12Y16147   1.421   5.067   8.771  0.0792  0.3151  0.4099
  146SAPE  C31316148   1.303   5.193   8.660 -0.4976  0.6354 -0.1669
  146SAPE  H13X16149   1.200   5.227   8.638 -0.5849  0.0091 -0.7256
  146SAPE  H13Y16150   1.320   5.120   8.578  2.2893  0.9828  0.0608
  146SAPE  C31416151   1.399   5.308   8.646  0.0151  0.6078 -0.2819
  146SAPE  H14X16152   1.497   5.256   8.652  0.7734  1.9683 -0.4675
  146SAPE  H14Y16153   1.398   5.382   8.730 -1.6785  1.1141 -0.7323
  146SAPE  C31516154   1.391   5.391   8.519  0.1382 -0.7323 -0.5453
  146SAPE  H15X16155   1.413   5.330   8.429 -2.2370  1.0121 -2.3892
  146SAPE  H15Y16156   1.474   5.464   8.529  0.3800 -1.0472 -0.2587
  146SAPE  C31616157   1.267   5.472   8.510  0.0085 -0.6144 -0.1931
  146SAPE  H16X16158   1.267   5.553   8.586  0.3289  0.9082 -1.8119
  146SAPE  H16Y16159   1.177   5.411   8.535 -1.0075  0.8050 -0.3289
  146SAPE  C31716160   1.244   5.550   8.378 -0.0178 -0.1214  0.2739
  146SAPE  H17X16161   1.237   5.483   8.289 -1.3125  0.6996 -0.2511
  146SAPE  H17Y16162   1.338   5.607   8.363 -0.9939  1.1430 -1.2216
  146SAPE  C31816163   1.133   5.649   8.379  0.5827 -0.4840 -0.6378
  146SAPE  H18X16164   1.144   5.720   8.294 -0.1350 -0.2052 -0.4994
  146SAPE  H18Y16165   1.142   5.712   8.470  0.0113 -0.4749 -0.5863
  146SAPE  H18Z16166   1.029   5.612   8.371 -0.6745  2.2018  2.1499
  147SAPE     N16167   2.091   1.978  10.862  0.4674  0.0308 -0.4493
  147SAPE   HN116168   2.156   2.043  10.813  2.4774 -1.6972 -0.1162
  147SAPE   HN216169   2.037   1.914  10.800  1.3878 -1.4702  0.2848
  147SAPE   HN316170   2.033   2.027  10.934 -0.2128  0.0369 -0.9894
  147SAPE   C1216171   2.177   1.879  10.937  0.4350  0.2989  0.2872
  147SAPE  H12A16172   2.118   1.805  10.995 -0.8744  0.5196 -0.7378
  147SAPE  H12B16173   2.232   1.940  11.012 -0.4990  0.1123  1.1461
  147SAPE   C1116174   2.268   1.800  10.838  0.4714  0.2439  0.5352
  147SAPE  H11A16175   2.361   1.771  10.892  1.2416  0.8403 -0.4503
  147SAPE  H11B16176   2.294   1.869  10.754  1.2869 -1.1092 -0.3390
  147SAPE     P16177   2.156   1.569  10.868 -0.0767  0.4387  0.1758
  147SAPE   O1316178   2.236   1.579  10.991 -0.4860  0.2667 -0.8216
  147SAPE   O1416179   2.011   1.573  10.878 -0.2294  0.4450 -0.1836
  147SAPE   O1216180   2.202   1.687  10.779 -0.3323 -0.0758 -0.2638
  147SAPE   O1116181   2.209   1.435  10.801  0.2527 -0.2253 -0.0041
  147SAPE    C116182   2.303   1.417  10.700 -0.4206  0.4056 -0.6010
  147SAPE    HA16183   2.360   1.510  10.678 -0.2846 -0.2635 -3.3772
  147SAPE    HB16184   2.377   1.341  10.734 -0.0746 -0.7883 -3.7446
  147SAPE    C216185   2.243   1.373  10.561 -0.3187 -0.3251  0.3535
  147SAPE    HS16186   2.327   1.347  10.493 -1.9985  0.8866 -2.2608
  147SAPE   O2116187   2.154   1.473  10.499 -0.2856  0.2249  0.2786
  147SAPE   C2116188   2.221   1.577  10.456  0.7771 -0.2048  0.7867
  147SAPE   O2216189   2.342   1.583  10.443 -0.1112 -0.2530 -0.3105
  147SAPE   C2216190   2.120   1.691  10.440 -0.4880 -0.1241  0.1670
  147SAPE   H2R16191   2.022   1.649  10.471 -0.4130  0.8278  1.7634
  147SAPE   H2S16192   2.146   1.763  10.520  0.0212  0.9601 -0.9622
  147SAPE    C316193   2.157   1.242  10.575  0.1481 -0.2875  0.4172
  147SAPE    HX16194   2.069   1.261  10.640  0.5471 -1.6410  1.3664
  147SAPE    HY16195   2.225   1.174  10.631 -0.4792 -1.0261  0.2905
  147SAPE   O3116196   2.119   1.172  10.451 -0.5907 -0.0059  0.2780
  147SAPE   C3116197   1.997   1.185  10.426 -0.0807  0.5484 -0.4671
  147SAPE   O3216198   1.909   1.232  10.497 -0.2782 -0.0695 -0.7134
  147SAPE   C3216199   1.968   1.117  10.290 -0.4680 -0.1974 -0.2435
  147SAPE   H2X16200   1.873   1.158  10.250 -0.5962 -1.4969 -1.3137
  147SAPE   H2Y16201   1.954   1.007  10.303  0.2520 -0.1638  0.8560
  147SAPE   C2316202   2.128   1.756  10.303 -0.0979  0.3255 -0.0325
  147SAPE   H3R16203   2.232   1.765  10.266  0.0454  0.3688  0.3773
  147SAPE   H3S16204   2.080   1.857  10.299  0.3252  0.4476 -3.7900
  147SAPE   C2416205   2.043   1.677  10.197  0.1510 -0.2605  0.6126
  147SAPE   H4R16206   2.036   1.752  10.116 -1.1275  0.0304  0.9715
  147SAPE   H4S16207   1.939   1.673  10.238 -0.7255  3.5034 -1.0200
  147SAPE   C2516208   2.101   1.540  10.174  0.3646  0.0232 -0.1933
  147SAPE   H5R16209   2.069   1.462  10.246 -2.0105 -2.2796 -3.5926
  147SAPE   C2616210   2.172   1.496  10.068 -0.7101  0.0700 -0.6479
  147SAPE   H6R16211   2.204   1.391  10.069  0.3061  0.3627  1.4070
  147SAPE   C2716212   2.216   1.585   9.955 -0.0335  0.6079  0.2979
  147SAPE   H7R16213   2.326   1.571   9.944 -0.4005 -0.7627 -2.0056
  147SAPE   H7S16214   2.213   1.693   9.981  1.8819  0.4769  1.1856
  147SAPE   C2816215   2.135   1.567   9.829  0.4041 -0.3171 -0.1038
  147SAPE   H8R16216   2.033   1.529   9.847  0.0111  0.0916 -1.3729
  147SAPE   C2916217   2.168   1.603   9.705  0.9895  0.0079  0.2103
  147SAPE   H9R16218   2.096   1.585   9.624 -0.9085  2.9225  1.1603
  147SAPE  C21016219   2.293   1.675   9.658 -0.2568  0.3849 -0.6829
  147SAPE  H10R16220   2.350   1.716   9.744  0.9850 -3.0267  0.2021
  147SAPE  H10S16221   2.263   1.762   9.597 -2.4316  0.6810  0.7539
  147SAPE  C21116222   2.379   1.599   9.565  0.3398  0.5201  0.2630
  147SAPE  H11R16223   2.445   1.525   9.612  0.5117  0.9479  0.6968
  147SAPE  C21216224   2.394   1.620   9.431  0.4008  0.7354  0.8225
  147SAPE  H12R16225   2.461   1.555   9.372 -1.5174  0.0214 -0.6357
  147SAPE  C21316226   2.335   1.732   9.349  0.2704  0.2778  0.0757
  147SAPE  H13R16227   2.412   1.798   9.305  0.5949 -0.3776 -0.3633
  147SAPE  H13S16228   2.274   1.799   9.413  1.2411  1.3050 -0.0803
  147SAPE  C21416229   2.248   1.663   9.239  0.3207 -0.1620 -0.4734
  147SAPE  H14R16230   2.153   1.627   9.281 -0.1963 -0.5150 -1.9050
  147SAPE  C21516231   2.278   1.665   9.105 -0.1022 -0.1381  0.2868
  147SAPE  H15R16232   2.202   1.625   9.037 -3.0539 -1.6394  4.2779
  147SAPE  C21616233   2.407   1.706   9.054 -0.5298 -0.5426 -0.3107
  147SAPE  H16R16234   2.471   1.618   9.034  0.0261  0.3454 -2.5836
  147SAPE  H16S16235   2.478   1.757   9.123  1.8993  1.1202 -3.8390
  147SAPE  C21716236   2.399   1.813   8.939 -0.0858 -0.1774 -0.0945
  147SAPE  H17R16237   2.505   1.829   8.909  0.7534 -0.4229  2.6038
  147SAPE  H17S16238   2.360   1.909   8.979  2.3125  0.7054  0.2158
  147SAPE  C21816239   2.332   1.750   8.815  0.1475 -0.8517 -0.2720
  147SAPE  H18R16240   2.232   1.710   8.839  0.8537 -1.3465  1.9980
  147SAPE  H18S16241   2.395   1.659   8.804 -0.4836 -1.3370  0.0921
  147SAPE  C21916242   2.342   1.826   8.684 -0.6440  0.0939 -0.1043
  147SAPE  H19R16243   2.263   1.904   8.682 -0.3415  0.3733 -1.5214
  147SAPE  H19S16244   2.331   1.745   8.608  2.8565 -1.4078  0.8807
  147SAPE  C22016245   2.480   1.882   8.665 -0.2459 -0.4625 -0.2123
  147SAPE  H20R16246   2.549   1.795   8.661  1.8258  1.1058  0.4270
  147SAPE  H20S16247   2.506   1.956   8.744  1.3614 -1.5134  0.2594
  147SAPE  H20T16248   2.484   1.935   8.567 -1.2658 -0.8938 -0.4908
  147SAPE   C3316249   2.082   1.131  10.192 -0.7519 -0.4539 -0.0381
  147SAPE   H3X16250   2.171   1.079  10.234 -1.2472 -1.3981 -0.1415
  147SAPE   H3Y16251   2.108   1.239  10.187 -0.0865 -0.3853  3.4789
  147SAPE   C3416252   2.051   1.083  10.051  0.1528  0.0694 -1.2416
  147SAPE   H4X16253   2.139   1.102   9.985  0.9621 -0.4338 -0.3225
  147SAPE   H4Y16254   1.960   1.132  10.011  0.2510  1.1641 -0.1700
  147SAPE   C3516255   2.024   0.933  10.031 -0.3294 -0.1938  0.0458
  147SAPE   H5X16256   1.932   0.914  10.090  0.4853  2.2369  2.2147
  147SAPE   H5Y16257   2.105   0.870  10.075  1.4417  3.1551  1.8063
  147SAPE   C3616258   1.989   0.905   9.884  0.3647  0.3388 -0.7606
  147SAPE   H6X16259   2.084   0.919   9.828  0.7793  3.6642  0.6909
  147SAPE   H6Y16260   1.917   0.982   9.847  0.7899  1.4579  0.6842
  147SAPE   C3716261   1.925   0.773   9.857  0.6797  0.3573 -0.2473
  147SAPE   H7X16262   1.829   0.768   9.913 -0.4370  0.7962 -2.0754
  147SAPE   H7Y16263   1.982   0.690   9.902  0.1280 -0.7806 -1.6078
  147SAPE   C3816264   1.904   0.749   9.707 -0.2224 -0.2665  0.0478
  147SAPE   H8X16265   1.931   0.643   9.689  0.6734 -0.0614  0.1518
  147SAPE   H8Y16266   1.973   0.798   9.635  0.4464  1.0339  1.5294
  147SAPE   C3916267   1.757   0.763   9.667 -0.0115 -0.5163  0.4814
  147SAPE   H9X16268   1.706   0.853   9.709  1.5130 -0.0255  1.3517
  147SAPE   H9Y16269   1.701   0.673   9.701  0.8325 -0.8637  0.9664
  147SAPE  C31016270   1.727   0.779   9.519 -0.4397 -0.3687 -0.1777
  147SAPE  H10X16271   1.617   0.789   9.510 -0.4802  1.4970  2.2783
  147SAPE  H10Y16272   1.768   0.688   9.469  2.1990  0.1164  1.0315
  147SAPE  C31116273   1.796   0.909   9.458 -0.0312 -0.2454 -0.3448
  147SAPE  H11X16274   1.905   0.903   9.478 -0.0867 -0.7959 -0.1960
  147SAPE  H11Y16275   1.756   1.006   9.493  2.1173  1.3041 -2.0109
  147SAPE  C31216276   1.773   0.897   9.306 -0.0404 -0.3405  0.6999
  147SAPE  H12X16277   1.664   0.903   9.289  0.2698  0.9020 -1.1202
  147SAPE  H12Y16278   1.813   0.801   9.267  1.6290 -0.5117  2.7097
  147SAPE  C31316279   1.840   1.004   9.233 -0.3913 -0.6259  0.6310
  147SAPE  H13X16280   1.948   1.011   9.261 -0.1391  1.4593 -0.7142
  147SAPE  H13Y16281   1.808   1.102   9.273  1.3534 -0.8525  2.7025
  147SAPE  C31416282   1.826   0.988   9.081  0.3654 -0.4314 -0.3786
  147SAPE  H14X16283   1.718   0.989   9.053  0.6443  0.5947 -1.4342
  147SAPE  H14Y16284   1.875   0.892   9.053  2.4981  0.8769 -1.2204
  147SAPE  C31516285   1.896   1.094   8.988 -0.1465 -0.3954 -0.2371
  147SAPE  H15X16286   1.987   1.121   9.047  2.1734  2.6988 -4.9466
  147SAPE  H15Y16287   1.824   1.178   9.001 -0.7862 -1.2413  1.8303
  147SAPE  C31616288   1.937   1.035   8.858  0.0332  0.0626  0.1833
  147SAPE  H16X16289   1.840   1.020   8.806  0.7569  0.8392 -1.4171
  147SAPE  H16Y16290   1.979   0.933   8.849  2.2767  0.9261  0.4266
  147SAPE  C31716291   2.032   1.126   8.773 -0.0153 -0.3452  1.3281
  147SAPE  H17X16292   1.974   1.216   8.743  1.5046  0.1170 -0.3375
  147SAPE  H17Y16293   2.042   1.065   8.681  1.3776  0.4038  0.9696
  147SAPE  C31816294   2.163   1.176   8.831  0.1701 -0.6464 -0.4135
  147SAPE  H18X16295   2.230   1.089   8.847 -1.6976 -2.1075 -0.3631
  147SAPE  H18Y16296   2.147   1.214   8.934  1.9287 -1.4139  0.1568
  147SAPE  H18Z16297   2.224   1.250   8.775  0.7070  0.1073  1.1249
  148SAPE     N16298   3.117   4.244  10.758  0.5500 -0.0221 -0.5634
  148SAPE   HN116299   3.043   4.273  10.690 -1.5101 -2.9296  0.3521
  148SAPE   HN216300   3.147   4.151  10.722  0.8370 -0.1848  0.0925
  148SAPE   HN316301   3.082   4.223  10.853  3.1038  2.4090  0.9687
  148SAPE   C1216302   3.234   4.337  10.766  0.1159 -0.5094 -0.9138
  148SAPE  H12A16303   3.312   4.287  10.827  0.7836  1.2171 -0.3037
  148SAPE  H12B16304   3.201   4.436  10.806  0.6416  1.6947 -5.6293
  148SAPE   C1116305   3.286   4.366  10.621  0.4780  0.3168 -0.4067
  148SAPE  H11A16306   3.364   4.444  10.628 -1.2820  1.9173  2.1088
  148SAPE  H11B16307   3.200   4.400  10.559 -0.1890  1.2154  0.9905
  148SAPE     P16308   3.474   4.186  10.574  0.6635  0.1194 -0.1795
  148SAPE   O1316309   3.567   4.296  10.599  0.2912 -0.0702  0.4324
  148SAPE   O1416310   3.474   4.088  10.681 -0.0348  0.1873 -0.6157
  148SAPE   O1216311   3.328   4.248  10.561 -0.0732 -0.2558  0.4448
  148SAPE   O1116312   3.486   4.131  10.425  0.1611 -0.2884  0.4002
  148SAPE    C116313   3.394   4.045  10.379  0.6701 -0.0857 -0.0646
  148SAPE    HA16314   3.286   4.058  10.400  0.5343 -2.4254  0.9073
  148SAPE    HB16315   3.400   4.042  10.268  1.2452 -2.6894 -0.0006
  148SAPE    C216316   3.424   3.892  10.405  0.7221 -1.0345  0.0432
  148SAPE    HS16317   3.430   3.879  10.515  1.0934 -0.8341  0.0483
  148SAPE   O2116318   3.545   3.843  10.340  0.1613  0.1312 -0.0917
  148SAPE   C2116319   3.587   3.723  10.389  0.3565  0.4336 -0.2110
  148SAPE   O2216320   3.527   3.658  10.474  0.2088 -0.2421  0.0883
  148SAPE   C2216321   3.733   3.692  10.356 -0.2247  0.2453 -0.0393
  148SAPE   H2R16322   3.770   3.768  10.284 -1.5128  0.9940  0.0782
  148SAPE   H2S16323   3.791   3.693  10.450  1.1163 -0.2027 -0.8501
  148SAPE    C316324   3.299   3.812  10.360 -0.0269  0.2690 -0.3862
  148SAPE    HX16325   3.216   3.870  10.405  0.3739  0.5048  0.0525
  148SAPE    HY16326   3.304   3.713  10.409 -1.6959  0.2498 -0.2431
  148SAPE   O3116327   3.275   3.804  10.223  0.0062 -0.5704  0.1283
  148SAPE   C3116328   3.304   3.699  10.150  0.6723  0.0857 -0.8248
  148SAPE   O3216329   3.337   3.589  10.198 -0.0125 -0.3695 -0.6908
  148SAPE   C3216330   3.292   3.734  10.003 -0.0620 -0.8591 -0.4517
  148SAPE   H2X16331   3.372   3.808   9.982  0.9808 -1.0913  2.4522
  148SAPE   H2Y16332   3.197   3.789   9.984  0.0465 -0.3345  0.4883
  148SAPE   C2316333   3.744   3.555  10.287 -0.0252 -0.0104 -0.1767
  148SAPE   H3R16334   3.703   3.477  10.354  0.8911  2.1789  3.0369
  148SAPE   H3S16335   3.853   3.534  10.288 -0.2734 -1.3782 -0.6268
  148SAPE   C2416336   3.678   3.549  10.148 -0.7880 -0.7332 -0.1096
  148SAPE   H4R16337   3.705   3.641  10.091 -0.3627 -0.2725  0.8288
  148SAPE   H4S16338   3.568   3.548  10.158 -0.7627 -0.0277  0.2783
  148SAPE   C2516339   3.719   3.428  10.067  0.6435 -0.4158  1.0762
  148SAPE   H5R16340   3.744   3.335  10.119  0.7257 -2.1537 -1.9906
  148SAPE   C2616341   3.742   3.430   9.937  0.4299 -0.8326  0.6699
  148SAPE   H6R16342   3.772   3.339   9.884 -0.5208  0.3423 -1.9935
  148SAPE   C2716343   3.720   3.547   9.837  0.5654 -0.1469  0.8462
  148SAPE   H7R16344   3.719   3.643   9.894  0.2590 -1.3182  2.8545
  148SAPE   H7S16345   3.619   3.542   9.792  0.4933  1.0035  0.8552
  148SAPE   C2816346   3.822   3.568   9.727 -0.5814 -0.1217 -0.6037
  148SAPE   H8R16347   3.918   3.531   9.765  0.1258  0.5810 -1.6738
  148SAPE   C2916348   3.800   3.629   9.609  0.5154  0.5359  0.0613
  148SAPE   H9R16349   3.879   3.643   9.533 -0.0458  3.6263 -0.0203
  148SAPE  C21016350   3.662   3.661   9.568 -0.1608  0.0534 -0.1865
  148SAPE  H10R16351   3.666   3.749   9.500 -1.5949  1.4685  1.5101
  148SAPE  H10S16352   3.607   3.701   9.656  1.8055  1.3275  0.5007
  148SAPE  C21116353   3.585   3.549   9.509 -0.8713  0.4315 -0.0832
  148SAPE  H11R16354   3.511   3.510   9.580 -0.6581  0.3192  0.0780
  148SAPE  C21216355   3.599   3.500   9.388  0.0956 -0.5803  0.4165
  148SAPE  H12R16356   3.530   3.420   9.357  1.5680 -1.5135 -0.4755
  148SAPE  C21316357   3.704   3.545   9.281 -0.5876 -0.3351 -0.8844
  148SAPE  H13R16358   3.804   3.500   9.295 -1.0590 -1.5080 -1.2837
  148SAPE  H13S16359   3.726   3.654   9.284  0.3739 -0.5665  0.5835
  148SAPE  C21416360   3.668   3.504   9.140 -0.6155  0.8119  0.1941
  148SAPE  H14R16361   3.616   3.408   9.132  2.3605 -0.6705 -2.6625
  148SAPE  C21516362   3.710   3.565   9.025  0.8786 -0.1416 -0.1077
  148SAPE  H15R16363   3.659   3.529   8.935 -1.0645  1.4735  0.3134
  148SAPE  C21616364   3.804   3.687   9.016  0.3431  0.5243  0.6996
  148SAPE  H16R16365   3.905   3.659   8.982  0.2230  2.3915 -1.3000
  148SAPE  H16S16366   3.820   3.730   9.117  1.3622  0.9260  0.3734
  148SAPE  C21716367   3.740   3.791   8.919  0.6394 -0.5063 -0.1104
  148SAPE  H17R16368   3.814   3.873   8.911 -0.5058  0.5938  0.2718
  148SAPE  H17S16369   3.642   3.824   8.961  0.2947 -0.9070 -0.5876
  148SAPE  C21816370   3.731   3.729   8.779  0.3124 -0.1034 -0.0785
  148SAPE  H18R16371   3.633   3.678   8.773  0.6697 -0.8772  0.6351
  148SAPE  H18S16372   3.809   3.649   8.778  0.0175 -0.3925 -0.1760
  148SAPE  C21916373   3.735   3.836   8.671  0.5824 -0.0159 -0.4810
  148SAPE  H19R16374   3.775   3.786   8.580  0.0108 -0.9544 -0.2251
  148SAPE  H19S16375   3.819   3.908   8.681  0.5630 -0.0319 -0.1950
  148SAPE  C22016376   3.590   3.902   8.656  0.0356  0.5413 -0.1278
  148SAPE  H20R16377   3.515   3.824   8.629  0.6555 -0.1806  0.2197
  148SAPE  H20S16378   3.596   3.988   8.585  1.9003 -0.3920 -1.1334
  148SAPE  H20T16379   3.557   3.946   8.752 -2.9756  0.8543 -1.2402
  148SAPE   C3316380   3.277   3.606   9.914 -0.0195  0.4516  0.2987
  148SAPE   H3X16381   3.188   3.542   9.935 -0.7429  2.3074  3.2763
  148SAPE   H3Y16382   3.368   3.544   9.929  0.0198  0.6971  1.0880
  148SAPE   C3416383   3.269   3.623   9.763  0.9296  0.2432 -0.1240
  148SAPE   H4X16384   3.360   3.670   9.719  0.9969  0.1742 -0.0584
  148SAPE   H4Y16385   3.188   3.685   9.719 -0.0367 -0.3922  0.7366
  148SAPE   C3516386   3.243   3.487   9.687 -0.2700  0.7370 -0.8769
  148SAPE   H5X16387   3.152   3.439   9.731 -0.3184  2.6624  1.2079
  148SAPE   H5Y16388   3.338   3.433   9.702  0.5831  3.1175  2.8075
  148SAPE   C3616389   3.214   3.523   9.541 -0.3030 -0.2337 -0.8445
  148SAPE   H6X16390   3.310   3.575   9.518 -1.5931  2.1575 -0.9532
  148SAPE   H6Y16391   3.136   3.601   9.536  0.5831  0.7573  0.5273
  148SAPE   C3716392   3.174   3.396   9.458 -0.1782 -0.1263 -0.0883
  148SAPE   H7X16393   3.089   3.338   9.499  0.5156 -0.5490  0.7791
  148SAPE   H7Y16394   3.271   3.341   9.457  0.8913  1.6910  1.0122
  148SAPE   C3816395   3.154   3.423   9.304 -0.2116 -0.7532  0.0392
  148SAPE   H8X16396   3.239   3.472   9.251 -2.2582  3.2124  0.3358
  148SAPE   H8Y16397   3.065   3.488   9.302  0.7180  0.5243 -1.0024
  148SAPE   C3916398   3.122   3.304   9.215  0.1030 -1.1088 -0.0859
  148SAPE   H9X16399   3.016   3.275   9.233 -1.0891  3.6170  1.3710
  148SAPE   H9Y16400   3.185   3.215   9.233 -0.2007 -0.9283  1.9222
  148SAPE  C31016401   3.124   3.341   9.063 -0.3642 -0.1250  0.2023
  148SAPE  H10X16402   3.163   3.444   9.045 -2.8457  0.9491  0.7216
  148SAPE  H10Y16403   3.020   3.350   9.025 -1.3409  0.4459  2.8580
  148SAPE  C31116404   3.203   3.237   8.981 -0.2711  0.2232 -0.0811
  148SAPE  H11X16405   3.190   3.135   9.022 -2.7116 -0.1795 -1.7605
  148SAPE  H11Y16406   3.308   3.268   9.000 -0.0130 -1.2549  0.9816
  148SAPE  C31216407   3.191   3.259   8.831  0.3193  1.2897 -0.6272
  148SAPE  H12X16408   3.162   3.365   8.813 -2.0751  0.6981 -0.4074
  148SAPE  H12Y16409   3.102   3.206   8.790 -0.3355  2.2022 -0.4135
  148SAPE  C31316410   3.314   3.218   8.760 -0.3770 -0.6283 -0.3788
  148SAPE  H13X16411   3.407   3.268   8.796  0.7758 -1.3159 -2.3554
  148SAPE  H13Y16412   3.316   3.252   8.654  1.0018 -3.1712 -1.2021
  148SAPE  C31416413   3.336   3.066   8.775  0.2741  0.6461 -0.2654
  148SAPE  H14X16414   3.250   3.019   8.723  0.3744 -2.8144  2.5023
  148SAPE  H14Y16415   3.334   3.027   8.879 -1.9456 -0.2665 -0.6106
  148SAPE  C31516416   3.464   3.017   8.714 -0.2500 -0.4719 -0.5815
  148SAPE  H15X16417   3.553   3.062   8.763 -1.8544  3.4380 -1.1002
  148SAPE  H15Y16418   3.477   3.041   8.606 -1.4643  1.0434 -0.3985
  148SAPE  C31616419   3.473   2.863   8.711  0.3538  0.5711 -0.9971
  148SAPE  H16X16420   3.552   2.844   8.635  0.3653 -3.3809 -0.0872
  148SAPE  H16Y16421   3.379   2.827   8.663  0.2933  0.2104 -0.6087
  148SAPE  C31716422   3.520   2.792   8.833 -0.6694 -0.1810 -0.1728
  148SAPE  H17X16423   3.456   2.816   8.921  0.6296  0.6222  0.5764
  148SAPE  H17Y16424   3.619   2.839   8.853 -1.0555 -0.1403  1.7504
  148SAPE  C31816425   3.530   2.641   8.814  0.3657 -0.6175  0.0850
  148SAPE  H18X16426   3.581   2.594   8.900  2.7481  0.3265 -0.7675
  148SAPE  H18Y16427   3.599   2.611   8.733 -0.7285 -1.9383 -0.3781
  148SAPE  H18Z16428   3.428   2.596   8.804 -0.3280  0.7724  0.7020
  149SAPE     N16429   5.803   6.253  10.617  0.3146 -0.0479 -0.7045
  149SAPE   HN116430   5.782   6.346  10.577  1.3951  0.6803  0.4042
  149SAPE   HN216431   5.904   6.231  10.622 -0.0513 -1.9684 -1.0471
  149SAPE   HN316432   5.754   6.177  10.565 -0.7637 -0.2740  0.6059
  149SAPE   C1216433   5.758   6.269  10.759 -0.4434 -0.2157 -0.6747
  149SAPE  H12A16434   5.656   6.313  10.754 -0.6347 -0.5164  0.4514
  149SAPE  H12B16435   5.804   6.357  10.809 -0.0696 -0.1438 -1.1369
  149SAPE   C1116436   5.757   6.130  10.832 -0.2932  1.0660 -0.6351
  149SAPE  H11A16437   5.679   6.064  10.789 -0.0512  0.1811  0.2841
  149SAPE  H11B16438   5.718   6.143  10.935 -2.3753 -2.1456 -0.9328
  149SAPE     P16439   5.944   5.998  10.949 -0.2452  0.1452 -0.0962
  149SAPE   O1316440   6.006   6.103  11.031 -0.1891 -0.6872  0.0138
  149SAPE   O1416441   5.833   5.911  11.009 -0.1558 -0.3045  0.4238
  149SAPE   O1216442   5.885   6.063  10.821  0.3997  0.2150  0.1327
  149SAPE   O1116443   6.058   5.903  10.897  0.0962  0.4116  0.5557
  149SAPE    C116444   6.075   5.850  10.767  0.1361 -0.4551  0.4045
  149SAPE    HA16445   6.023   5.905  10.686 -0.4452  2.8177  2.8955
  149SAPE    HB16446   6.185   5.864  10.754  0.3046  0.0349  2.1524
  149SAPE    C216447   6.040   5.698  10.764 -0.1723  0.4302  0.5012
  149SAPE    HS16448   6.056   5.663  10.660  1.2294  0.9862  0.5137
  149SAPE   O2116449   5.905   5.666  10.818 -0.2445 -0.5022 -0.3452
  149SAPE   C2116450   5.810   5.710  10.734  0.1144  0.5768 -0.6648
  149SAPE   O2216451   5.835   5.766  10.628  0.1347  0.3826  0.6334
  149SAPE   C2216452   5.675   5.680  10.790  0.5419 -0.2621 -1.1496
  149SAPE   H2R16453   5.656   5.571  10.798 -2.0278  0.1687 -0.8024
  149SAPE   H2S16454   5.669   5.710  10.897  2.8933 -0.7706 -0.8458
  149SAPE    C316455   6.145   5.617  10.845  0.9683 -0.2825  0.7419
  149SAPE    HX16456   6.103   5.582  10.942 -1.4276 -1.1792 -0.5720
  149SAPE    HY16457   6.228   5.686  10.871  0.4966  1.0354 -1.1231
  149SAPE   O3116458   6.195   5.504  10.771  0.2609 -0.5156 -0.2392
  149SAPE   C3116459   6.307   5.522  10.702 -1.0939 -0.4795 -0.1747
  149SAPE   O3216460   6.368   5.629  10.689 -0.1327  0.0110 -0.0621
  149SAPE   C3216461   6.336   5.390  10.621  0.3908  0.3124  0.2372
  149SAPE   H2X16462   6.282   5.301  10.659  1.4735 -1.0571 -1.3643
  149SAPE   H2Y16463   6.444   5.369  10.626  0.7003  1.6485 -0.5265
  149SAPE   C2316464   5.569   5.733  10.689  0.2931 -0.3202  0.2747
  149SAPE   H3R16465   5.584   5.835  10.648  0.5118 -0.1025  0.8919
  149SAPE   H3S16466   5.470   5.731  10.740 -0.0656  0.1536 -0.3945
  149SAPE   C2416467   5.548   5.631  10.571 -0.1879  0.2188  0.3163
  149SAPE   H4R16468   5.651   5.595  10.547  0.4495  4.1558 -3.6003
  149SAPE   H4S16469   5.512   5.696  10.489  0.7848  2.7948  1.8629
  149SAPE   C2516470   5.450   5.526  10.604  0.2524 -0.1584 -0.1733
  149SAPE   H5R16471   5.472   5.481  10.702  0.4589 -1.3839 -0.7770
  149SAPE   C2616472   5.356   5.466  10.527  0.1934 -0.0423 -0.4732
  149SAPE   H6R16473   5.287   5.395  10.573  0.7904 -1.0870 -1.1827
  149SAPE   C2716474   5.314   5.498  10.388 -0.1056  0.1099  0.8365
  149SAPE   H7R16475   5.385   5.563  10.332  0.1260 -0.9196 -0.1099
  149SAPE   H7S16476   5.218   5.553  10.394 -0.0095  0.3424  0.3022
  149SAPE   C2816477   5.297   5.375  10.302  0.2336  0.4831  0.4904
  149SAPE   H8R16478   5.300   5.286  10.366  0.6764  1.4191  1.7979
  149SAPE   C2916479   5.273   5.375  10.173 -0.2526  0.7695  0.7582
  149SAPE   H9R16480   5.257   5.281  10.118 -1.7713  0.8256  1.0844
  149SAPE  C21016481   5.280   5.495  10.081 -0.2213  0.0552  0.0265
  149SAPE  H10R16482   5.312   5.590  10.129  0.9661 -1.0327  1.4677
  149SAPE  H10S16483   5.183   5.504  10.028 -1.2175  2.1086  2.1420
  149SAPE  C21116484   5.393   5.451   9.990 -0.2023 -0.3262  0.2201
  149SAPE  H11R16485   5.482   5.436  10.053  0.9537  0.3820 -1.2297
  149SAPE  C21216486   5.402   5.443   9.855  0.4035  0.3552  0.3151
  149SAPE  H12R16487   5.495   5.406   9.810  0.2775  1.3670 -0.7980
  149SAPE  C21316488   5.287   5.464   9.754 -0.7559 -1.1308 -0.9979
  149SAPE  H13R16489   5.311   5.558   9.698 -1.0373  0.4825  1.5277
  149SAPE  H13S16490   5.193   5.481   9.810  0.7926 -0.3458  1.4282
  149SAPE  C21416491   5.281   5.337   9.668  0.5713 -0.3353  0.5184
  149SAPE  H14R16492   5.255   5.241   9.715 -0.9438  0.0996  0.5980
  149SAPE  C21516493   5.305   5.333   9.535  0.3409 -0.5929  0.5194
  149SAPE  H15R16494   5.301   5.237   9.482  3.9240 -0.9037  0.7460
  149SAPE  C21616495   5.329   5.448   9.444  0.1474 -0.0520 -1.1915
  149SAPE  H16R16496   5.433   5.477   9.470 -0.0704 -0.6927  0.4702
  149SAPE  H16S16497   5.271   5.540   9.465 -0.6644 -0.4335 -1.7258
  149SAPE  C21716498   5.322   5.425   9.294 -0.2474 -0.0470 -0.0611
  149SAPE  H17R16499   5.388   5.345   9.256 -0.9357 -0.8235  0.3573
  149SAPE  H17S16500   5.363   5.519   9.250  1.5044  0.4256  2.4868
  149SAPE  C21816501   5.184   5.388   9.245 -1.1636  0.4619  0.0450
  149SAPE  H18R16502   5.124   5.481   9.236 -0.2258  1.0103 -0.7208
  149SAPE  H18S16503   5.127   5.321   9.313  0.7468 -1.1604  0.0928
  149SAPE  C21916504   5.182   5.325   9.091  0.6404 -0.3014 -0.9385
  149SAPE  H19R16505   5.075   5.308   9.070  0.0306  0.6035  1.3472
  149SAPE  H19S16506   5.237   5.228   9.095  0.6127 -0.2829  0.1725
  149SAPE  C22016507   5.237   5.426   8.990 -0.0468  0.4169 -0.2379
  149SAPE  H20R16508   5.224   5.388   8.887  2.6654 -1.0639 -0.0902
  149SAPE  H20S16509   5.346   5.450   8.996 -0.2984  2.3370 -2.6767
  149SAPE  H20T16510   5.180   5.521   8.991  0.0263  0.4834  1.8415
  149SAPE   C3316511   6.300   5.408  10.474 -0.0904 -0.4025 -0.2305
  149SAPE   H3X16512   6.327   5.312  10.424  0.1615 -0.6062  0.2955
  149SAPE   H3Y16513   6.359   5.494  10.435  1.5388 -0.1608  2.6558
  149SAPE   C3416514   6.160   5.454  10.445 -1.0280 -0.0379 -0.1614
  149SAPE   H4X16515   6.151   5.552  10.496  1.7693 -0.1684  0.6620
  149SAPE   H4Y16516   6.094   5.377  10.491 -0.5739 -1.3607 -1.6926
  149SAPE   C3516517   6.132   5.471  10.295 -0.1135 -0.0391 -0.3218
  149SAPE   H5X16518   6.153   5.373  10.247  0.8425  0.0598 -0.1161
  149SAPE   H5Y16519   6.207   5.543  10.256 -0.4652  1.2413  1.3324
  149SAPE   C3616520   5.992   5.515  10.254 -0.5889  0.3200 -0.6872
  149SAPE   H6X16521   5.962   5.597  10.322  1.0808  0.5015 -0.1575
  149SAPE   H6Y16522   5.921   5.430  10.267 -0.1482  0.0057 -0.3387
  149SAPE   C3716523   5.971   5.571  10.112  0.2373  0.6302 -0.0450
  149SAPE   H7X16524   6.036   5.660  10.109 -2.1505  2.5075  1.6689
  149SAPE   H7Y16525   5.863   5.597  10.125  0.2098  1.1632 -1.2220
  149SAPE   C3816526   5.977   5.465   9.997  0.0219 -0.2094 -0.2097
  149SAPE   H8X16527   5.924   5.375  10.034  1.2318 -0.3057  1.3702
  149SAPE   H8Y16528   6.075   5.423   9.967 -2.4998 -3.5767 -4.2644
  149SAPE   C3916529   5.899   5.517   9.873 -0.8046 -0.1347  0.6063
  149SAPE   H9X16530   5.965   5.599   9.837 -1.8058  1.0182  1.3538
  149SAPE   H9Y16531   5.800   5.550   9.912  0.1878  0.7892  2.4028
  149SAPE  C31016532   5.886   5.412   9.762 -0.3734  0.5642 -0.4676
  149SAPE  H10X16533   5.806   5.339   9.786  0.7027 -0.2157  0.8643
  149SAPE  H10Y16534   5.984   5.361   9.752 -1.4265 -2.1098  2.0862
  149SAPE  C31116535   5.845   5.477   9.629 -0.3369  0.5668  0.4499
  149SAPE  H11X16536   5.941   5.502   9.579 -1.4241 -0.0801 -2.0376
  149SAPE  H11Y16537   5.783   5.567   9.649  1.3912  1.9630 -0.3892
  149SAPE  C31216538   5.766   5.378   9.541  0.3945 -0.3877 -0.3360
  149SAPE  H12X16539   5.678   5.355   9.606  0.6519  2.1057  0.9441
  149SAPE  H12Y16540   5.826   5.285   9.546 -0.2712 -0.7655  0.8021
  149SAPE  C31316541   5.732   5.435   9.402 -0.1088  0.3320 -0.7003
  149SAPE  H13X16542   5.814   5.498   9.362  1.4733 -1.2303 -0.0271
  149SAPE  H13Y16543   5.637   5.490   9.416 -1.3621 -1.8428 -0.4329
  149SAPE  C31416544   5.713   5.330   9.287 -0.2882  0.2194 -0.4929
  149SAPE  H14X16545   5.613   5.284   9.305  0.7280 -1.3871  1.2143
  149SAPE  H14Y16546   5.785   5.247   9.302 -0.6560 -0.3975 -2.0027
  149SAPE  C31516547   5.736   5.397   9.146 -0.1811 -0.8877  0.0731
  149SAPE  H15X16548   5.845   5.399   9.129 -0.1645 -0.2899  0.2332
  149SAPE  H15Y16549   5.690   5.498   9.141 -2.7484 -2.0045  0.3599
  149SAPE  C31616550   5.675   5.312   9.032 -0.0191 -0.0109  0.1608
  149SAPE  H16X16551   5.567   5.289   9.041  0.1384 -1.1023 -0.5940
  149SAPE  H16Y16552   5.729   5.214   9.031  0.9431  0.5157  0.0828
  149SAPE  C31716553   5.690   5.379   8.896  1.0306  1.1470 -0.0072
  149SAPE  H17X16554   5.796   5.405   8.874 -0.0069  2.1743 -4.2782
  149SAPE  H17Y16555   5.638   5.477   8.903 -1.9384 -0.3426 -0.6148
  149SAPE  C31816556   5.645   5.286   8.783 -0.1025  0.1196  0.6116
  149SAPE  H18X16557   5.709   5.195   8.784 -0.1027  0.0956 -1.0477
  149SAPE  H18Y16558   5.651   5.337   8.685  0.3976  1.2879  1.2347
  149SAPE  H18Z16559   5.539   5.263   8.806 -0.3317 -0.5331 -1.0538
  150SAPE     N16560   1.214   4.491  11.123 -0.3058  0.6631 -0.5131
  150SAPE   HN116561   1.195   4.469  11.223 -1.6488  0.0775 -0.8814
  150SAPE   HN216562   1.308   4.535  11.130 -0.1095  0.1662 -0.0367
  150SAPE   HN316563   1.144   4.561  11.090 -0.9406  0.6666  0.8103
  150SAPE   C1216564   1.205   4.384  11.019 -0.3928 -0.8352  0.7558
  150SAPE  H12A16565   1.256   4.295  11.060  1.7592  1.1047  2.4021
  150SAPE  H12B16566   1.241   4.415  10.918  1.2729 -0.5899  1.4253
  150SAPE   C1116567   1.057   4.345  10.999 -0.0695  0.8961 -0.3007
  150SAPE  H11A16568   1.011   4.284  11.080  0.4906  0.5833 -0.2193
  150SAPE  H11B16569   1.055   4.270  10.917  1.4868 -0.8935  1.2535
  150SAPE     P16570   0.983   4.571  10.873  0.0640  0.2840 -0.0699
  150SAPE   O1316571   0.851   4.639  10.851  0.3555  0.1895 -0.5482
  150SAPE   O1416572   1.084   4.652  10.936  0.9016 -0.7691 -0.7587
  150SAPE   O1216573   0.970   4.456  10.971  0.3692 -0.3479  0.1368
  150SAPE   O1116574   1.042   4.511  10.737 -0.5339 -0.1509 -0.5680
  150SAPE    C116575   0.947   4.434  10.662 -0.1447 -0.4215  0.2606
  150SAPE    HA16576   0.900   4.353  10.721  0.4138 -0.7751  0.2249
  150SAPE    HB16577   0.863   4.498  10.628 -0.7090 -0.7363  1.0584
  150SAPE    C216578   1.020   4.372  10.546 -0.4064  0.2816 -0.2054
  150SAPE    HS16579   1.081   4.448  10.493  1.0321 -1.2068 -0.6977
  150SAPE   O2116580   0.923   4.319  10.449  0.1602 -0.0669  0.8652
  150SAPE   C2116581   0.865   4.413  10.377  0.9804  0.4581  0.2921
  150SAPE   O2216582   0.887   4.531  10.374  0.1487  0.3979  0.1542
  150SAPE   C2216583   0.787   4.329  10.274 -0.2322  1.3372  0.0468
  150SAPE   H2R16584   0.856   4.277  10.204 -3.7421  1.1015 -3.4079
  150SAPE   H2S16585   0.718   4.258  10.324 -0.6840 -0.2398 -2.7452
  150SAPE    C316586   1.097   4.251  10.604  0.0832 -0.4119 -0.2017
  150SAPE    HX16587   1.033   4.175  10.654  2.0463 -1.1221  1.2733
  150SAPE    HY16588   1.162   4.275  10.690  0.4384 -0.8965 -0.3325
  150SAPE   O3116589   1.163   4.188  10.498 -0.5918  0.5772 -0.3562
  150SAPE   C3116590   1.268   4.244  10.453  0.0112 -0.5713 -0.2501
  150SAPE   O3216591   1.325   4.348  10.500  0.3301 -0.0106  0.6414
  150SAPE   C3216592   1.306   4.171  10.327 -0.2663 -0.2960  0.4407
  150SAPE   H2X16593   1.315   4.063  10.352  1.2845 -0.9434 -2.6863
  150SAPE   H2Y16594   1.402   4.208  10.285 -0.5860 -0.9500 -0.9160
  150SAPE   C2316595   0.697   4.421  10.193  0.2765  0.4377  0.4719
  150SAPE   H3R16596   0.758   4.468  10.113  1.2291  0.5480  1.2590
  150SAPE   H3S16597   0.650   4.502  10.252 -1.0092  0.4555 -0.5411
  150SAPE   C2416598   0.576   4.348  10.127  0.0136  0.5313 -0.2655
  150SAPE   H4R16599   0.531   4.278  10.201  1.7359 -0.8999 -0.5372
  150SAPE   H4S16600   0.621   4.271  10.060  0.8760  1.7502 -1.0927
  150SAPE   C2516601   0.468   4.448  10.082 -0.3070 -0.1689 -0.0815
  150SAPE   H5R16602   0.411   4.500  10.161  0.1809  0.3308 -0.0558
  150SAPE   C2616603   0.464   4.488   9.952 -0.4431 -0.2429 -0.2141
  150SAPE   H6R16604   0.401   4.574   9.925  1.3336  0.5708 -1.8548
  150SAPE   C2716605   0.565   4.432   9.849  0.3313 -0.7083  0.3089
  150SAPE   H7R16606   0.652   4.378   9.891  2.9150  1.9840 -1.4007
  150SAPE   H7S16607   0.621   4.521   9.812 -2.0376  0.5014 -0.4835
  150SAPE   C2816608   0.500   4.361   9.735  0.1246 -0.1070 -0.9298
  150SAPE   H8R16609   0.460   4.262   9.763  0.0239  0.3120  0.4747
  150SAPE   C2916610   0.517   4.396   9.606  0.7724  0.0859 -0.3124
  150SAPE   H9R16611   0.453   4.344   9.532  2.4341 -0.8598 -1.1292
  150SAPE  C21016612   0.594   4.519   9.552 -0.0151  0.1919  0.4785
  150SAPE  H10R16613   0.593   4.601   9.628  0.2733  0.8522 -0.2253
  150SAPE  H10S16614   0.547   4.571   9.465  1.3899  0.9623  0.1696
  150SAPE  C21116615   0.740   4.492   9.522  0.0213  0.4793 -0.4332
  150SAPE  H11R16616   0.809   4.539   9.593 -0.2534  2.0367 -1.1741
  150SAPE  C21216617   0.780   4.426   9.410  0.3080  0.1855  0.4980
  150SAPE  H12R16618   0.887   4.424   9.388  0.1987  1.0780 -0.1467
  150SAPE  C21316619   0.692   4.367   9.302 -0.3379  0.4656  0.2412
  150SAPE  H13R16620   0.586   4.349   9.332 -0.0478 -0.3872  0.7949
  150SAPE  H13S16621   0.731   4.267   9.274 -1.0629  0.4285 -0.6151
  150SAPE  C21416622   0.711   4.456   9.181 -1.1570  0.4875  0.5092
  150SAPE  H14R16623   0.754   4.557   9.196 -0.2623  0.3697 -1.1766
  150SAPE  C21516624   0.687   4.423   9.050  0.1383 -0.2235  0.7991
  150SAPE  H15R16625   0.716   4.495   8.972 -1.9738  0.5802  0.7187
  150SAPE  C21616626   0.631   4.290   9.007 -0.0797 -0.2399  0.0926
  150SAPE  H16R16627   0.597   4.229   9.093  2.2137 -1.1444  0.3957
  150SAPE  H16S16628   0.704   4.223   8.956  2.0293  0.2265  2.3935
  150SAPE  C21716629   0.504   4.308   8.931 -0.0757 -0.7379  0.4825
  150SAPE  H17R16630   0.441   4.379   8.989  0.5670  1.3363 -1.3424
  150SAPE  H17S16631   0.436   4.221   8.920 -0.6746 -0.3884  1.3166
  150SAPE  C21816632   0.525   4.360   8.794 -0.2353  0.5653  1.1184
  150SAPE  H18R16633   0.597   4.296   8.738 -0.6992  0.8653  0.1793
  150SAPE  H18S16634   0.562   4.465   8.788 -1.3428  0.9538  1.0465
  150SAPE  C21916635   0.398   4.355   8.710 -0.0352  0.2807  0.1273
  150SAPE  H19R16636   0.351   4.254   8.719  0.3937 -0.0241 -0.9275
  150SAPE  H19S16637   0.415   4.384   8.604 -2.1896  1.4505  0.0687
  150SAPE  C22016638   0.296   4.456   8.766  0.3068 -1.1119  0.6067
  150SAPE  H20R16639   0.344   4.555   8.775  2.4619 -2.2620  2.0972
  150SAPE  H20S16640   0.261   4.428   8.868 -0.3646 -0.3161  0.5983
  150SAPE  H20T16641   0.208   4.459   8.698 -1.5218 -3.3269  2.7236
  150SAPE   C3316642   1.196   4.187  10.215  0.0329 -0.2161  0.4566
  150SAPE   H3X16643   1.099   4.166  10.264 -1.4026  1.6891 -1.4663
  150SAPE   H3Y16644   1.219   4.112  10.136 -0.6138 -0.3719  0.4157
  150SAPE   C3416645   1.197   4.327  10.150  0.1962  0.1762 -0.2448
  150SAPE   H4X16646   1.304   4.351  10.132  0.2783 -0.4442 -0.5749
  150SAPE   H4Y16647   1.150   4.404  10.215  0.2659 -0.2950  0.3683
  150SAPE   C3516648   1.119   4.343  10.018 -0.2023 -1.0846 -0.4967
  150SAPE   H5X16649   1.017   4.309  10.043 -0.4907 -0.2060 -0.4782
  150SAPE   H5Y16650   1.154   4.275   9.936  0.2360  1.6923 -2.6717
  150SAPE   C3616651   1.119   4.493   9.974  0.8021 -0.3524 -0.8102
  150SAPE   H6X16652   1.223   4.533   9.978 -0.4617  3.1157 -0.4989
  150SAPE   H6Y16653   1.068   4.562  10.044  2.3627  2.7202 -2.5677
  150SAPE   C3716654   1.057   4.517   9.831 -0.5519 -0.0190 -0.4620
  150SAPE   H7X16655   0.947   4.505   9.841 -0.7049  2.1136  0.6207
  150SAPE   H7Y16656   1.096   4.438   9.763 -1.0113  0.7262 -1.6068
  150SAPE   C3816657   1.079   4.662   9.785 -0.2874 -0.2293 -0.3144
  150SAPE   H8X16658   1.051   4.731   9.868 -0.6848  0.9001 -1.3825
  150SAPE   H8Y16659   1.008   4.679   9.701  0.5091  2.6084 -0.4849
  150SAPE   C3916660   1.221   4.687   9.737  0.2027 -0.0423 -0.4039
  150SAPE   H9X16661   1.262   4.599   9.684 -1.3885 -1.4672  0.7035
  150SAPE   H9Y16662   1.297   4.706   9.816 -0.6632  0.3820  0.3235
  150SAPE  C31016663   1.237   4.802   9.641  0.2067 -0.2392  0.2399
  150SAPE  H10X16664   1.346   4.818   9.650  0.2753  0.4502 -1.6157
  150SAPE  H10Y16665   1.173   4.886   9.675  1.4792  2.1265 -3.0075
  150SAPE  C31116666   1.184   4.760   9.498  0.8746  0.0205 -0.7161
  150SAPE  H11X16667   1.073   4.768   9.491  1.0164  2.8246 -0.4165
  150SAPE  H11Y16668   1.205   4.652   9.481 -1.9870 -0.6946  0.0033
  150SAPE  C31216669   1.238   4.835   9.383 -0.3124 -0.6565 -0.2557
  150SAPE  H12X16670   1.348   4.829   9.373  0.1490  1.4828  2.8758
  150SAPE  H12Y16671   1.208   4.942   9.389  2.0284 -0.0292  0.7914
  150SAPE  C31316672   1.177   4.772   9.253  0.3294 -0.1782 -0.0145
  150SAPE  H13X16673   1.066   4.768   9.260  0.2292  0.0328 -1.3172
  150SAPE  H13Y16674   1.216   4.668   9.257  0.5722 -0.0463  1.4951
  150SAPE  C31416675   1.207   4.848   9.127 -0.7968 -0.1492 -1.0006
  150SAPE  H14X16676   1.317   4.850   9.113 -0.2310  0.6535  2.8499
  150SAPE  H14Y16677   1.177   4.954   9.139 -0.3152 -0.4256  3.6605
  150SAPE  C31516678   1.128   4.801   9.000  0.4736 -0.4717 -0.3057
  150SAPE  H15X16679   1.156   4.867   8.915  1.6584 -1.4986 -0.7336
  150SAPE  H15Y16680   1.022   4.831   9.016 -0.2292 -0.3754 -4.3878
  150SAPE  C31616681   1.145   4.655   8.969 -0.0755  0.5480  0.1011
  150SAPE  H16X16682   1.096   4.597   9.050 -0.3579  0.7077  0.0448
  150SAPE  H16Y16683   1.255   4.637   8.963  0.0118  0.1236  2.6366
  150SAPE  C31716684   1.067   4.607   8.843  0.4582  0.6476  0.3739
  150SAPE  H17X16685   1.109   4.658   8.754  0.9140  0.2588  0.3640
  150SAPE  H17Y16686   0.958   4.622   8.856  0.0213 -0.1393 -2.2138
  150SAPE  C31816687   1.072   4.454   8.816 -0.0303  0.2080  0.0322
  150SAPE  H18X16688   1.028   4.402   8.904  2.1868  1.5517  2.0149
  150SAPE  H18Y16689   1.175   4.411   8.810 -0.1961 -0.1883  0.0079
  150SAPE  H18Z16690   1.023   4.428   8.720 -0.1230  0.8629 -0.0955
  151SAPE     N16691   4.320   1.835  10.517 -0.5995  0.5657  0.0686
  151SAPE   HN116692   4.225   1.877  10.522  0.3448  2.7056  0.9780
  151SAPE   HN216693   4.382   1.910  10.556  2.3081 -1.9975  0.5807
  151SAPE   HN316694   4.338   1.825  10.415 -0.1771  1.3922  0.0545
  151SAPE   C1216695   4.334   1.700  10.580 -0.8459 -0.5210  0.3949
  151SAPE  H12A16696   4.262   1.631  10.532 -0.9207  0.5378 -1.0770
  151SAPE  H12B16697   4.302   1.699  10.686 -2.3931 -0.9513 -0.0662
  151SAPE   C1116698   4.477   1.656  10.576 -0.4014 -0.0139  0.5058
  151SAPE  H11A16699   4.480   1.570  10.647  1.2482  0.6461  1.2658
  151SAPE  H11B16700   4.545   1.733  10.617 -0.3660  1.1846 -1.7528
  151SAPE     P16701   4.640   1.537  10.401 -0.0291 -0.2657  0.2420
  151SAPE   O1316702   4.679   1.444  10.505  0.3323  0.0658 -0.0500
  151SAPE   O1416703   4.615   1.484  10.265 -0.5566 -0.4629 -0.2415
  151SAPE   O1216704   4.515   1.623  10.443  0.2076  0.0417 -0.8240
  151SAPE   O1116705   4.750   1.648  10.398 -0.0020  0.1837  0.4436
  151SAPE    C116706   4.727   1.787  10.355 -0.6484  0.6336 -0.4270
  151SAPE    HA16707   4.622   1.801  10.323 -0.5054  0.1669 -1.0959
  151SAPE    HB16708   4.734   1.849  10.447  0.5347  0.6230 -0.4962
  151SAPE    C216709   4.821   1.839  10.237  0.7158 -0.5677  0.3571
  151SAPE    HS16710   4.819   1.950  10.229  0.4830 -0.4063  2.5403
  151SAPE   O2116711   4.790   1.791  10.110 -0.2785  0.5058  0.0429
  151SAPE   C2116712   4.669   1.822  10.058  0.0798 -0.4987  0.6218
  151SAPE   O2216713   4.586   1.887  10.121  0.1515 -0.0754  0.9007
  151SAPE   C2216714   4.646   1.752   9.918 -0.2208 -0.1062  0.4550
  151SAPE   H2R16715   4.747   1.725   9.880 -0.5518 -2.7272  1.3296
  151SAPE   H2S16716   4.586   1.661   9.938  0.8267 -1.0692 -0.7148
  151SAPE    C316717   4.966   1.794  10.266 -0.0663  0.2671 -0.2304
  151SAPE    HX16718   4.979   1.683  10.269 -1.0453  0.1269 -0.9540
  151SAPE    HY16719   4.998   1.823  10.368  1.5723 -3.8916  0.5701
  151SAPE   O3116720   5.059   1.853  10.173 -0.3726 -0.1253  0.2898
  151SAPE   C3116721   5.185   1.834  10.206  0.0782  0.1988  0.6208
  151SAPE   O3216722   5.219   1.751  10.287 -0.1407  1.0119 -0.3127
  151SAPE   C3216723   5.272   1.929  10.126  0.4746  0.0578  0.0219
  151SAPE   H2X16724   5.281   2.021  10.188 -2.3243 -1.1469  2.3709
  151SAPE   H2Y16725   5.212   1.967  10.041  1.4249 -0.4166 -0.8620
  151SAPE   C2316726   4.562   1.832   9.811 -0.1408  0.7118  0.1372
  151SAPE   H3R16727   4.618   1.925   9.788  1.9864 -0.2404  1.3174
  151SAPE   H3S16728   4.464   1.860   9.857 -0.3950  1.1454 -0.6653
  151SAPE   C2416729   4.540   1.750   9.682  0.5124  0.4362  0.3497
  151SAPE   H4R16730   4.481   1.662   9.717 -0.7987 -0.1320 -3.1138
  151SAPE   H4S16731   4.642   1.712   9.659  1.0309  1.1285  1.4547
  151SAPE   C2516732   4.466   1.823   9.575  0.2480 -0.4138 -0.1533
  151SAPE   H5R16733   4.497   1.928   9.572 -1.4198  0.0797 -0.5899
  151SAPE   C2616734   4.384   1.768   9.482  0.3007  0.0375  0.6691
  151SAPE   H6R16735   4.331   1.832   9.410 -0.2701  0.6214  1.5948
  151SAPE   C2716736   4.362   1.616   9.476 -0.1406 -1.0858  0.0165
  151SAPE   H7R16737   4.305   1.578   9.563 -1.2554  3.2268  1.2902
  151SAPE   H7S16738   4.460   1.565   9.465  1.2675  0.8431  2.7812
  151SAPE   C2816739   4.278   1.579   9.355 -0.1210  1.3374  0.6601
  151SAPE   H8R16740   4.239   1.662   9.294  1.5904  0.5449 -1.5812
  151SAPE   C2916741   4.260   1.452   9.311 -0.1293 -0.6939  0.7104
  151SAPE   H9R16742   4.182   1.438   9.234  0.8387 -0.0960 -0.3982
  151SAPE  C21016743   4.321   1.328   9.370 -0.7640  0.2040  0.1733
  151SAPE  H10R16744   4.356   1.345   9.474  0.4116  1.2215 -0.3755
  151SAPE  H10S16745   4.416   1.309   9.314 -0.6884  1.1982 -0.0463
  151SAPE  C21116746   4.227   1.211   9.366  0.2707 -0.3799  0.2111
  151SAPE  H11R16747   4.178   1.187   9.461 -2.1035 -2.0679 -1.3638
  151SAPE  C21216748   4.209   1.142   9.256  0.5605  0.5515  0.3914
  151SAPE  H12R16749   4.146   1.052   9.255  1.1483  0.1441 -0.1556
  151SAPE  C21316750   4.271   1.164   9.125 -0.1729 -0.1275 -0.1553
  151SAPE  H13R16751   4.381   1.164   9.139 -0.0337 -1.9878 -1.0603
  151SAPE  H13S16752   4.241   1.266   9.091  0.6948  0.3280  0.4172
  151SAPE  C21416753   4.236   1.059   9.017  0.0345 -0.6548 -0.2004
  151SAPE  H14R16754   4.169   0.981   9.057 -0.6055  0.1722  0.3695
  151SAPE  C21516755   4.255   1.073   8.878  0.0277 -0.2108 -1.1900
  151SAPE  H15R16756   4.233   0.991   8.809 -0.7195 -0.0224 -1.1798
  151SAPE  C21616757   4.321   1.203   8.832  0.0035  0.2132  0.3733
  151SAPE  H16R16758   4.432   1.189   8.831  0.0601  0.6461  0.5664
  151SAPE  H16S16759   4.295   1.293   8.893  1.0685  1.8259 -1.5100
  151SAPE  C21716760   4.291   1.249   8.685  0.2825 -0.7517 -0.0319
  151SAPE  H17R16761   4.340   1.349   8.678 -0.0600 -0.6483 -1.0908
  151SAPE  H17S16762   4.180   1.246   8.685  0.2754 -0.7020 -1.2934
  151SAPE  C21816763   4.334   1.158   8.573 -0.2054  0.1421  0.4262
  151SAPE  H18R16764   4.330   1.050   8.601 -0.5487 -0.0782 -0.4491
  151SAPE  H18S16765   4.443   1.180   8.567  0.0206 -0.8046  0.9783
  151SAPE  C21916766   4.255   1.174   8.443 -0.0701  0.0491  0.5782
  151SAPE  H19R16767   4.314   1.129   8.360  2.1381  2.5318  0.7601
  151SAPE  H19S16768   4.240   1.283   8.426  0.3344  0.1198  0.6817
  151SAPE  C22016769   4.126   1.096   8.438  0.4134  0.2416  0.6746
  151SAPE  H20R16770   4.069   1.093   8.533  1.9571  0.3077  1.6278
  151SAPE  H20S16771   4.130   0.996   8.389 -0.8039  1.4540 -1.9927
  151SAPE  H20T16772   4.051   1.151   8.377  0.1190 -1.7177 -0.8114
  151SAPE   C3316773   5.403   1.887  10.073  0.5870  0.3146  0.1151
  151SAPE   H3X16774   5.405   1.779  10.044 -0.9766  0.2526  0.2078
  151SAPE   H3Y16775   5.481   1.908  10.149 -0.1858 -1.1255  1.3237
  151SAPE   C3416776   5.442   1.971   9.949 -0.3655  0.0815  0.4565
  151SAPE   H4X16777   5.458   2.079   9.972 -1.0884  0.2490  0.1801
  151SAPE   H4Y16778   5.360   1.959   9.875  0.9513 -1.5872 -0.7698
  151SAPE   C3516779   5.569   1.912   9.866  0.0185  0.5319  0.6564
  151SAPE   H5X16780   5.558   1.935   9.758  2.1563 -3.1605 -0.4268
  151SAPE   H5Y16781   5.574   1.801   9.876  0.1963  0.5762  1.0630
  151SAPE   C3616782   5.698   1.973   9.915 -0.5109  0.2179 -0.4587
  151SAPE   H6X16783   5.697   1.980  10.025  0.1961  1.7222 -0.5252
  151SAPE   H6Y16784   5.701   2.080   9.884 -1.4353  0.4437  0.2331
  151SAPE   C3716785   5.829   1.894   9.881 -0.3997  0.8475  0.9000
  151SAPE   H7X16786   5.825   1.791   9.924  0.9507  0.4707  0.1506
  151SAPE   H7Y16787   5.916   1.953   9.916 -0.5767  1.5117  0.2364
  151SAPE   C3816788   5.857   1.863   9.737  0.6858 -0.5616  0.4609
  151SAPE   H8X16789   5.783   1.791   9.696 -0.0825  1.1818 -1.3090
  151SAPE   H8Y16790   5.952   1.811   9.713  1.5123  1.5248 -0.9810
  151SAPE   C3916791   5.866   1.994   9.647  0.3715  0.1427  1.1490
  151SAPE   H9X16792   5.935   2.061   9.701  1.1897 -0.1583  0.4818
  151SAPE   H9Y16793   5.771   2.051   9.633  0.8699  0.7326  0.0797
  151SAPE  C31016794   5.924   1.964   9.502  0.1168  0.0328 -0.2529
  151SAPE  H10X16795   6.001   1.883   9.502 -0.0383 -0.1307  1.0607
  151SAPE  H10Y16796   5.970   2.061   9.474 -0.5024  0.1848 -0.7319
  151SAPE  C31116797   5.819   1.932   9.402 -0.2035  0.1247 -0.1064
  151SAPE  H11X16798   5.736   2.003   9.418  1.1478  1.8598 -0.5833
  151SAPE  H11Y16799   5.787   1.826   9.411  0.6419 -0.0877  0.5396
  151SAPE  C31216800   5.869   1.962   9.257 -0.2566 -0.4213  0.0601
  151SAPE  H12X16801   5.898   2.069   9.251 -0.4891 -0.2596  1.5915
  151SAPE  H12Y16802   5.787   1.946   9.183 -1.6725  0.8935  1.2938
  151SAPE  C31316803   5.997   1.891   9.209 -0.2355  0.1737  0.1121
  151SAPE  H13X16804   5.968   1.784   9.204 -0.3694  0.2309 -0.4265
  151SAPE  H13Y16805   6.080   1.908   9.281 -0.5357 -0.5725  0.6389
  151SAPE  C31416806   6.037   1.936   9.068 -0.5429 -0.1416  0.1520
  151SAPE  H14X16807   5.945   1.944   9.007  0.1345  0.2509 -0.8337
  151SAPE  H14Y16808   6.099   1.859   9.016  0.8483  0.1963  1.2788
  151SAPE  C31516809   6.114   2.072   9.050 -0.6646  0.0831  0.1318
  151SAPE  H15X16810   6.207   2.072   9.111 -1.4737  1.5858  1.4026
  151SAPE  H15Y16811   6.047   2.159   9.067 -0.1875  0.6802 -0.9882
  151SAPE  C31616812   6.163   2.102   8.911  0.3644 -0.3726  0.0471
  151SAPE  H16X16813   6.074   2.115   8.845  0.0800 -1.2256  0.2588
  151SAPE  H16Y16814   6.224   2.025   8.859  0.6213  1.4750 -2.5257
  151SAPE  C31716815   6.247   2.229   8.897 -0.1539 -0.1743  0.4745
  151SAPE  H17X16816   6.344   2.197   8.940  0.2786 -0.4938 -0.7157
  151SAPE  H17Y16817   6.205   2.307   8.964  1.6074 -0.1562  1.5840
  151SAPE  C31816818   6.255   2.298   8.762 -0.0832 -0.1024 -0.6448
  151SAPE  H18X16819   6.306   2.237   8.685  1.5819  0.9080 -0.3610
  151SAPE  H18Y16820   6.308   2.394   8.782 -1.7043  0.4087  1.3332
  151SAPE  H18Z16821   6.153   2.320   8.721 -0.7219 -1.4329  0.2274
  152SAPE     N16822   5.846   0.851  10.835 -0.1574  0.0050 -0.1622
  152SAPE   HN116823   5.758   0.828  10.887  0.6382 -0.2657  1.0899
  152SAPE   HN216824   5.825   0.867  10.735  0.8435 -0.1750 -0.4022
  152SAPE   HN316825   5.908   0.767  10.829  2.1502  1.5561  1.2080
  152SAPE   C1216826   5.921   0.975  10.893 -0.2596  0.7650 -0.2478
  152SAPE  H12A16827   5.958   0.940  10.992 -0.8181 -0.5233 -0.4776
  152SAPE  H12B16828   5.848   1.058  10.900 -0.9305  0.0147  2.1813
  152SAPE   C1116829   6.032   1.025  10.800 -0.4532  0.2952 -0.6002
  152SAPE  H11A16830   6.076   1.112  10.854 -0.6944  0.2871 -0.3918
  152SAPE  H11B16831   5.987   1.060  10.705  0.0580 -0.4461 -1.1195
  152SAPE     P16832   6.209   0.916  10.656  0.6010  0.3484  0.1770
  152SAPE   O1316833   6.292   1.042  10.642 -0.0700  0.0035 -0.1234
  152SAPE   O1416834   6.280   0.787  10.637  0.4103 -0.2661  0.8805
  152SAPE   O1216835   6.128   0.921  10.783  0.2678  0.2246  0.2047
  152SAPE   O1116836   6.096   0.905  10.538 -0.4917  0.3080 -0.1666
  152SAPE    C116837   6.117   0.966  10.417  0.2123  0.5000 -0.5424
  152SAPE    HA16838   6.016   0.986  10.377 -0.6925 -0.2177  1.3470
  152SAPE    HB16839   6.182   1.056  10.425  0.2019  0.4400  0.2369
  152SAPE    C216840   6.187   0.869  10.319 -0.0692  0.8935 -0.7673
  152SAPE    HS16841   6.287   0.839  10.359 -0.4836  1.0161  0.3968
  152SAPE   O2116842   6.173   0.923  10.185  0.1795 -0.5482 -0.0261
  152SAPE   C2116843   6.263   0.889  10.098  0.5190  0.1198  0.0100
  152SAPE   O2216844   6.380   0.845  10.125  0.4456 -0.1870  0.0205
  152SAPE   C2216845   6.216   0.920   9.953 -0.4058  0.1765  1.5286
  152SAPE   H2R16846   6.133   0.847   9.941  1.4528 -1.7700  0.0898
  152SAPE   H2S16847   6.182   1.025   9.954 -0.5165  0.1618  0.5722
  152SAPE    C316848   6.108   0.730  10.326 -0.2016  0.0738 -0.8083
  152SAPE    HX16849   5.999   0.752  10.335 -0.2673 -0.6590  0.3493
  152SAPE    HY16850   6.123   0.677  10.422 -2.2351 -1.5472 -1.3524
  152SAPE   O3116851   6.131   0.645  10.214 -0.1119 -0.5969  0.6065
  152SAPE   C3116852   6.198   0.531  10.238 -0.0533  0.3556 -0.0064
  152SAPE   O3216853   6.235   0.490  10.345 -0.0346  0.1217  0.5524
  152SAPE   C3216854   6.232   0.457  10.114  0.4508 -0.3050 -0.0059
  152SAPE   H2X16855   6.206   0.350  10.127  1.5427 -0.6485 -0.5723
  152SAPE   H2Y16856   6.341   0.456  10.093  0.3037  1.6341 -0.9681
  152SAPE   C2316857   6.331   0.881   9.852 -0.1905 -0.5482  0.0656
  152SAPE   H3R16858   6.370   0.780   9.875  0.6170 -0.1754  0.3485
  152SAPE   H3S16859   6.414   0.955   9.856  0.9609 -1.8883  1.9496
  152SAPE   C2416860   6.276   0.891   9.710  0.0749  0.0280  0.7741
  152SAPE   H4R16861   6.225   0.989   9.707  0.3840  0.1624 -0.4990
  152SAPE   H4S16862   6.192   0.820   9.692  1.2834 -1.8529  2.3529
  152SAPE   C2516863   6.381   0.874   9.605 -0.6043 -0.4205  0.3760
  152SAPE   H5R16864   6.467   0.818   9.644  1.7933  4.1876  2.1914
  152SAPE   C2616865   6.371   0.921   9.479 -0.8296 -0.2480  0.0575
  152SAPE   H6R16866   6.445   0.893   9.402 -2.4112 -0.2954 -1.4903
  152SAPE   C2716867   6.264   1.013   9.431 -0.1342 -0.8353 -0.4432
  152SAPE   H7R16868   6.269   1.099   9.501 -1.0120  0.1241 -1.5604
  152SAPE   H7S16869   6.166   0.964   9.451 -0.0303 -0.5505  0.8490
  152SAPE   C2816870   6.285   1.064   9.294 -0.6367  0.5612  0.6059
  152SAPE   H8R16871   6.209   1.026   9.223 -1.0396 -0.3615  1.5214
  152SAPE   C2916872   6.368   1.160   9.248 -0.4227 -0.8107 -0.1283
  152SAPE   H9R16873   6.359   1.187   9.141  0.1641 -0.1073 -0.0020
  152SAPE  C21016874   6.465   1.243   9.334  0.4912  0.5550  1.1540
  152SAPE  H10R16875   6.570   1.219   9.310  0.2776  0.8237 -0.0905
  152SAPE  H10S16876   6.458   1.218   9.442  0.2130  1.4985  1.3638
  152SAPE  C21116877   6.437   1.391   9.315  0.0872  0.2707  0.4306
  152SAPE  H11R16878   6.358   1.435   9.378 -1.9331  0.1985 -1.9652
  152SAPE  C21216879   6.479   1.477   9.219 -0.4142 -0.1297  0.0109
  152SAPE  H12R16880   6.474   1.585   9.237 -1.4676  0.0946 -1.5674
  152SAPE  C21316881   6.577   1.442   9.108 -0.9120 -0.2021 -0.2784
  152SAPE  H13R16882   6.603   1.336   9.125  0.4893 -0.1121 -1.6979
  152SAPE  H13S16883   6.679   1.483   9.123  1.2495 -4.5129 -2.5161
  152SAPE  C21416884   6.530   1.458   8.967 -0.4348 -0.1534  0.1331
  152SAPE  H14R16885   6.421   1.457   8.953 -0.4597  0.7383  0.2698
  152SAPE  C21516886   6.608   1.466   8.857  0.9190 -0.6803 -0.3760
  152SAPE  H15R16887   6.570   1.465   8.754 -0.2832  0.2954  0.0448
  152SAPE  C21616888   6.758   1.471   8.873 -0.2645 -0.0942 -0.3072
  152SAPE  H16R16889   6.812   1.380   8.906 -0.8202 -0.8096 -1.3401
  152SAPE  H16S16890   6.793   1.542   8.952 -0.6012 -0.3322  0.0554
  152SAPE  C21716891   6.815   1.522   8.743  0.4562 -0.1150  0.2476
  152SAPE  H17R16892   6.919   1.557   8.760  1.1612 -1.0545 -1.9481
  152SAPE  H17S16893   6.767   1.616   8.708 -0.2533 -0.0421  1.3672
  152SAPE  C21816894   6.820   1.416   8.634 -0.4496 -0.2540  0.3515
  152SAPE  H18R16895   6.724   1.363   8.618  0.2556 -0.6068 -3.1383
  152SAPE  H18S16896   6.895   1.338   8.659  0.9082  0.4153 -1.5004
  152SAPE  C21916897   6.865   1.484   8.505  0.1811 -0.5548 -0.5063
  152SAPE  H19R16898   6.961   1.532   8.535 -0.6456 -0.0500  1.4644
  152SAPE  H19S16899   6.801   1.569   8.471 -0.5691 -1.4731 -1.3917
  152SAPE  C22016900   6.877   1.388   8.389 -0.1027  0.9749  0.0338
  152SAPE  H20R16901   6.908   1.440   8.296 -0.7332 -0.0856 -0.7697
  152SAPE  H20S16902   6.779   1.337   8.379 -0.4010  1.1832  1.6578
  152SAPE  H20T16903   6.944   1.302   8.409 -1.0329  0.0786 -0.6615
  152SAPE   C3316904   6.168   0.521   9.990 -0.0477  0.1396  0.3902
  152SAPE   H3X16905   6.214   0.622   9.981 -0.1725  0.0146 -2.1461
  152SAPE   H3Y16906   6.060   0.544   9.998  0.4710  2.3984  1.3466
  152SAPE   C3416907   6.206   0.439   9.862  0.2371 -0.5543 -0.3029
  152SAPE   H4X16908   6.169   0.336   9.882  0.6348 -0.5752  0.3519
  152SAPE   H4Y16909   6.315   0.423   9.847  0.1823 -1.7951  0.5637
  152SAPE   C3516910   6.133   0.489   9.734  0.1012 -0.6879 -0.2825
  152SAPE   H5X16911   6.129   0.599   9.748 -0.6549 -0.6808 -0.5289
  152SAPE   H5Y16912   6.028   0.454   9.739 -0.1183 -0.0440 -0.3681
  152SAPE   C3616913   6.209   0.472   9.589  0.4287 -0.7783 -0.7125
  152SAPE   H6X16914   6.220   0.362   9.584 -1.2051 -0.8848 -2.5150
  152SAPE   H6Y16915   6.311   0.513   9.607 -0.3457  1.9424 -2.2585
  152SAPE   C3716916   6.132   0.546   9.472  0.2316 -0.3191  0.0399
  152SAPE   H7X16917   6.140   0.655   9.493  2.0858 -0.6268  1.0476
  152SAPE   H7Y16918   6.028   0.511   9.463  0.7621 -1.8253 -0.3857
  152SAPE   C3816919   6.204   0.522   9.339  0.2790  0.3881 -0.1011
  152SAPE   H8X16920   6.194   0.411   9.328  1.0708  0.5407 -2.7299
  152SAPE   H8Y16921   6.310   0.555   9.342  0.6933 -0.5653 -2.8726
  152SAPE   C3916922   6.129   0.575   9.221  0.3253 -0.3221 -0.2580
  152SAPE   H9X16923   6.161   0.679   9.197 -0.6775 -0.1561 -0.8880
  152SAPE   H9Y16924   6.021   0.571   9.243  0.6614 -3.3448  1.0357
  152SAPE  C31016925   6.137   0.485   9.104 -0.2428  0.4539 -0.5343
  152SAPE  H10X16926   6.088   0.391   9.135 -1.5110  1.0188 -0.7650
  152SAPE  H10Y16927   6.244   0.470   9.080 -0.0182  1.9444 -0.5546
  152SAPE  C31116928   6.069   0.532   8.972 -0.4726 -0.1578 -0.6824
  152SAPE  H11X16929   6.132   0.610   8.922  1.5486  0.3703  2.5505
  152SAPE  H11Y16930   5.970   0.573   8.998  0.8842  0.6450  3.5518
  152SAPE  C31216931   6.067   0.414   8.877  0.7857  0.4360 -1.4690
  152SAPE  H12X16932   5.998   0.335   8.914  1.1414  0.0721 -1.5764
  152SAPE  H12Y16933   6.167   0.368   8.865  0.8775  0.4269 -0.6729
  152SAPE  C31316934   6.020   0.442   8.733 -0.6302 -0.0634  0.0190
  152SAPE  H13X16935   6.022   0.345   8.677  0.3296  0.3170 -0.6065
  152SAPE  H13Y16936   6.092   0.517   8.697 -0.2974 -0.6900 -0.6390
  152SAPE  C31416937   5.890   0.521   8.716 -0.6107 -0.2890  0.5812
  152SAPE  H14X16938   5.917   0.628   8.719  0.7713 -0.6502  1.7335
  152SAPE  H14Y16939   5.824   0.504   8.804 -1.5615 -0.5329 -0.1671
  152SAPE  C31516940   5.828   0.493   8.575  0.3356  0.1485  0.4383
  152SAPE  H15X16941   5.808   0.384   8.569  1.0789 -0.0708  1.6324
  152SAPE  H15Y16942   5.910   0.516   8.503  1.1960 -0.9954  1.0435
  152SAPE  C31616943   5.697   0.570   8.544  0.3243  0.2421  0.2502
  152SAPE  H16X16944   5.621   0.514   8.603  1.6953 -0.1289  1.7011
  152SAPE  H16Y16945   5.664   0.549   8.440 -0.1528  2.7383 -0.1396
  152SAPE  C31716946   5.699   0.720   8.573  0.0844 -0.4707 -0.4102
  152SAPE  H17X16947   5.775   0.775   8.513  1.3929  0.5747  2.1130
  152SAPE  H17Y16948   5.719   0.750   8.678 -1.5261 -0.5377 -0.0684
  152SAPE  C31816949   5.566   0.785   8.541 -0.9103 -0.2467  0.3002
  152SAPE  H18X16950   5.559   0.790   8.431  1.1884  0.5035  0.1738
  152SAPE  H18Y16951   5.565   0.893   8.568  0.3445 -0.1293 -0.0977
  152SAPE  H18Z16952   5.485   0.723   8.585  0.4028 -0.5925  2.3262
  153SAPE     N16953   6.219   2.421  10.946  0.3420 -0.6086  0.3885
  153SAPE   HN116954   6.242   2.357  11.025  2.0907 -0.2572  0.1984
  153SAPE   HN216955   6.310   2.461  10.914  0.0980 -0.6133 -0.3219
  153SAPE   HN316956   6.161   2.498  10.985 -0.5309  0.2918 -2.5564
  153SAPE   C1216957   6.133   2.364  10.837  0.0147 -0.3203 -0.0933
  153SAPE  H12A16958   6.030   2.385  10.872  0.6059 -0.5048  1.8056
  153SAPE  H12B16959   6.169   2.260  10.820  2.4659  0.3855  0.5010
  153SAPE   C1116960   6.162   2.424  10.700 -0.1712  0.1802 -0.2200
  153SAPE  H11A16961   6.075   2.409  10.633  0.3552 -2.7045 -0.2846
  153SAPE  H11B16962   6.254   2.367  10.674  0.7365  1.2359  0.6089
  153SAPE     P16963   6.296   2.631  10.621  0.1742 -0.5861 -0.0552
  153SAPE   O1316964   6.268   2.780  10.635  0.3701 -0.0675 -0.7735
  153SAPE   O1416965   6.433   2.584  10.655 -0.2272 -0.1895  0.1018
  153SAPE   O1216966   6.184   2.559  10.717 -0.3167  0.1233 -0.0783
  153SAPE   O1116967   6.251   2.590  10.478 -0.1806 -0.2004  0.0621
  153SAPE    C116968   6.307   2.478  10.408 -0.1365 -0.1668 -0.4501
  153SAPE    HA16969   6.318   2.390  10.476 -0.4305 -0.3737 -0.6689
  153SAPE    HB16970   6.230   2.448  10.334 -0.5918 -1.2883  0.4461
  153SAPE    C216971   6.438   2.512  10.338  0.1244 -0.3468  0.8626
  153SAPE    HS16972   6.504   2.550  10.419 -2.8784 -0.9542  3.7091
  153SAPE   O2116973   6.413   2.620  10.250 -0.1699 -0.4049  0.2411
  153SAPE   C2116974   6.501   2.712  10.247  0.3764  0.2216  0.2512
  153SAPE   O2216975   6.590   2.720  10.333  0.0184  0.1384 -0.4741
  153SAPE   C2216976   6.483   2.814  10.132  0.2503  0.7873  0.4418
  153SAPE   H2R16977   6.464   2.915  10.173 -0.2574  0.7646  0.2651
  153SAPE   H2S16978   6.578   2.808  10.074  1.3622 -0.6119  2.3566
  153SAPE    C316979   6.514   2.395  10.277  0.0923  0.1067 -0.4434
  153SAPE    HX16980   6.509   2.308  10.346 -1.1325 -0.1350 -0.8344
  153SAPE    HY16981   6.617   2.429  10.253  1.0369 -1.3463  1.4430
  153SAPE   O3116982   6.443   2.339  10.158  0.2655  0.0639 -0.5365
  153SAPE   C3116983   6.491   2.387  10.043  0.3794 -0.1047 -0.0950
  153SAPE   O3216984   6.597   2.448  10.027  0.5377  0.1267 -0.1065
  153SAPE   C3216985   6.391   2.357   9.927 -0.0739 -0.4578  0.9289
  153SAPE   H2X16986   6.295   2.408   9.949 -0.5219 -1.1153  0.4691
  153SAPE   H2Y16987   6.385   2.246   9.925  1.0651 -0.5397  1.4198
  153SAPE   C2316988   6.362   2.780  10.031  0.1447 -0.0827  0.4948
  153SAPE   H3R16989   6.278   2.836  10.078  0.4294  1.8608 -1.2450
  153SAPE   H3S16990   6.345   2.671  10.043  3.2793 -0.6016  0.4408
  153SAPE   C2416991   6.389   2.823   9.886  0.1169 -0.6822 -0.5061
  153SAPE   H4R16992   6.480   2.784   9.837  0.5384  1.3288 -1.3828
  153SAPE   H4S16993   6.405   2.933   9.892  0.3539 -0.7585  0.5010
  153SAPE   C2516994   6.263   2.781   9.812  0.7905  0.3174  0.7672
  153SAPE   H5R16995   6.174   2.778   9.877 -0.1053 -3.3765 -0.5238
  153SAPE   C2616996   6.259   2.742   9.686  0.4616 -0.1860  0.0332
  153SAPE   H6R16997   6.170   2.703   9.634  0.6362 -0.3193 -0.1649
  153SAPE   C2716998   6.382   2.749   9.594 -0.1253  0.5244 -0.2451
  153SAPE   H7R16999   6.416   2.645   9.573  0.6625  1.0618 -1.7176
  153SAPE   H7S17000   6.471   2.807   9.626 -0.5380 -0.6096  3.1266
  153SAPE   C2817001   6.343   2.820   9.469 -0.1635 -0.2375 -0.1050
  153SAPE   H8R17002   6.290   2.912   9.496  1.9085  0.3661  2.1226
  153SAPE   C2917003   6.388   2.791   9.343 -0.0050 -0.2171 -0.5401
  153SAPE   H9R17004   6.354   2.862   9.266  2.3758  1.4172 -0.1248
  153SAPE  C21017005   6.479   2.678   9.294 -0.2862 -0.3306 -0.0045
  153SAPE  H10R17006   6.412   2.594   9.266  0.0193 -0.9488  1.1077
  153SAPE  H10S17007   6.543   2.630   9.371 -0.7618  0.8295  1.1404
  153SAPE  C21117008   6.576   2.715   9.181  0.0330  0.2456  0.4626
  153SAPE  H11R17009   6.681   2.693   9.202  0.7754  2.1567 -1.0982
  153SAPE  C21217010   6.546   2.751   9.058 -0.0020  0.0900  1.3656
  153SAPE  H12R17011   6.624   2.778   8.985 -1.8879  1.4812 -0.2110
  153SAPE  C21317012   6.407   2.774   9.005 -0.1856 -0.0377  0.2442
  153SAPE  H13R17013   6.380   2.881   9.016  0.2028  0.0207  0.6002
  153SAPE  H13S17014   6.327   2.724   9.062  0.5835  0.0344  1.3945
  153SAPE  C21417015   6.375   2.746   8.862  1.1815 -0.3319  0.1292
  153SAPE  H14R17016   6.461   2.729   8.795  1.7633 -0.7331  0.9800
  153SAPE  C21517017   6.252   2.738   8.809 -0.7526  0.3928 -0.0704
  153SAPE  H15R17018   6.238   2.703   8.706  0.0019 -0.3873  0.0828
  153SAPE  C21617019   6.115   2.757   8.868  0.0743 -0.5236  0.2484
  153SAPE  H16R17020   6.107   2.744   8.978 -2.0380  0.7392  0.2637
  153SAPE  H16S17021   6.057   2.669   8.835  0.0439 -0.2983 -0.2953
  153SAPE  C21717022   6.046   2.890   8.849  0.5218 -0.1271  1.2169
  153SAPE  H17R17023   6.115   2.975   8.862  2.0825 -1.0974 -0.4950
  153SAPE  H17S17024   5.961   2.896   8.921  0.8214 -0.1748  1.5738
  153SAPE  C21817025   5.997   2.916   8.707  0.0189  0.5729 -0.4469
  153SAPE  H18R17026   6.064   2.875   8.629  0.5085  1.2768 -0.4025
  153SAPE  H18S17027   5.976   3.025   8.700  0.8586  0.6856 -1.3394
  153SAPE  C21917028   5.867   2.837   8.677 -0.4635  0.0570  0.0701
  153SAPE  H19R17029   5.794   2.860   8.757 -0.5785 -1.6963  0.4904
  153SAPE  H19S17030   5.891   2.728   8.686  1.7818  0.5816  0.6735
  153SAPE  C22017031   5.804   2.870   8.542  0.0070 -0.3011 -0.7021
  153SAPE  H20R17032   5.715   2.807   8.524 -0.1795 -0.1264 -0.4029
  153SAPE  H20S17033   5.867   2.853   8.452  0.5535  0.7051 -0.5201
  153SAPE  H20T17034   5.776   2.978   8.541 -1.9241 -0.7841 -1.7458
  153SAPE   C3317035   6.452   2.420   9.791  0.2921 -0.1508 -0.0435
  153SAPE   H3X17036   6.560   2.394   9.801  0.2587  0.4000  2.1484
  153SAPE   H3Y17037   6.460   2.530   9.801  0.9110 -0.1837 -0.1564
  153SAPE   C3417038   6.403   2.372   9.656  0.3302  0.1584 -0.8217
  153SAPE   H4X17039   6.320   2.435   9.617 -1.2004  1.1232  3.6624
  153SAPE   H4Y17040   6.360   2.269   9.664 -0.2925  0.4856  0.1893
  153SAPE   C3517041   6.513   2.383   9.550 -0.7310  0.2917  0.2575
  153SAPE   H5X17042   6.583   2.307   9.591 -3.7400 -2.4516  0.4587
  153SAPE   H5Y17043   6.555   2.486   9.552  0.1813 -0.0797  0.3400
  153SAPE   C3617044   6.456   2.326   9.424 -0.3843 -0.0474 -0.3379
  153SAPE   H6X17045   6.383   2.404   9.392 -1.2279 -0.4136  0.6552
  153SAPE   H6Y17046   6.408   2.226   9.428  0.9747 -0.7112 -0.3594
  153SAPE   C3717047   6.555   2.316   9.309 -0.5742 -0.0583  0.0081
  153SAPE   H7X17048   6.632   2.242   9.339 -0.9576 -1.3003 -1.9865
  153SAPE   H7Y17049   6.598   2.418   9.302 -1.1582  0.0862 -1.6632
  153SAPE   C3817050   6.499   2.284   9.169  0.7474  0.1741 -0.1871
  153SAPE   H8X17051   6.430   2.371   9.157 -0.4975 -0.8363 -0.5131
  153SAPE   H8Y17052   6.430   2.197   9.165 -1.9089  2.0637  2.0957
  153SAPE   C3917053   6.602   2.264   9.059 -0.1018  0.3941  0.4578
  153SAPE   H9X17054   6.544   2.231   8.971  1.2128  0.3736 -0.4186
  153SAPE   H9Y17055   6.675   2.189   9.097 -0.5085 -1.7212 -2.7300
  153SAPE  C31017056   6.680   2.389   9.025  0.3533 -0.2978  0.4930
  153SAPE  H10X17057   6.737   2.430   9.111  0.7001 -0.9126  0.5594
  153SAPE  H10Y17058   6.615   2.465   8.977  1.8153  0.1173 -0.8639
  153SAPE  C31117059   6.789   2.369   8.914 -0.3169 -0.3079 -1.3711
  153SAPE  H11X17060   6.887   2.330   8.950 -0.1532  0.4743 -0.9602
  153SAPE  H11Y17061   6.820   2.471   8.882  1.3755 -0.4214 -0.1186
  153SAPE  C31217062   6.745   2.309   8.783  0.4585 -0.0138  0.7500
  153SAPE  H12X17063   6.721   2.202   8.799  1.2902 -0.3449 -0.1544
  153SAPE  H12Y17064   6.826   2.308   8.707  0.9549  1.3138  1.2407
  153SAPE  C31317065   6.617   2.373   8.719  0.3651  0.9941 -0.4285
  153SAPE  H13X17066   6.654   2.474   8.691  1.9883 -0.0346 -2.1305
  153SAPE  H13Y17067   6.532   2.385   8.789  0.7491  1.9761 -0.1272
  153SAPE  C31417068   6.565   2.303   8.592 -0.2474  0.0417 -0.1915
  153SAPE  H14X17069   6.507   2.212   8.618 -1.1711 -0.0595 -2.4822
  153SAPE  H14Y17070   6.646   2.265   8.527  0.1546 -0.3180  0.5076
  153SAPE  C31517071   6.493   2.407   8.516  0.6144 -0.1604 -0.7846
  153SAPE  H15X17072   6.558   2.495   8.499 -1.1258  1.0341 -1.4589
  153SAPE  H15Y17073   6.416   2.445   8.587  1.2707  0.2811 -0.3000
  153SAPE  C31617074   6.408   2.350   8.405 -0.5066  0.3709 -0.0924
  153SAPE  H16X17075   6.358   2.261   8.449  1.7273 -1.1088 -0.4530
  153SAPE  H16Y17076   6.477   2.310   8.328 -0.6338  0.4787 -0.2617
  153SAPE  C31717077   6.314   2.460   8.340  0.1159 -0.1975 -0.1655
  153SAPE  H17X17078   6.286   2.431   8.236 -2.3814 -1.1335  0.7114
  153SAPE  H17Y17079   6.374   2.552   8.323 -1.1067  1.2365  2.9261
  153SAPE  C31817080   6.194   2.494   8.426 -0.2056 -0.4465  0.2787
  153SAPE  H18X17081   6.143   2.400   8.456  0.6986 -0.4414  1.8668
  153SAPE  H18Y17082   6.126   2.570   8.382  1.3140  0.4482 -0.5890
  153SAPE  H18Z17083   6.248   2.539   8.512 -0.0715  1.2537 -0.6889
  154SAPE     N17084   6.583   1.675  11.006  0.0651 -0.1362  0.1900
  154SAPE   HN117085   6.541   1.610  11.076 -0.1439  0.6043  0.7685
  154SAPE   HN217086   6.507   1.733  10.964  0.8537 -0.5681 -1.8713
  154SAPE   HN317087   6.632   1.620  10.933  1.6670  1.1293  0.2846
  154SAPE   C1217088   6.675   1.765  11.076 -0.0527 -0.1895  0.7054
  154SAPE  H12A17089   6.743   1.691  11.122  1.0505 -0.1214 -0.8115
  154SAPE  H12B17090   6.626   1.831  11.152 -0.4555 -0.6593  0.8587
  154SAPE   C1117091   6.760   1.848  10.983  0.4009 -0.1970  0.4229
  154SAPE  H11A17092   6.815   1.785  10.909 -0.2072 -0.7107  0.4051
  154SAPE  H11B17093   6.847   1.894  11.034  2.8492 -0.5759 -3.2165
  154SAPE     P17094   6.759   2.054  10.824 -0.1356  0.0599 -0.1077
  154SAPE   O1317095   6.663   2.140  10.763  0.6055 -0.2517 -0.1317
  154SAPE   O1417096   6.847   2.108  10.933  0.5262  0.8623 -0.2712
  154SAPE   O1217097   6.685   1.949  10.905 -0.3503 -0.4141 -0.3948
  154SAPE   O1117098   6.855   1.981  10.715 -0.0484  0.3348  0.1356
  154SAPE    C117099   6.799   1.877  10.628 -0.4992 -0.4692  0.2554
  154SAPE    HA17100   6.861   1.785  10.639  0.1193 -0.1100 -0.2230
  154SAPE    HB17101   6.692   1.855  10.647  0.4281 -3.4340  2.5373
  154SAPE    C217102   6.808   1.911  10.477 -0.3284  0.2618  0.2100
  154SAPE    HS17103   6.758   1.834  10.416  0.3943  1.2303 -1.6393
  154SAPE   O2117104   6.952   1.913  10.460  0.2836 -0.9339  0.0468
  154SAPE   C2117105   6.998   1.876  10.341 -0.5101  0.1861  0.7886
  154SAPE   O2217106   6.929   1.823  10.252  0.2538 -0.5260 -0.1980
  154SAPE   C2217107   7.150   1.896  10.347 -0.2522  0.5264 -0.1587
  154SAPE   H2R17108   7.201   1.828  10.419  0.0522  0.0016 -0.8673
  154SAPE   H2S17109   7.192   1.866  10.249 -0.6471 -1.3382  0.2268
  154SAPE    C317110   6.745   2.052  10.435 -0.5370  0.5994  0.5919
  154SAPE    HX17111   6.798   2.135  10.488  2.1542 -0.2145 -0.7537
  154SAPE    HY17112   6.638   2.055  10.464 -0.3658  0.1162  1.2930
  154SAPE   O3117113   6.760   2.077  10.291 -0.4334 -0.0516 -0.5925
  154SAPE   C3117114   6.667   2.015  10.218 -0.1206 -1.3577  0.2767
  154SAPE   O3217115   6.575   1.949  10.260  0.1559 -0.2990  0.0345
  154SAPE   C3217116   6.705   2.065  10.080  0.4969 -0.6975  0.4372
  154SAPE   H2X17117   6.799   2.023  10.037  0.5799 -2.1240  1.9655
  154SAPE   H2Y17118   6.725   2.174  10.085  0.0821 -0.6775  1.7857
  154SAPE   C2317119   7.186   2.046  10.384 -0.8741 -0.2204  0.2470
  154SAPE   H3R17120   7.276   2.044  10.449  0.1051 -1.4073 -1.0992
  154SAPE   H3S17121   7.107   2.090  10.448 -0.2107  0.7295  0.4310
  154SAPE   C2417122   7.211   2.136  10.269  0.5209  0.2939  0.7223
  154SAPE   H4R17123   7.270   2.074  10.198  1.7124  1.5159  0.6212
  154SAPE   H4S17124   7.274   2.222  10.300 -0.4522  1.9736 -1.8627
  154SAPE   C2517125   7.097   2.182  10.188 -0.1326  0.5960 -0.6061
  154SAPE   H5R17126   7.023   2.231  10.253  1.7104  1.4487  0.8760
  154SAPE   C2617127   7.077   2.176  10.049 -0.0239  0.1445 -0.1280
  154SAPE   H6R17128   6.986   2.218  10.003 -0.2204 -1.3208 -1.1161
  154SAPE   C2717129   7.185   2.115   9.967  0.0759  0.6251  0.6577
  154SAPE   H7R17130   7.203   2.010   9.996 -0.9193  0.0945 -0.6186
  154SAPE   H7S17131   7.282   2.154  10.006  0.4099 -0.9199  1.3912
  154SAPE   C2817132   7.167   2.144   9.825  0.0837  0.2871  0.5797
  154SAPE   H8R17133   7.087   2.081   9.784 -0.3250  0.9242  0.3964
  154SAPE   C2917134   7.228   2.231   9.741 -0.7205  0.0982 -0.5012
  154SAPE   H9R17135   7.195   2.226   9.637  0.0419  0.6342 -0.7764
  154SAPE  C21017136   7.339   2.335   9.766  0.4770  0.1071 -0.5080
  154SAPE  H10R17137   7.318   2.382   9.865 -1.4482 -0.3507 -0.6700
  154SAPE  H10S17138   7.335   2.414   9.689  3.2078 -0.7374 -1.5619
  154SAPE  C21117139   7.473   2.280   9.774  0.0831  0.0646 -0.4397
  154SAPE  H11R17140   7.487   2.214   9.861  1.0699  0.5864 -0.2055
  154SAPE  C21217141   7.573   2.303   9.689  0.0646 -1.0009 -0.2357
  154SAPE  H12R17142   7.673   2.259   9.705  0.6865  0.8683  1.2447
  154SAPE  C21317143   7.558   2.366   9.555  0.7409  0.3199 -0.0468
  154SAPE  H13R17144   7.570   2.476   9.569  0.7176  0.4565 -1.0807
  154SAPE  H13S17145   7.458   2.346   9.511  0.4924  0.0923  0.6173
  154SAPE  C21417146   7.663   2.327   9.453  0.3806  0.3533  0.0835
  154SAPE  H14R17147   7.730   2.409   9.423  0.2175  0.6970  0.6347
  154SAPE  C21517148   7.670   2.217   9.378  0.2720  0.3608  0.1003
  154SAPE  H15R17149   7.751   2.212   9.304  0.4667 -0.6824  0.3638
  154SAPE  C21617150   7.581   2.091   9.385 -0.0608  0.0337  0.0684
  154SAPE  H16R17151   7.503   2.104   9.463 -0.2018  0.4147 -0.1378
  154SAPE  H16S17152   7.637   1.998   9.409  0.0748  0.0519 -0.1722
  154SAPE  C21717153   7.506   2.053   9.261 -0.3507  0.0898 -0.2707
  154SAPE  H17R17154   7.432   2.135   9.247  0.5287  0.4743 -2.9957
  154SAPE  H17S17155   7.452   1.956   9.264 -1.2467  0.5239 -1.6946
  154SAPE  C21817156   7.592   2.051   9.136  0.8116 -0.3380  0.4228
  154SAPE  H18R17157   7.665   1.968   9.137  0.6011 -0.5462 -0.5407
  154SAPE  H18S17158   7.661   2.138   9.130  2.1530 -1.3739  0.7577
  154SAPE  C21917159   7.515   2.059   9.006  0.0170  0.3323  0.5538
  154SAPE  H19R17160   7.449   2.147   9.014  2.7424  2.3715  1.4897
  154SAPE  H19S17161   7.453   1.968   8.987  1.1777 -0.2372 -0.6662
  154SAPE  C22017162   7.600   2.078   8.878  0.7597  0.4362 -0.2133
  154SAPE  H20R17163   7.539   2.089   8.786  1.6582  1.5104 -0.7064
  154SAPE  H20S17164   7.673   1.996   8.862 -0.1818 -0.6284  0.9391
  154SAPE  H20T17165   7.672   2.162   8.893  1.2518 -0.5325  3.5670
  154SAPE   C3317166   6.594   2.038   9.976  0.3968  0.2494  0.3637
  154SAPE   H3X17167   6.495   2.072  10.014  0.3367  2.5475 -1.7649
  154SAPE   H3Y17168   6.584   1.927   9.974 -2.2650  0.4322  1.0107
  154SAPE   C3417169   6.620   2.094   9.839  0.2788 -0.0850 -0.2363
  154SAPE   H4X17170   6.645   2.201   9.860 -1.2569 -0.0954  1.8293
  154SAPE   H4Y17171   6.526   2.107   9.781  0.2417 -0.2024 -0.2005
  154SAPE   C3517172   6.719   2.021   9.762 -0.1186  0.2402  0.5954
  154SAPE   H5X17173   6.680   1.917   9.766 -2.1350  0.8802 -1.2929
  154SAPE   H5Y17174   6.820   2.032   9.808  0.8739 -1.3755 -1.1053
  154SAPE   C3617175   6.743   2.062   9.618  0.1657 -0.1424 -0.3008
  154SAPE   H6X17176   6.820   2.143   9.619 -1.3976  1.4329 -2.5648
  154SAPE   H6Y17177   6.644   2.097   9.580  0.5329  0.5276 -0.6443
  154SAPE   C3717178   6.784   1.940   9.532 -0.7309 -0.5327 -0.6338
  154SAPE   H7X17179   6.698   1.872   9.518  0.5603 -2.1798 -0.8033
  154SAPE   H7Y17180   6.854   1.882   9.597  0.6184  1.8318  0.0947
  154SAPE   C3817181   6.839   1.954   9.391 -0.4998  0.3304 -0.5172
  154SAPE   H8X17182   6.765   2.009   9.329 -0.7536  2.0107  1.2256
  154SAPE   H8Y17183   6.850   1.855   9.342 -0.0177 -0.5872  1.3844
  154SAPE   C3917184   6.967   2.036   9.388 -0.3528 -0.1829  0.0391
  154SAPE   H9X17185   7.010   2.054   9.489 -0.4741  2.0734 -0.2794
  154SAPE   H9Y17186   6.945   2.133   9.337  0.4857  0.5194  0.9943
  154SAPE  C31017187   7.076   1.967   9.301 -0.0172  0.3718  0.6789
  154SAPE  H10X17188   7.088   1.860   9.327 -1.0731  0.1233  0.1689
  154SAPE  H10Y17189   7.179   2.007   9.316  1.6680 -3.3532 -0.4425
  154SAPE  C31117190   7.034   1.972   9.151 -0.1938 -0.7552  0.3086
  154SAPE  H11X17191   7.004   2.073   9.115 -0.9087 -2.0072 -2.7909
  154SAPE  H11Y17192   6.944   1.910   9.128 -1.2011  1.5148 -2.0735
  154SAPE  C31217193   7.143   1.912   9.046 -0.1668  0.3457  0.3814
  154SAPE  H12X17194   7.158   1.802   9.053  1.4012  0.6720  2.5485
  154SAPE  H12Y17195   7.239   1.964   9.065 -1.8470  3.5577  0.4341
  154SAPE  C31317196   7.100   1.967   8.906  0.4442  0.3334  0.0244
  154SAPE  H13X17197   7.072   2.075   8.901  0.4011  0.4791  2.4888
  154SAPE  H13Y17198   7.009   1.916   8.868  0.3972  1.7784 -1.8810
  154SAPE  C31417199   7.198   1.927   8.793  1.0087  0.1356  0.1250
  154SAPE  H14X17200   7.211   1.817   8.787 -1.8094 -0.2880  1.0864
  154SAPE  H14Y17201   7.296   1.968   8.827  1.1292 -1.4153  1.7392
  154SAPE  C31517202   7.161   1.974   8.651  0.2073 -0.0032  0.5407
  154SAPE  H15X17203   7.251   1.960   8.587  1.1378  1.9303  1.3829
  154SAPE  H15Y17204   7.125   2.079   8.648 -2.7152 -0.9051  2.3992
  154SAPE  C31617205   7.048   1.892   8.582 -0.8709 -0.3894  0.1300
  154SAPE  H16X17206   6.955   1.890   8.643 -1.8793 -1.1319 -1.3800
  154SAPE  H16Y17207   7.090   1.790   8.569 -0.9127 -0.6854  2.1188
  154SAPE  C31717208   7.014   1.946   8.440 -0.2864  0.2034  0.2783
  154SAPE  H17X17209   7.105   1.972   8.381  0.1991 -0.3095  0.8030
  154SAPE  H17Y17210   6.963   2.042   8.464 -1.6358 -0.8463  1.6851
  154SAPE  C31817211   6.925   1.855   8.357 -0.1890  0.8261 -0.2452
  154SAPE  H18X17212   6.978   1.759   8.342 -0.9325 -0.0248  2.2977
  154SAPE  H18Y17213   6.902   1.903   8.260  2.9611  0.7470 -1.0811
  154SAPE  H18Z17214   6.830   1.846   8.415 -0.3846  1.3582 -0.4791
  155SAPE     N17215   1.252   3.042  11.008  0.4465  0.4345  0.4934
  155SAPE   HN117216   1.348   3.080  10.994  0.3598  0.4264 -0.1139
  155SAPE   HN217217   1.253   2.987  11.097 -0.5462  1.9015  1.4330
  155SAPE   HN317218   1.237   2.979  10.927 -0.0213 -0.0577  0.9556
  155SAPE   C1217219   1.160   3.169  11.005 -0.4700  0.1497  0.3009
  155SAPE  H12A17220   1.157   3.212  11.108  2.4715  0.4283  0.2966
  155SAPE  H12B17221   1.056   3.137  10.982 -0.3914 -0.6582  1.0543
  155SAPE   C1117222   1.209   3.271  10.907  0.1223 -0.7940  0.4411
  155SAPE  H11A17223   1.307   3.311  10.941 -0.9732  1.6804  0.7813
  155SAPE  H11B17224   1.138   3.356  10.911 -0.1877 -0.9482 -1.3553
  155SAPE     P17225   1.235   3.292  10.647 -0.1693 -0.2124  0.0123
  155SAPE   O1317226   1.143   3.412  10.661 -0.0801  0.0529 -0.8147
  155SAPE   O1417227   1.380   3.318  10.623 -0.0674  0.3962 -0.0684
  155SAPE   O1217228   1.220   3.206  10.784  0.6151 -0.1530  0.1735
  155SAPE   O1117229   1.190   3.195  10.535  0.2667  0.1833  0.3587
  155SAPE    C117230   1.073   3.200  10.456 -0.0334 -0.4431  0.7463
  155SAPE    HA17231   1.027   3.099  10.461 -1.3468  0.1715  1.4549
  155SAPE    HB17232   0.993   3.270  10.489  0.4844 -0.0706  1.2262
  155SAPE    C217233   1.118   3.230  10.306 -0.0784 -0.1519  0.4645
  155SAPE    HS17234   1.207   3.165  10.290  0.9282  1.1102  0.9190
  155SAPE   O2117235   1.149   3.368  10.287  0.7827 -0.1311  0.7495
  155SAPE   C2117236   1.241   3.409  10.199 -0.1407  0.5053 -0.2630
  155SAPE   O2217237   1.310   3.331  10.136 -0.0016 -0.1679 -0.0383
  155SAPE   C2217238   1.249   3.569  10.199 -0.3942  0.0102 -0.6365
  155SAPE   H2R17239   1.147   3.608  10.179 -1.0845 -0.3300  2.0676
  155SAPE   H2S17240   1.277   3.597  10.303 -1.2949  2.0548 -0.9270
  155SAPE    C317241   1.004   3.179  10.211 -0.8759 -0.0474  0.5113
  155SAPE    HX17242   0.912   3.238  10.232 -0.5559  1.9193 -3.1669
  155SAPE    HY17243   0.979   3.074  10.237  2.0638 -0.6115  1.1947
  155SAPE   O3117244   1.030   3.202  10.073 -0.3267 -0.4298  0.3201
  155SAPE   C3117245   1.112   3.119  10.014  0.3271  1.2401 -0.2809
  155SAPE   O3217246   1.170   3.024  10.066 -0.3423 -0.3142 -0.1651
  155SAPE   C3217247   1.131   3.166   9.868 -0.3239 -0.2509 -0.4112
  155SAPE   H2X17248   1.144   3.276   9.869 -1.4520 -0.1090 -0.6277
  155SAPE   H2Y17249   1.049   3.131   9.802 -1.0148 -2.2719  1.4738
  155SAPE   C2317250   1.347   3.626  10.107  0.4672  0.0416 -0.0800
  155SAPE   H3R17251   1.445   3.585  10.138 -0.3393 -2.0475 -0.1805
  155SAPE   H3S17252   1.362   3.736  10.106  0.8739 -0.0097  0.3367
  155SAPE   C2417253   1.330   3.579   9.955 -0.5715 -0.4226 -0.4222
  155SAPE   H4R17254   1.223   3.599   9.934  0.1811  1.5659 -2.6047
  155SAPE   H4S17255   1.351   3.471   9.961 -0.2330 -0.3911 -1.0562
  155SAPE   C2517256   1.433   3.642   9.859  0.1145  0.6260 -0.0830
  155SAPE   H5R17257   1.533   3.599   9.868  0.0031  0.3576 -0.1387
  155SAPE   C2617258   1.400   3.717   9.754  0.4454 -0.5366  0.1083
  155SAPE   H6R17259   1.478   3.762   9.691  0.0362  0.8061  0.5547
  155SAPE   C2717260   1.256   3.768   9.724 -0.4120 -0.6470  0.1434
  155SAPE   H7R17261   1.234   3.874   9.746 -0.7231 -0.0404 -2.8138
  155SAPE   H7S17262   1.184   3.724   9.796 -1.4944  0.7849 -0.0480
  155SAPE   C2817263   1.224   3.749   9.578  0.2219  0.5157 -0.4012
  155SAPE   H8R17264   1.197   3.644   9.559 -0.8579  0.7512 -0.1906
  155SAPE   C2917265   1.250   3.839   9.476 -0.0762  0.2684  0.3963
  155SAPE   H9R17266   1.223   3.810   9.373 -1.1542  1.2360  0.3967
  155SAPE  C21017267   1.302   3.979   9.479 -0.2592  0.2595  0.1809
  155SAPE  H10R17268   1.350   4.002   9.576 -0.4953  1.8520 -0.0618
  155SAPE  H10S17269   1.202   4.028   9.479 -0.5923 -0.4094 -0.5885
  155SAPE  C21117270   1.395   4.020   9.363 -0.1244  0.5335 -0.0740
  155SAPE  H11R17271   1.475   3.949   9.340 -2.5521 -1.9399 -1.2361
  155SAPE  C21217272   1.383   4.133   9.281 -0.5860 -0.4709 -0.7513
  155SAPE  H12R17273   1.445   4.124   9.191  0.8636  0.9007  0.1020
  155SAPE  C21317274   1.286   4.243   9.299 -0.0189 -0.2827 -1.0801
  155SAPE  H13R17275   1.270   4.237   9.409 -1.9759  0.5237 -1.3127
  155SAPE  H13S17276   1.190   4.217   9.250 -0.9200 -0.1808  0.6067
  155SAPE  C21417277   1.345   4.376   9.262 -0.4613 -0.0638  0.1357
  155SAPE  H14R17278   1.317   4.420   9.165  0.3486 -0.0664 -0.1010
  155SAPE  C21517279   1.443   4.446   9.322  1.0826  0.5645 -0.0229
  155SAPE  H15R17280   1.475   4.544   9.283 -0.0375  0.6111 -0.8350
  155SAPE  C21617281   1.522   4.403   9.454  0.1421  0.0151 -0.1636
  155SAPE  H16R17282   1.625   4.446   9.454 -0.3743  1.2857  0.9201
  155SAPE  H16S17283   1.518   4.293   9.445  0.0483  0.1730 -2.4190
  155SAPE  C21717284   1.453   4.455   9.575 -0.2890  0.3473  0.3645
  155SAPE  H17R17285   1.343   4.441   9.566 -0.3339  1.5699 -1.2850
  155SAPE  H17S17286   1.463   4.565   9.590  0.4048  0.3913 -0.4054
  155SAPE  C21817287   1.491   4.387   9.705  0.3811  1.0497  0.1120
  155SAPE  H18R17288   1.439   4.433   9.792  0.8172  3.8276 -1.0239
  155SAPE  H18S17289   1.598   4.389   9.734  0.7753  2.8243 -1.3931
  155SAPE  C21917290   1.439   4.237   9.706 -0.2178  0.3378 -0.6110
  155SAPE  H19R17291   1.498   4.186   9.627  1.1532 -0.7010  1.0556
  155SAPE  H19S17292   1.332   4.238   9.675 -0.7744 -1.5677  1.1179
  155SAPE  C22017293   1.464   4.156   9.833 -0.1627 -0.1600  0.0005
  155SAPE  H20R17294   1.407   4.061   9.826 -1.0566  0.3981 -0.4523
  155SAPE  H20S17295   1.432   4.218   9.920  0.1578 -1.8699  1.3577
  155SAPE  H20T17296   1.568   4.120   9.845  0.8338  2.1085 -1.4230
  155SAPE   C3317297   1.268   3.124   9.809 -0.0096  0.2723  0.3652
  155SAPE   H3X17298   1.274   3.013   9.815 -1.5768  0.1577 -0.0517
  155SAPE   H3Y17299   1.341   3.179   9.872  1.5694  0.0907 -1.2686
  155SAPE   C3417300   1.288   3.157   9.658  0.3362 -0.2245 -0.1499
  155SAPE   H4X17301   1.186   3.133   9.620 -0.0001 -0.7681  1.0670
  155SAPE   H4Y17302   1.362   3.095   9.603  1.7964  1.5249 -0.1883
  155SAPE   C3517303   1.318   3.300   9.639  0.1464 -0.7057  0.0233
  155SAPE   H5X17304   1.411   3.340   9.684 -2.1241  1.0064  3.3709
  155SAPE   H5Y17305   1.238   3.364   9.682  2.1029  0.8562  1.4938
  155SAPE   C3617306   1.326   3.328   9.484  0.4370 -0.0637  0.0977
  155SAPE   H6X17307   1.420   3.289   9.440 -0.6617 -0.9811 -1.4732
  155SAPE   H6Y17308   1.324   3.438   9.472 -0.3047 -0.3687 -2.7685
  155SAPE   C3717309   1.214   3.271   9.394 -0.1061  0.8654 -0.7647
  155SAPE   H7X17310   1.115   3.304   9.434 -0.3556  0.4655 -1.0580
  155SAPE   H7Y17311   1.196   3.162   9.396 -2.1415  1.1789 -0.6331
  155SAPE   C3817312   1.240   3.324   9.248  0.6046 -0.4979  0.2896
  155SAPE   H8X17313   1.345   3.290   9.240 -0.0651 -2.6178  0.1248
  155SAPE   H8Y17314   1.231   3.434   9.239  2.4045 -0.4496 -1.1941
  155SAPE   C3917315   1.168   3.249   9.129 -0.0428  0.4677 -0.3352
  155SAPE   H9X17316   1.059   3.268   9.137  0.2567  1.7529  0.9211
  155SAPE   H9Y17317   1.192   3.141   9.136  0.8618  0.6383 -0.7909
  155SAPE  C31017318   1.210   3.297   8.995 -0.4491  0.5907  0.3219
  155SAPE  H10X17319   1.319   3.314   8.984 -0.4446 -0.3688 -1.2127
  155SAPE  H10Y17320   1.161   3.395   8.973 -1.0962  0.0810 -0.5722
  155SAPE  C31117321   1.162   3.210   8.874 -0.4629  0.2218  0.5865
  155SAPE  H11X17322   1.070   3.261   8.838  0.9184  2.3082 -0.1157
  155SAPE  H11Y17323   1.146   3.106   8.909  0.2517 -0.3340 -0.7083
  155SAPE  C31217324   1.258   3.208   8.762  0.1433 -0.0432 -0.5114
  155SAPE  H12X17325   1.363   3.188   8.790  0.3434  0.9311 -0.5651
  155SAPE  H12Y17326   1.280   3.313   8.733 -0.9893  0.3355 -0.0610
  155SAPE  C31317327   1.218   3.128   8.634 -0.3342 -0.3741 -0.7011
  155SAPE  H13X17328   1.294   3.148   8.554 -1.1043  1.8312 -0.9115
  155SAPE  H13Y17329   1.114   3.157   8.606 -0.0409  1.5999  0.1412
  155SAPE  C31417330   1.226   2.974   8.649  0.2172  0.0714 -0.3838
  155SAPE  H14X17331   1.139   2.935   8.706  1.3260  3.0734  3.5538
  155SAPE  H14Y17332   1.316   2.960   8.712 -0.1004  1.5226  0.4238
  155SAPE  C31517333   1.233   2.898   8.516 -0.3844 -0.1766 -0.4502
  155SAPE  H15X17334   1.299   2.944   8.439 -1.4991  1.1712 -0.6210
  155SAPE  H15Y17335   1.128   2.909   8.479 -0.9831  0.4172  1.3720
  155SAPE  C31617336   1.282   2.752   8.537  0.0496 -0.5556  0.0358
  155SAPE  H16X17337   1.212   2.716   8.616 -0.7645 -0.2609 -0.5441
  155SAPE  H16Y17338   1.388   2.742   8.570  0.2937 -0.3407 -0.6869
  155SAPE  C31717339   1.262   2.673   8.401  0.0530  0.3428 -0.4464
  155SAPE  H17X17340   1.311   2.737   8.324  0.6453 -1.1275 -1.3113
  155SAPE  H17Y17341   1.156   2.658   8.370  0.3531  0.0980 -1.3771
  155SAPE  C31817342   1.322   2.532   8.404  0.3025  0.4754 -0.5625
  155SAPE  H18X17343   1.413   2.532   8.467  0.3757  1.0974 -0.6622
  155SAPE  H18Y17344   1.345   2.495   8.301  1.0725  2.1971 -1.0420
  155SAPE  H18Z17345   1.254   2.457   8.449 -1.1453  2.2805  0.3159
  156SAPE     N17346   4.798   0.999  10.294  0.2606 -0.2482  0.0811
  156SAPE   HN117347   4.837   0.931  10.362 -2.2629 -0.4844  1.3264
  156SAPE   HN217348   4.704   0.964  10.267 -0.9839  1.5951  1.8487
  156SAPE   HN317349   4.857   0.995  10.208 -1.7722  0.5464 -1.3780
  156SAPE   C1217350   4.781   1.142  10.354  0.0439  0.0951 -0.6948
  156SAPE  H12A17351   4.736   1.131  10.455  0.7482  0.5814 -0.3225
  156SAPE  H12B17352   4.703   1.184  10.286  1.6671  2.8185 -0.9516
  156SAPE   C1117353   4.912   1.219  10.359  0.9224  0.1624 -0.1620
  156SAPE  H11A17354   4.882   1.324  10.377  1.0387  0.1403  0.1699
  156SAPE  H11B17355   4.965   1.205  10.262 -1.8180  2.1838 -1.9893
  156SAPE     P17356   5.116   1.263  10.522  0.2411  0.1721  0.3454
  156SAPE   O1317357   5.072   1.399  10.568  0.3122  0.0887 -0.1718
  156SAPE   O1417358   5.181   1.185  10.625 -0.3071 -0.1489 -0.6284
  156SAPE   O1217359   4.987   1.180  10.479 -0.0583  0.4487  0.3317
  156SAPE   O1117360   5.208   1.275  10.396  0.1622  0.4103  0.6743
  156SAPE    C117361   5.266   1.160  10.322  0.6932  0.3891  0.5252
  156SAPE    HA17362   5.362   1.123  10.365  2.0920  1.7870 -1.2869
  156SAPE    HB17363   5.187   1.082  10.315  1.0808  0.1372 -1.3737
  156SAPE    C217364   5.288   1.203  10.173  0.7687 -0.2387 -0.4120
  156SAPE    HS17365   5.370   1.277  10.166 -0.4903  0.9744 -3.1989
  156SAPE   O2117366   5.170   1.261  10.112  0.7040  0.2475 -0.1864
  156SAPE   C2117367   5.167   1.386  10.103 -0.0982 -0.4238  0.8138
  156SAPE   O2217368   5.259   1.464  10.129 -0.8388 -0.1302  0.3360
  156SAPE   C2217369   5.027   1.429  10.053 -0.4261 -0.7523 -0.4533
  156SAPE   H2R17370   4.985   1.350   9.988 -2.7003  0.4232 -0.4627
  156SAPE   H2S17371   4.962   1.440  10.142  1.6977 -2.2770  1.3408
  156SAPE    C317372   5.329   1.077  10.097  0.1458  0.8516 -0.3185
  156SAPE    HX17373   5.245   1.009  10.123  0.9841 -0.1212 -0.1396
  156SAPE    HY17374   5.420   1.031  10.140 -1.5108 -3.8671 -1.5251
  156SAPE   O3117375   5.343   1.088   9.957  0.2599  0.4303 -0.5339
  156SAPE   C3117376   5.239   1.075   9.875  0.5363 -0.1368 -0.4816
  156SAPE   O3217377   5.136   1.020   9.902 -0.6554  0.0989 -0.6003
  156SAPE   C3217378   5.263   1.152   9.739 -0.0302  0.5535 -0.3459
  156SAPE   H2X17379   5.345   1.099   9.687  0.0181  0.4368 -0.1505
  156SAPE   H2Y17380   5.312   1.249   9.762 -1.3006  0.3782  3.4229
  156SAPE   C2317381   5.026   1.572   9.983 -0.0205  0.0738 -0.4048
  156SAPE   H3R17382   5.076   1.644  10.051  1.3916 -0.6344 -0.6633
  156SAPE   H3S17383   4.918   1.599   9.980  0.0619  0.3285 -1.0943
  156SAPE   C2417384   5.079   1.581   9.839 -0.6534 -0.0295  0.4140
  156SAPE   H4R17385   5.015   1.508   9.784 -0.4324  0.2169 -0.1786
  156SAPE   H4S17386   5.185   1.552   9.821 -0.4634  1.3781 -0.8109
  156SAPE   C2517387   5.063   1.718   9.778  0.4581  1.0152  0.0751
  156SAPE   H5R17388   5.049   1.801   9.850  1.9249  0.3369  1.1760
  156SAPE   C2617389   5.082   1.746   9.652  0.2012 -0.0925 -0.6190
  156SAPE   H6R17390   5.075   1.851   9.620  2.9744  0.3516  0.1119
  156SAPE   C2717391   5.129   1.641   9.554  0.3994 -0.0058  0.4395
  156SAPE   H7R17392   5.071   1.546   9.559  1.1211 -0.4867 -0.2029
  156SAPE   H7S17393   5.234   1.614   9.577  0.3773 -2.0828 -1.6974
  156SAPE   C2817394   5.125   1.683   9.415  0.6325 -0.5727  0.1190
  156SAPE   H8R17395   5.212   1.735   9.372  0.2320 -1.4652 -1.8188
  156SAPE   C2917396   5.022   1.664   9.329  0.1620 -1.0130  0.3966
  156SAPE   H9R17397   5.038   1.689   9.223  0.7756 -0.4678  0.6204
  156SAPE  C21017398   4.886   1.610   9.362  0.0724 -0.0035 -0.4894
  156SAPE  H10R17399   4.890   1.557   9.460 -1.8265  0.1820 -0.2808
  156SAPE  H10S17400   4.860   1.532   9.287 -0.9872 -0.5428  0.4044
  156SAPE  C21117401   4.768   1.712   9.375 -0.1997  0.2568  0.6525
  156SAPE  H11R17402   4.751   1.758   9.473 -1.3455  0.4034  0.3964
  156SAPE  C21217403   4.688   1.748   9.267 -0.2546  0.5002  0.6338
  156SAPE  H12R17404   4.598   1.804   9.296  2.1225  3.6561  2.1390
  156SAPE  C21317405   4.694   1.689   9.123 -0.6069  0.5348  0.0778
  156SAPE  H13R17406   4.800   1.672   9.095 -0.4925 -1.7490  1.6962
  156SAPE  H13S17407   4.653   1.766   9.055 -0.4902  0.4114 -0.1348
  156SAPE  C21417408   4.628   1.555   9.117 -0.2314 -0.2826  0.2425
  156SAPE  H14R17409   4.607   1.505   9.213 -1.1871 -1.2960 -0.4749
  156SAPE  C21517410   4.557   1.506   9.009 -0.9426 -0.1462 -0.1682
  156SAPE  H15R17411   4.512   1.406   9.021 -1.6755  0.3197  1.0292
  156SAPE  C21617412   4.544   1.583   8.876 -0.1436 -0.3443  0.1093
  156SAPE  H16R17413   4.553   1.691   8.898  1.2019  0.0370 -2.1576
  156SAPE  H16S17414   4.441   1.567   8.838 -0.1723  1.1847 -0.4878
  156SAPE  C21717415   4.659   1.558   8.774  0.3529  0.5100 -0.3492
  156SAPE  H17R17416   4.758   1.590   8.814 -0.1465  3.5707 -1.3889
  156SAPE  H17S17417   4.643   1.610   8.677 -1.8563 -0.2064 -0.3822
  156SAPE  C21817418   4.674   1.414   8.728  0.5531 -0.3844 -0.5129
  156SAPE  H18R17419   4.587   1.380   8.666  0.4560 -0.4815 -0.3227
  156SAPE  H18S17420   4.687   1.358   8.823 -0.9818  0.2410  0.0837
  156SAPE  C21917421   4.802   1.395   8.646  0.5669 -0.0737  0.7896
  156SAPE  H19R17422   4.884   1.426   8.713  1.0287 -1.7116  1.0111
  156SAPE  H19S17423   4.803   1.474   8.568  1.9840  0.2386  1.1118
  156SAPE  C22017424   4.815   1.254   8.588  0.1519  0.7409 -0.1467
  156SAPE  H20R17425   4.748   1.222   8.505  1.6430 -2.1668 -0.3147
  156SAPE  H20S17426   4.785   1.186   8.670  1.1604 -0.2756 -0.5995
  156SAPE  H20T17427   4.920   1.229   8.561  0.4107  0.0227  1.5076
  156SAPE   C3317428   5.139   1.166   9.652 -0.1401  0.6654 -0.2971
  156SAPE   H3X17429   5.054   1.208   9.710 -1.0029 -1.5505  0.0847
  156SAPE   H3Y17430   5.105   1.062   9.632  2.5103 -0.3156  0.1564
  156SAPE   C3417431   5.175   1.246   9.525 -0.7292 -0.5655  0.3967
  156SAPE   H4X17432   5.225   1.339   9.558  2.0083 -1.1699 -1.8299
  156SAPE   H4Y17433   5.083   1.279   9.473 -0.2184  1.1363  0.5363
  156SAPE   C3517434   5.248   1.155   9.428 -0.0446 -0.8205  0.1668
  156SAPE   H5X17435   5.186   1.063   9.421 -2.0528  0.5572 -0.6082
  156SAPE   H5Y17436   5.352   1.139   9.463  0.4965  0.6671 -0.6854
  156SAPE   C3617437   5.270   1.213   9.290  0.5798  0.4403  0.1165
  156SAPE   H6X17438   5.326   1.140   9.228  0.3581 -2.2230  2.9907
  156SAPE   H6Y17439   5.332   1.305   9.296  0.6040  0.4946 -0.7895
  156SAPE   C3717440   5.155   1.241   9.193 -0.3726  0.0555 -1.1014
  156SAPE   H7X17441   5.058   1.259   9.245 -0.8897 -0.1518 -1.9957
  156SAPE   H7Y17442   5.148   1.142   9.143 -2.0168  0.3717 -1.5070
  156SAPE   C3817443   5.181   1.339   9.085 -0.2363  0.1327 -0.6531
  156SAPE   H8X17444   5.264   1.325   9.013  0.0753 -3.7122  0.3531
  156SAPE   H8Y17445   5.193   1.439   9.131  0.8259 -0.4211  0.2871
  156SAPE   C3917446   5.051   1.366   9.007 -0.2882 -0.3025  0.0037
  156SAPE   H9X17447   4.973   1.361   9.086 -0.9709  2.6111 -0.4337
  156SAPE   H9Y17448   5.035   1.281   8.938 -0.9285  0.3114 -0.6235
  156SAPE  C31017449   5.050   1.501   8.934 -0.1819 -0.4303  1.4330
  156SAPE  H10X17450   5.049   1.587   9.004  0.5230  1.8750 -1.2814
  156SAPE  H10Y17451   4.949   1.515   8.891  0.7556  1.7024 -0.1794
  156SAPE  C31117452   5.162   1.519   8.827  0.7553 -0.3940  0.4831
  156SAPE  H11X17453   5.164   1.423   8.771 -0.2483 -2.4472  3.7922
  156SAPE  H11Y17454   5.258   1.526   8.883  1.5281 -3.9112 -0.2903
  156SAPE  C31217455   5.138   1.640   8.733 -0.2637 -0.1174 -0.1422
  156SAPE  H12X17456   5.154   1.735   8.789 -0.1338  0.5040 -1.2159
  156SAPE  H12Y17457   5.034   1.632   8.694 -0.2426 -1.3847  0.0483
  156SAPE  C31317458   5.222   1.633   8.602 -0.5598  0.6075  0.0151
  156SAPE  H13X17459   5.212   1.534   8.553 -2.1302  0.3247  0.8773
  156SAPE  H13Y17460   5.325   1.657   8.638 -0.1573  0.5835 -1.1162
  156SAPE  C31417461   5.176   1.745   8.499 -0.0386 -0.0131  0.4633
  156SAPE  H14X17462   5.164   1.840   8.555 -1.1283  0.7275 -1.0001
  156SAPE  H14Y17463   5.076   1.726   8.455 -0.3020 -0.4242  1.2289
  156SAPE  C31517464   5.276   1.766   8.385  0.0006 -0.1653 -0.3408
  156SAPE  H15X17465   5.256   1.686   8.309 -1.2860  0.6156 -0.8467
  156SAPE  H15Y17466   5.383   1.765   8.413  0.0663 -2.0336 -0.5976
  156SAPE  C31617467   5.254   1.905   8.319  0.3881  0.4141  0.3819
  156SAPE  H16X17468   5.280   1.982   8.394  1.1108 -1.3443  1.9665
  156SAPE  H16Y17469   5.148   1.919   8.290  0.3245  0.8521  0.8177
  156SAPE  C31717470   5.307   1.912   8.173  0.0898 -0.3018 -0.4134
  156SAPE  H17X17471   5.269   1.817   8.130  1.6085 -1.7209  1.2900
  156SAPE  H17Y17472   5.414   1.884   8.178  0.2654  0.3829 -0.2847
  156SAPE  C31817473   5.262   2.041   8.098  0.3078 -0.7498 -0.0814
  156SAPE  H18X17474   5.169   2.078   8.147  0.8356 -0.8344  0.9916
  156SAPE  H18Y17475   5.235   2.017   7.993 -1.3686 -1.4789  0.4979
  156SAPE  H18Z17476   5.335   2.123   8.107 -0.8399  0.4254 -1.2274
  157SAPE     N17477   3.884   1.056  10.698  0.3584  0.2728  0.3055
  157SAPE   HN117478   3.908   1.058  10.799 -1.4461 -1.4741  0.8009
  157SAPE   HN217479   3.813   0.982  10.681 -0.3875  1.4479 -2.0439
  157SAPE   HN317480   3.971   1.042  10.642  0.8787  2.9999  0.3472
  157SAPE   C1217481   3.817   1.187  10.648 -0.2405  0.2463 -0.6764
  157SAPE  H12A17482   3.725   1.204  10.708 -0.5114  0.8815 -1.2645
  157SAPE  H12B17483   3.792   1.163  10.542  1.5882 -0.4006 -0.9780
  157SAPE   C1117484   3.910   1.305  10.657  0.1263 -0.2135  0.1466
  157SAPE  H11A17485   3.899   1.345  10.760 -2.7217 -1.0749  0.2222
  157SAPE  H11B17486   3.859   1.388  10.603 -0.4215  0.1385  1.1750
  157SAPE     P17487   4.167   1.313  10.685 -0.3719 -0.1947 -0.5061
  157SAPE   O1317488   4.181   1.451  10.725 -0.2691  0.0736 -0.1304
  157SAPE   O1417489   4.157   1.219  10.796  0.2581  0.1043 -0.8204
  157SAPE   O1217490   4.039   1.281  10.606  0.5537 -0.0556  0.3062
  157SAPE   O1117491   4.283   1.278  10.575  0.1760  0.3535 -0.9768
  157SAPE    C117492   4.290   1.362  10.461 -0.3274 -0.2186 -1.1916
  157SAPE    HA17493   4.202   1.427  10.443 -0.6515 -0.7117 -1.3813
  157SAPE    HB17494   4.383   1.423  10.472 -0.6347  0.6278 -3.0712
  157SAPE    C217495   4.269   1.279  10.333 -0.0799  0.0826  0.0645
  157SAPE    HS17496   4.272   1.348  10.246  0.5708  1.3009  1.0338
  157SAPE   O2117497   4.151   1.199  10.329  0.2773 -0.0594  0.1736
  157SAPE   C2117498   4.105   1.170  10.206 -0.3882  0.6964  0.1361
  157SAPE   O2217499   4.143   1.220  10.101 -0.2025  0.2607 -0.1639
  157SAPE   C2217500   3.992   1.064  10.228 -0.7712 -0.4344  0.4251
  157SAPE   H2R17501   4.033   0.969  10.269 -0.8818  0.0496  1.7032
  157SAPE   H2S17502   3.930   1.103  10.312 -1.0940 -0.9271  0.4153
  157SAPE    C317503   4.399   1.196  10.308  0.2423 -0.0857 -0.3348
  157SAPE    HX17504   4.410   1.123  10.392 -0.5873  0.0523 -0.0965
  157SAPE    HY17505   4.491   1.257  10.319 -0.0550  0.0702  1.4648
  157SAPE   O3117506   4.383   1.120  10.185 -0.2393  0.5068 -0.5776
  157SAPE   C3117507   4.447   1.003  10.173  0.0937 -0.4251 -0.0437
  157SAPE   O3217508   4.552   0.973  10.218 -0.3762 -0.6185  0.3099
  157SAPE   C3217509   4.371   0.912  10.073  0.3084 -0.1507 -0.3792
  157SAPE   H2X17510   4.282   0.875  10.128  0.5411 -2.3076 -1.3805
  157SAPE   H2Y17511   4.428   0.818  10.059 -1.4741 -1.2476 -0.3151
  157SAPE   C2317512   3.911   1.039  10.104 -0.0877 -0.0025  0.2234
  157SAPE   H3R17513   3.849   0.949  10.123 -1.8422  1.0263 -0.4711
  157SAPE   H3S17514   3.971   1.014  10.014  2.4387  1.4156  1.4511
  157SAPE   C2417515   3.817   1.151  10.074  0.2947 -0.0024 -0.1856
  157SAPE   H4R17516   3.773   1.147   9.972  0.0508 -0.7382 -0.0545
  157SAPE   H4S17517   3.879   1.243  10.069  0.4950 -0.2380 -3.1826
  157SAPE   C2517518   3.709   1.154  10.179  0.8807 -0.3686 -0.7232
  157SAPE   H5R17519   3.658   1.057  10.193  0.5920  0.0931  1.6591
  157SAPE   C2617520   3.681   1.261  10.259 -0.1177 -0.7953  0.3256
  157SAPE   H6R17521   3.606   1.251  10.338  1.2786 -1.0278  1.6372
  157SAPE   C2717522   3.752   1.394  10.239 -0.2763  0.2117  0.4045
  157SAPE   H7R17523   3.677   1.471  10.268 -1.2312 -0.2167 -0.8251
  157SAPE   H7S17524   3.769   1.415  10.131  0.6880 -1.2176  0.2561
  157SAPE   C2817525   3.875   1.403  10.322  0.2913  0.5157  0.7802
  157SAPE   H8R17526   3.921   1.308  10.353  0.9035  0.8481  0.9045
  157SAPE   C2917527   3.913   1.526  10.358  0.4655 -0.5347 -0.4593
  157SAPE   H9R17528   4.002   1.541  10.420 -0.6808  1.1253  0.8180
  157SAPE  C21017529   3.860   1.667  10.328 -0.0910  0.1735  0.1742
  157SAPE  H10R17530   3.822   1.711  10.423  2.6172  0.1688  1.2819
  157SAPE  H10S17531   3.776   1.674  10.256  0.6589  1.3508 -0.5970
  157SAPE  C21117532   3.971   1.764  10.283 -0.2884 -0.2232 -0.6641
  157SAPE  H11R17533   3.973   1.860  10.337  1.6485 -0.6122  0.0039
  157SAPE  C21217534   4.057   1.747  10.179  0.1048 -0.0848  0.3190
  157SAPE  H12R17535   4.131   1.822  10.146  1.1092 -1.3820 -0.3999
  157SAPE  C21317536   4.058   1.625  10.086 -0.2212  0.4267  0.5608
  157SAPE  H13R17537   3.957   1.599  10.048 -1.2320  2.2313  1.9498
  157SAPE  H13S17538   4.098   1.544  10.150 -2.4997 -1.9860 -0.9758
  157SAPE  C21417539   4.150   1.655   9.971  0.4001  0.5292 -0.4398
  157SAPE  H14R17540   4.247   1.682  10.015 -0.1089  2.4229 -0.4236
  157SAPE  C21517541   4.109   1.649   9.842  0.5974 -0.3141  0.2135
  157SAPE  H15R17542   4.177   1.681   9.761  0.8201 -1.8793 -0.2312
  157SAPE  C21617543   3.971   1.616   9.785  0.7067 -0.5333 -0.4317
  157SAPE  H16R17544   3.920   1.697   9.727 -0.1829 -1.9010 -1.5755
  157SAPE  H16S17545   3.890   1.583   9.853  0.5081 -1.8507 -1.2933
  157SAPE  C21717546   3.988   1.503   9.680  0.7224  0.1031  0.3617
  157SAPE  H17R17547   4.088   1.486   9.636  0.7429 -0.5135  0.6382
  157SAPE  H17S17548   3.929   1.530   9.590  2.2226  0.3310 -0.5719
  157SAPE  C21817549   3.934   1.376   9.738  0.2222 -0.0244 -0.3062
  157SAPE  H18R17550   3.835   1.391   9.786  0.9267 -0.2422  1.2354
  157SAPE  H18S17551   4.007   1.340   9.814 -1.1561 -2.6857 -0.1611
  157SAPE  C21917552   3.920   1.269   9.633  0.6130  0.4306  0.0579
  157SAPE  H19R17553   3.990   1.192   9.671 -0.1319  0.1361  0.8318
  157SAPE  H19S17554   3.949   1.312   9.534  2.5955 -2.0431 -0.4915
  157SAPE  C22017555   3.778   1.221   9.628  0.1547  0.0739  0.2764
  157SAPE  H20R17556   3.744   1.199   9.732 -0.2507  0.2548  0.1819
  157SAPE  H20S17557   3.777   1.126   9.571  1.4928 -2.1873  3.7972
  157SAPE  H20T17558   3.713   1.300   9.587 -1.6126 -1.6359 -0.2845
  157SAPE   C3317559   4.318   0.973   9.939  0.2479 -0.2405 -0.0563
  157SAPE   H3X17560   4.393   1.036   9.886  0.9109 -1.3719 -0.4821
  157SAPE   H3Y17561   4.250   1.053   9.975 -0.1774 -0.7998  0.3977
  157SAPE   C3417562   4.251   0.874   9.845  0.3337 -0.9567  0.9559
  157SAPE   H4X17563   4.193   0.795   9.898  0.2963 -0.8420  1.0865
  157SAPE   H4Y17564   4.328   0.829   9.779  0.8497 -0.6585  1.3547
  157SAPE   C3517565   4.167   0.954   9.749  0.4856  0.0307  0.4453
  157SAPE   H5X17566   4.240   0.998   9.678 -0.9592  1.7300 -0.0242
  157SAPE   H5Y17567   4.122   1.043   9.798 -0.2506  0.1451 -0.4018
  157SAPE   C3617568   4.052   0.887   9.681  0.5995 -0.3200  0.3831
  157SAPE   H6X17569   4.010   0.958   9.606 -0.3635 -0.6506  0.5968
  157SAPE   H6Y17570   3.984   0.871   9.767 -0.7500 -0.3896 -0.6881
  157SAPE   C3717571   4.090   0.759   9.605 -0.0417  0.1083 -0.4450
  157SAPE   H7X17572   4.004   0.689   9.597  0.0838 -0.4553  2.7196
  157SAPE   H7Y17573   4.182   0.717   9.650  0.5252  0.5853 -1.1420
  157SAPE   C3817574   4.143   0.794   9.463  0.3568 -0.2540 -0.4691
  157SAPE   H8X17575   4.212   0.881   9.460  0.7068 -0.5229 -0.2600
  157SAPE   H8Y17576   4.073   0.804   9.377 -1.0388  0.6053  0.7354
  157SAPE   C3917577   4.230   0.674   9.403  0.4169  0.3255  0.2022
  157SAPE   H9X17578   4.168   0.582   9.412  1.1812 -0.2216 -0.1044
  157SAPE   H9Y17579   4.322   0.663   9.465  2.0597  2.0465 -1.8475
  157SAPE  C31017580   4.293   0.683   9.264 -0.1147 -0.3602 -0.2536
  157SAPE  H10X17581   4.373   0.607   9.269  0.7258  0.5838  0.9069
  157SAPE  H10Y17582   4.342   0.781   9.246 -0.1298 -0.2397  0.3454
  157SAPE  C31117583   4.192   0.663   9.155  0.9878 -0.2200 -0.7580
  157SAPE  H11X17584   4.106   0.726   9.188  1.8302  1.1129 -1.0898
  157SAPE  H11Y17585   4.153   0.559   9.153  0.6946 -0.1242 -0.2298
  157SAPE  C31217586   4.247   0.692   9.015  0.2524  0.4803  0.0974
  157SAPE  H12X17587   4.340   0.637   8.992  0.8666  1.0831  1.1092
  157SAPE  H12Y17588   4.273   0.800   9.024  1.0422  0.2231  1.0284
  157SAPE  C31317589   4.144   0.667   8.900  0.0444 -0.2813 -0.1189
  157SAPE  H13X17590   4.117   0.561   8.917 -2.1878  0.2016 -0.5742
  157SAPE  H13Y17591   4.197   0.682   8.804  0.0282  0.2371 -0.0465
  157SAPE  C31417592   4.023   0.764   8.914 -0.5280  0.0732 -0.5921
  157SAPE  H14X17593   4.072   0.863   8.904 -0.0589 -0.2425 -1.4677
  157SAPE  H14Y17594   4.004   0.774   9.023 -1.5884  1.8771 -0.9303
  157SAPE  C31517595   3.901   0.742   8.821 -0.3240  0.3382 -0.4516
  157SAPE  H15X17596   3.879   0.635   8.841 -1.5536  1.2702  3.6799
  157SAPE  H15Y17597   3.931   0.754   8.714 -0.1197 -0.0884 -0.4472
  157SAPE  C31617598   3.783   0.839   8.845 -0.3529 -0.1609  0.0952
  157SAPE  H16X17599   3.753   0.834   8.952 -1.1164  2.4298  0.0364
  157SAPE  H16Y17600   3.694   0.819   8.782  1.3012 -0.9812 -2.0065
  157SAPE  C31717601   3.818   0.987   8.817  0.2466 -0.7420  0.3352
  157SAPE  H17X17602   3.837   0.984   8.708 -2.4317 -0.3575 -0.1688
  157SAPE  H17Y17603   3.916   1.008   8.866 -0.0194  3.2324 -0.6670
  157SAPE  C31817604   3.721   1.104   8.844 -0.8011 -0.0194 -0.2807
  157SAPE  H18X17605   3.624   1.085   8.794 -0.1345 -1.8402 -0.9330
  157SAPE  H18Y17606   3.766   1.199   8.808 -0.5491 -0.9486 -2.5309
  157SAPE  H18Z17607   3.703   1.117   8.953 -2.6872 -1.0152 -0.4663
  158SAPE     N17608   5.403   1.515  10.396  0.4611  0.0230 -0.4184
  158SAPE   HN117609   5.375   1.609  10.360 -1.2353 -0.2869  0.0940
  158SAPE   HN217610   5.473   1.470  10.333 -0.0283 -3.0610  1.1452
  158SAPE   HN317611   5.330   1.442  10.399  1.6201 -1.1150  1.3005
  158SAPE   C1217612   5.459   1.518  10.538 -0.1797 -0.3951  0.2787
  158SAPE  H12A17613   5.379   1.551  10.607 -1.8203 -1.3488 -1.1283
  158SAPE  H12B17614   5.554   1.576  10.544 -0.6893  0.8241 -2.5642
  158SAPE   C1117615   5.490   1.372  10.581  0.5896  0.1630  0.0527
  158SAPE  H11A17616   5.404   1.304  10.561  1.3465 -1.6533  2.7539
  158SAPE  H11B17617   5.519   1.381  10.688  1.9674 -0.0071 -0.2972
  158SAPE     P17618   5.648   1.169  10.560 -0.1907 -0.1364 -0.2331
  158SAPE   O1317619   5.712   1.187  10.691 -0.1088  0.3477  0.2327
  158SAPE   O1417620   5.535   1.070  10.549 -0.0534 -0.7076  0.6012
  158SAPE   O1217621   5.598   1.313  10.508 -0.0239  0.6413 -0.0659
  158SAPE   O1117622   5.752   1.130  10.455 -0.2481 -0.0984  0.2759
  158SAPE    C117623   5.762   1.177  10.326  0.4300  0.8374 -0.0038
  158SAPE    HA17624   5.804   1.098  10.261  0.7443  0.3285  0.8106
  158SAPE    HB17625   5.664   1.198  10.280  0.8281  0.3156 -1.0876
  158SAPE    C217626   5.843   1.312  10.300  0.5240 -0.0364 -0.0257
  158SAPE    HS17627   5.795   1.395  10.357 -2.3911 -3.5668  2.8352
  158SAPE   O2117628   5.815   1.337  10.156 -0.0836 -0.3518  0.6677
  158SAPE   C2117629   5.706   1.413  10.139 -0.0422  1.0341  0.3497
  158SAPE   O2217630   5.623   1.442  10.221  0.3544  0.5505  0.3481
  158SAPE   C2217631   5.699   1.459   9.992  0.4650 -0.3902  0.2036
  158SAPE   H2R17632   5.783   1.531   9.990  0.4225 -0.3158  0.8425
  158SAPE   H2S17633   5.727   1.367   9.936 -1.5253 -0.9283  0.0218
  158SAPE    C317634   5.993   1.305  10.323 -0.2873  0.0432 -0.1855
  158SAPE    HX17635   6.014   1.203  10.284 -0.3760 -0.0256 -0.0542
  158SAPE    HY17636   6.006   1.311  10.433 -0.2825  0.2273 -0.1975
  158SAPE   O3117637   6.065   1.407  10.245  0.3215 -0.0628 -0.4224
  158SAPE   C3117638   6.192   1.387  10.237  0.0107 -0.6128  0.4165
  158SAPE   O3217639   6.247   1.286  10.279 -0.3443 -0.1982 -0.3476
  158SAPE   C3217640   6.269   1.497  10.158  0.5966 -0.4122  0.3637
  158SAPE   H2X17641   6.375   1.464  10.150  0.4880 -1.1014  1.6161
  158SAPE   H2Y17642   6.268   1.586  10.225  1.9119  1.0724 -1.5527
  158SAPE   C2317643   5.567   1.510   9.958  0.4310 -0.2644  0.4382
  158SAPE   H3R17644   5.560   1.607  10.012  0.0077  0.8075 -1.5017
  158SAPE   H3S17645   5.491   1.443  10.004  0.4381 -0.8039 -0.3178
  158SAPE   C2417646   5.555   1.538   9.810 -0.0184 -0.7732 -0.1230
  158SAPE   H4R17647   5.647   1.593   9.780 -0.4696  1.1053  1.8442
  158SAPE   H4S17648   5.460   1.595   9.802  0.2671 -0.1902  0.5761
  158SAPE   C2517649   5.538   1.420   9.725 -0.0608 -0.4428  0.1462
  158SAPE   H5R17650   5.533   1.321   9.773  0.6724  0.0397  1.2505
  158SAPE   C2617651   5.551   1.418   9.594 -0.4745 -0.1695 -0.3616
  158SAPE   H6R17652   5.537   1.320   9.547  0.4532  0.3081 -1.6554
  158SAPE   C2717653   5.580   1.529   9.497  1.1219 -0.7192 -0.0661
  158SAPE   H7R17654   5.683   1.518   9.459  1.2011  1.1999 -0.4698
  158SAPE   H7S17655   5.581   1.627   9.550 -2.4802 -1.5308  1.6785
  158SAPE   C2817656   5.474   1.546   9.388 -0.4750 -0.5716 -0.0132
  158SAPE   H8R17657   5.372   1.562   9.427 -0.0373 -1.7417  1.7124
  158SAPE   C2917658   5.492   1.521   9.254 -0.0071  0.6573 -0.4515
  158SAPE   H9R17659   5.406   1.549   9.190 -1.7111 -2.3946  0.3743
  158SAPE  C21017660   5.617   1.495   9.176  0.7071  0.9056  0.1227
  158SAPE  H10R17661   5.618   1.385   9.155 -1.2492  1.1539 -1.5471
  158SAPE  H10S17662   5.700   1.518   9.245 -2.5772 -0.0097  4.5836
  158SAPE  C21117663   5.630   1.561   9.045  0.0864  0.3908 -0.2353
  158SAPE  H11R17664   5.650   1.669   9.044 -1.2440  0.6528  0.0245
  158SAPE  C21217665   5.613   1.516   8.919  0.6247  0.4403  0.6127
  158SAPE  H12R17666   5.639   1.583   8.836  0.3579  0.3907  0.4879
  158SAPE  C21317667   5.578   1.373   8.882 -0.1985  0.3916  1.4023
  158SAPE  H13R17668   5.558   1.299   8.962  1.0661 -3.3841 -1.6350
  158SAPE  H13S17669   5.670   1.323   8.846 -0.4350  0.7290  0.3163
  158SAPE  C21417670   5.474   1.349   8.770 -0.0060  0.4443 -0.6025
  158SAPE  H14R17671   5.370   1.337   8.803  0.7819 -1.1756  1.3805
  158SAPE  C21517672   5.495   1.309   8.646  0.5590  0.5852 -0.3709
  158SAPE  H15R17673   5.415   1.297   8.571  0.0799 -1.0236  0.3814
  158SAPE  C21617674   5.632   1.287   8.589  0.2153 -0.8344  0.7986
  158SAPE  H16R17675   5.675   1.202   8.646  0.7343 -1.6875 -0.8351
  158SAPE  H16S17676   5.693   1.375   8.619 -0.4415  0.7770 -2.3889
  158SAPE  C21717677   5.627   1.272   8.435  0.2829  0.1770  0.1159
  158SAPE  H17R17678   5.639   1.375   8.396  0.0112 -0.0959 -0.7046
  158SAPE  H17S17679   5.531   1.235   8.394  1.5465 -0.4442 -2.3725
  158SAPE  C21817680   5.743   1.191   8.379 -0.1437  0.8856  0.3847
  158SAPE  H18R17681   5.725   1.176   8.271 -2.4715  0.2204  0.8370
  158SAPE  H18S17682   5.756   1.087   8.416  1.6084  0.6473 -0.8196
  158SAPE  C21917683   5.878   1.261   8.405  0.2848  0.1201  0.4015
  158SAPE  H19R17684   5.884   1.251   8.516  1.4546 -2.3090  0.1695
  158SAPE  H19S17685   5.863   1.366   8.375 -0.6516 -0.0237  0.3358
  158SAPE  C22017686   6.001   1.200   8.340 -0.0426  0.0074 -0.0770
  158SAPE  H20R17687   6.004   1.221   8.231 -2.6478  2.9524  0.3417
  158SAPE  H20S17688   5.988   1.090   8.344  0.3545  0.0175  1.9907
  158SAPE  H20T17689   6.098   1.230   8.386  0.0892  2.2332 -1.6972
  158SAPE   C3317690   6.203   1.523  10.025  0.3042  0.2409 -0.4063
  158SAPE   H3X17691   6.265   1.608   9.988  1.1137 -0.3743 -0.4604
  158SAPE   H3Y17692   6.094   1.539  10.036  0.0101 -2.1426  0.3125
  158SAPE   C3417693   6.219   1.405   9.921  0.5609 -0.1091  0.0105
  158SAPE   H4X17694   6.163   1.325   9.975 -0.2220 -0.6226 -1.5219
  158SAPE   H4Y17695   6.322   1.371   9.902  0.1274 -1.6132  0.2822
  158SAPE   C3517696   6.160   1.433   9.783 -0.1203  0.2933 -0.4567
  158SAPE   H5X17697   6.150   1.341   9.721 -2.3825  0.8459 -0.9899
  158SAPE   H5Y17698   6.227   1.497   9.722 -1.3183  0.0412 -2.0696
  158SAPE   C3617699   6.026   1.503   9.788 -0.2075 -0.2489 -0.1541
  158SAPE   H6X17700   6.059   1.607   9.811  0.9751 -0.6995  0.2026
  158SAPE   H6Y17701   5.961   1.449   9.861  2.4893 -1.6172  1.2902
  158SAPE   C3717702   5.948   1.507   9.659  0.9049 -0.7056  0.3467
  158SAPE   H7X17703   5.855   1.569   9.660  0.0234 -1.8600 -2.6476
  158SAPE   H7Y17704   5.911   1.402   9.651  0.7416 -0.6059 -0.2569
  158SAPE   C3817705   6.022   1.559   9.536 -0.2747 -0.0431  0.0004
  158SAPE   H8X17706   6.129   1.528   9.538  0.2249  1.4908 -1.4444
  158SAPE   H8Y17707   6.027   1.670   9.534 -1.0146 -0.0160 -2.0850
  158SAPE   C3917708   5.963   1.505   9.400 -0.1502 -0.0783 -0.5259
  158SAPE   H9X17709   5.888   1.580   9.368  0.7168  0.8650 -0.3679
  158SAPE   H9Y17710   5.914   1.408   9.425  1.1190 -0.7505 -0.6151
  158SAPE  C31017711   6.068   1.468   9.299  0.0379  0.2221  0.1504
  158SAPE  H10X17712   6.136   1.388   9.335  0.9985  0.4640 -1.0885
  158SAPE  H10Y17713   6.126   1.556   9.264 -2.0830  2.3609  1.8589
  158SAPE  C31117714   5.986   1.403   9.186  0.1134 -0.2968 -0.2933
  158SAPE  H11X17715   5.887   1.448   9.166  0.5933 -0.0569 -2.2316
  158SAPE  H11Y17716   5.953   1.307   9.230  2.2174 -0.7223  0.4401
  158SAPE  C31217717   6.062   1.393   9.051 -0.1181 -0.0792 -0.0488
  158SAPE  H12X17718   6.142   1.317   9.052  0.6214  0.6907  1.5582
  158SAPE  H12Y17719   6.106   1.492   9.026 -1.4040  0.3387 -0.7418
  158SAPE  C31317720   5.967   1.361   8.936 -0.5586  0.7507  0.0148
  158SAPE  H13X17721   5.883   1.432   8.953 -1.8867 -0.8140  0.1379
  158SAPE  H13Y17722   5.911   1.266   8.947 -2.2054  1.9318  2.4192
  158SAPE  C31417723   6.034   1.365   8.800 -0.3405 -0.0894 -0.0141
  158SAPE  H14X17724   5.953   1.354   8.725  0.7411  0.7484 -1.3351
  158SAPE  H14Y17725   6.103   1.280   8.781 -2.3987 -1.6193 -0.8587
  158SAPE  C31517726   6.105   1.495   8.754  0.4015  0.3003 -0.3134
  158SAPE  H15X17727   6.191   1.520   8.820  0.9094  1.6792 -1.4793
  158SAPE  H15Y17728   6.031   1.576   8.771  1.0220  0.3858  2.1966
  158SAPE  C31617729   6.135   1.505   8.605 -0.7676 -0.4819  0.3662
  158SAPE  H16X17730   6.047   1.506   8.537  0.1489 -0.3446 -0.8289
  158SAPE  H16Y17731   6.197   1.419   8.571 -2.8205 -0.3201 -4.0862
  158SAPE  C31717732   6.207   1.637   8.566 -0.0166 -0.2626 -0.4938
  158SAPE  H17X17733   6.152   1.722   8.610  0.7116  0.6245 -1.2772
  158SAPE  H17Y17734   6.204   1.653   8.456  0.8905 -0.8357 -0.6073
  158SAPE  C31817735   6.348   1.644   8.625 -0.6299  0.5452 -0.3618
  158SAPE  H18X17736   6.408   1.567   8.572  2.4672  1.1734  2.0427
  158SAPE  H18Y17737   6.345   1.627   8.735  0.5839 -1.7867 -0.6566
  158SAPE  H18Z17738   6.392   1.745   8.612 -2.4062  1.0653 -2.7197
  159SAPE     N17739   4.530   5.732   6.543  0.2640  1.1121 -0.2507
  159SAPE   HN117740   4.577   5.752   6.452 -1.0091  0.3556 -1.1003
  159SAPE   HN217741   4.432   5.719   6.510  1.2132  2.6279 -3.9869
  159SAPE   HN317742   4.528   5.818   6.601 -1.7083  0.1946  1.0973
  159SAPE   C1217743   4.586   5.607   6.608 -0.5239  0.3965  0.1381
  159SAPE  H12A17744   4.533   5.519   6.568 -0.3944 -0.3321  1.5267
  159SAPE  H12B17745   4.575   5.611   6.719 -1.5923 -1.6114  0.1196
  159SAPE   C1117746   4.736   5.595   6.588 -0.4305 -0.4486  0.5695
  159SAPE  H11A17747   4.768   5.511   6.654  2.5259  0.1892  0.0148
  159SAPE  H11B17748   4.773   5.696   6.616 -0.7502  0.3854 -1.9515
  159SAPE     P17749   4.821   5.671   6.348 -0.0681 -0.1770 -0.1208
  159SAPE   O1317750   4.843   5.596   6.227 -0.2781 -0.3973 -0.4636
  159SAPE   O1417751   4.724   5.781   6.340 -0.2763  0.4916  0.3592
  159SAPE   O1217752   4.779   5.555   6.456 -0.0741 -0.5284 -0.5984
  159SAPE   O1117753   4.961   5.734   6.400  0.3885 -0.0989 -0.1773
  159SAPE    C117754   5.090   5.686   6.366  0.0095 -0.3963  0.0185
  159SAPE    HA17755   5.098   5.662   6.258 -2.8648 -2.1090  0.1395
  159SAPE    HB17756   5.160   5.770   6.386  1.3055 -1.8445  1.7814
  159SAPE    C217757   5.127   5.572   6.459  0.2466  0.1447  0.3263
  159SAPE    HS17758   5.045   5.499   6.442 -0.5718  0.5862  2.1674
  159SAPE   O2117759   5.132   5.610   6.595 -0.2477  0.2745 -0.0792
  159SAPE   C2117760   5.101   5.521   6.687  0.0933  0.2738 -0.5234
  159SAPE   O2217761   5.048   5.410   6.667  0.0887  0.0947  0.2068
  159SAPE   C2217762   5.148   5.559   6.826  0.4884  0.1536 -0.1061
  159SAPE   H2R17763   5.258   5.577   6.827  0.4103  0.6238  0.3747
  159SAPE   H2S17764   5.089   5.649   6.851  0.9848  0.1117  1.2572
  159SAPE    C317765   5.265   5.511   6.425  0.3131 -0.0510  0.5591
  159SAPE    HX17766   5.343   5.590   6.420  2.5320 -2.2601 -0.5656
  159SAPE    HY17767   5.255   5.465   6.325  1.2326 -0.9210  0.8537
  159SAPE   O3117768   5.295   5.400   6.513 -0.0863  0.1842 -0.0229
  159SAPE   C3117769   5.415   5.350   6.509  0.4343 -0.7416  0.6692
  159SAPE   O3217770   5.504   5.390   6.434 -0.3953  0.5262 -0.1986
  159SAPE   C3217771   5.434   5.239   6.615  0.6278  0.1165 -0.4522
  159SAPE   H2X17772   5.442   5.148   6.551 -0.0674  0.9111 -1.6847
  159SAPE   H2Y17773   5.340   5.235   6.673 -0.5307 -0.3003 -2.2865
  159SAPE   C2317774   5.104   5.450   6.928 -0.2171 -0.9655  0.6235
  159SAPE   H3R17775   5.135   5.349   6.893 -0.6710 -0.5328 -1.0395
  159SAPE   H3S17776   4.993   5.441   6.936 -0.4789 -0.1744 -1.7679
  159SAPE   C2417777   5.180   5.469   7.060  0.5203 -0.1227  0.1554
  159SAPE   H4R17778   5.125   5.405   7.133  0.2751  2.1112  1.9795
  159SAPE   H4S17779   5.183   5.576   7.089 -0.5307 -0.4852  1.6228
  159SAPE   C2517780   5.322   5.427   7.049  0.2324 -0.4226  0.1906
  159SAPE   H5R17781   5.367   5.424   6.949 -0.2789  0.2386 -0.0606
  159SAPE   C2617782   5.402   5.407   7.149 -0.0603 -0.5336  0.1067
  159SAPE   H6R17783   5.509   5.394   7.127  0.0922  0.1194  0.4415
  159SAPE   C2717784   5.370   5.424   7.289 -0.2079  0.6971  0.4778
  159SAPE   H7R17785   5.262   5.412   7.312 -0.2818 -0.0381 -0.2249
  159SAPE   H7S17786   5.383   5.532   7.310 -1.2910  1.2718 -1.6429
  159SAPE   C2817787   5.448   5.340   7.390  0.8866  0.4566  0.0851
  159SAPE   H8R17788   5.498   5.256   7.341 -1.0423 -1.8152  1.9395
  159SAPE   C2917789   5.462   5.357   7.524  0.2798 -0.2131  0.2399
  159SAPE   H9R17790   5.504   5.276   7.586 -2.2429 -0.1839  2.0714
  159SAPE  C21017791   5.388   5.468   7.599 -0.3614  0.4276  0.1405
  159SAPE  H10R17792   5.311   5.518   7.537 -0.2929  0.8998  0.4310
  159SAPE  H10S17793   5.459   5.548   7.629 -0.5989  0.7570 -0.1717
  159SAPE  C21117794   5.328   5.412   7.726  0.4563  0.4664  0.1366
  159SAPE  H11R17795   5.232   5.363   7.707  1.8013 -2.8445  1.4597
  159SAPE  C21217796   5.386   5.399   7.846 -0.1697 -0.9134  0.4331
  159SAPE  H12R17797   5.339   5.364   7.939  0.3211  1.7982  1.7466
  159SAPE  C21317798   5.523   5.442   7.888  0.3620  0.0697  0.2487
  159SAPE  H13R17799   5.581   5.479   7.801 -0.0109 -0.3991 -0.2014
  159SAPE  H13S17800   5.583   5.351   7.911  3.7838  1.7751 -1.5929
  159SAPE  C21417801   5.521   5.554   7.994 -0.5704  0.7406  0.0846
  159SAPE  H14R17802   5.535   5.658   7.960  2.2061  0.1787 -0.5948
  159SAPE  C21517803   5.524   5.543   8.131  0.2407 -0.1823 -0.6591
  159SAPE  H15R17804   5.525   5.634   8.194  2.6679 -1.2551  0.9446
  159SAPE  C21617805   5.496   5.416   8.205  0.7074  0.0967 -0.6214
  159SAPE  H16R17806   5.588   5.389   8.262  0.3984 -0.4414 -0.3746
  159SAPE  H16S17807   5.483   5.336   8.130 -1.0517  2.3717 -2.7842
  159SAPE  C21717808   5.371   5.417   8.298 -0.0586  0.2922  0.4872
  159SAPE  H17R17809   5.350   5.321   8.351  0.3116 -1.7454 -2.8896
  159SAPE  H17S17810   5.281   5.449   8.242  1.1930  0.1877 -1.6294
  159SAPE  C21817811   5.392   5.517   8.419  0.2531 -0.0747 -0.2417
  159SAPE  H18R17812   5.409   5.617   8.373 -4.2330  1.6386  1.5447
  159SAPE  H18S17813   5.487   5.488   8.470 -0.7177 -0.9656  1.0907
  159SAPE  C21917814   5.283   5.538   8.525 -0.0706  0.4674 -0.0301
  159SAPE  H19R17815   5.196   5.595   8.487  0.0621  0.0978 -0.9009
  159SAPE  H19S17816   5.323   5.598   8.609  0.3508  0.8142 -0.4742
  159SAPE  C22017817   5.222   5.416   8.587  0.3954 -0.0645  0.8453
  159SAPE  H20R17818   5.166   5.345   8.524 -0.1264 -1.7849  3.1753
  159SAPE  H20S17819   5.151   5.436   8.670 -0.1576 -1.9685  0.8455
  159SAPE  H20T17820   5.308   5.351   8.615 -0.3324 -1.3556  0.1203
  159SAPE   C3317821   5.548   5.256   6.720  0.1177 -1.0614  0.7693
  159SAPE   H3X17822   5.521   5.339   6.789  2.1073  0.7576 -0.5911
  159SAPE   H3Y17823   5.631   5.292   6.656 -0.3375 -1.7187 -0.2004
  159SAPE   C3417824   5.584   5.127   6.796 -0.6372  0.4955 -0.4543
  159SAPE   H4X17825   5.611   5.051   6.719 -0.2374 -1.3871  1.4854
  159SAPE   H4Y17826   5.492   5.086   6.843 -0.4145 -0.0647 -0.4968
  159SAPE   C3517827   5.715   5.153   6.886  0.0256 -0.1531  0.2919
  159SAPE   H5X17828   5.797   5.184   6.817 -0.2612 -2.3048 -1.0613
  159SAPE   H5Y17829   5.735   5.055   6.932  0.5835 -0.0691  0.2305
  159SAPE   C3617830   5.694   5.254   6.997  0.7093 -0.4361 -0.2399
  159SAPE   H6X17831   5.643   5.205   7.083  1.3454 -2.3331 -0.8994
  159SAPE   H6Y17832   5.648   5.349   6.964  0.1755 -0.7461 -0.3786
  159SAPE   C3717833   5.829   5.288   7.062 -0.1404 -0.4814 -0.1611
  159SAPE   H7X17834   5.814   5.375   7.129 -0.3051 -0.1462 -0.6301
  159SAPE   H7Y17835   5.895   5.316   6.977 -1.1679  1.4561 -0.3404
  159SAPE   C3817836   5.903   5.183   7.140  0.1861 -0.1669 -0.9333
  159SAPE   H8X17837   5.919   5.095   7.073  0.1489 -0.9814  0.1179
  159SAPE   H8Y17838   5.858   5.150   7.236  2.0376  1.6029  0.5930
  159SAPE   C3917839   6.048   5.242   7.195  0.3900  0.2204 -0.6330
  159SAPE   H9X17840   6.040   5.322   7.273  3.0519  1.2176 -1.3263
  159SAPE   H9Y17841   6.113   5.276   7.112  0.1859  1.6700 -0.2254
  159SAPE  C31017842   6.134   5.125   7.254  0.1154 -0.4294  0.7898
  159SAPE  H10X17843   6.238   5.159   7.273  0.5914  0.6915 -3.2295
  159SAPE  H10Y17844   6.125   5.036   7.187  0.4595 -0.2029  0.4360
  159SAPE  C31117845   6.095   5.073   7.394  0.5506  0.5004  0.4960
  159SAPE  H11X17846   6.167   4.993   7.417 -0.6455 -0.2764  1.6054
  159SAPE  H11Y17847   5.998   5.027   7.366  0.5141  0.7818  0.1591
  159SAPE  C31217848   6.077   5.181   7.504 -0.4780  0.1710  0.0840
  159SAPE  H12X17849   6.015   5.254   7.448 -0.8968 -2.2625 -2.7517
  159SAPE  H12Y17850   6.175   5.232   7.515 -0.2408 -0.1851 -0.3594
  159SAPE  C31317851   6.022   5.143   7.639 -0.6383 -0.1522 -0.5639
  159SAPE  H13X17852   6.095   5.086   7.701  1.1316  0.7053 -1.7968
  159SAPE  H13Y17853   5.945   5.063   7.630 -0.0880 -0.5377 -2.0396
  159SAPE  C31417854   5.943   5.253   7.707 -1.0242 -0.8280 -0.2310
  159SAPE  H14X17855   5.855   5.273   7.642  0.4820 -0.6425 -2.2338
  159SAPE  H14Y17856   5.998   5.349   7.695 -1.7369 -0.5503 -1.3482
  159SAPE  C31517857   5.912   5.224   7.853 -0.2657 -0.6122  0.1280
  159SAPE  H15X17858   5.884   5.117   7.861 -1.1406 -0.4148 -0.2237
  159SAPE  H15Y17859   5.820   5.280   7.879  0.9206  0.9614  1.0155
  159SAPE  C31617860   6.019   5.232   7.953  0.5859 -0.1996 -0.6363
  159SAPE  H16X17861   6.051   5.336   7.976 -1.4525  0.6430 -1.5288
  159SAPE  H16Y17862   6.113   5.186   7.916  1.7180 -0.1139  2.0685
  159SAPE  C31717863   5.997   5.164   8.090 -0.3397 -0.1665 -0.0365
  159SAPE  H17X17864   6.097   5.153   8.137 -0.0310  2.1126 -0.1408
  159SAPE  H17Y17865   5.954   5.062   8.076 -0.4069 -0.1199 -0.1641
  159SAPE  C31817866   5.911   5.240   8.191  0.4319  0.3679 -0.1004
  159SAPE  H18X17867   5.832   5.293   8.135  0.3045 -0.1143 -0.3825
  159SAPE  H18Y17868   5.971   5.324   8.232  0.7717  1.0563 -1.9836
  159SAPE  H18Z17869   5.874   5.180   8.277  1.5019 -1.0709 -0.6159
  160SAPE     N17870   4.206   0.021   6.191 -0.1789  0.0544  0.7836
  160SAPE   HN117871   4.141   0.015   6.109 -0.4685  1.3263  0.9099
  160SAPE   HN217872   4.275   0.095   6.164  0.0497  0.4028  2.3056
  160SAPE   HN317873   4.249  -0.073   6.200 -0.6087 -0.2907 -0.4971
  160SAPE   C1217874   4.134   0.051   6.323 -0.1432  0.1947 -0.2687
  160SAPE  H12A17875   4.051   0.120   6.297 -0.0382  0.7414  0.8211
  160SAPE  H12B17876   4.213   0.099   6.385 -1.5561  1.7086  0.4049
  160SAPE   C1117877   4.071  -0.070   6.391  0.3993  0.9342 -0.6159
  160SAPE  H11A17878   3.969  -0.072   6.346  0.9670 -0.2395 -1.8953
  160SAPE  H11B17879   4.064  -0.053   6.500  0.9891 -2.0693 -0.0613
  160SAPE     P17880   4.097  -0.320   6.421 -0.4831  0.0067 -0.1149
  160SAPE   O1317881   3.957  -0.335   6.374 -0.4369  0.1110  0.9388
  160SAPE   O1417882   4.190  -0.433   6.386  0.2907 -0.3169 -0.1152
  160SAPE   O1217883   4.157  -0.178   6.374 -0.1906  0.1370  0.9930
  160SAPE   O1117884   4.092  -0.295   6.574  0.3929 -0.1397  0.7169
  160SAPE    C117885   4.033  -0.404   6.657  0.1013 -0.9096 -0.2897
  160SAPE    HA17886   3.969  -0.479   6.606  2.1759 -2.4985 -0.6440
  160SAPE    HB17887   4.113  -0.463   6.706  0.1178 -0.4639  0.2272
  160SAPE    C217888   3.944  -0.340   6.763 -0.1390 -0.3744  1.1310
  160SAPE    HS17889   3.857  -0.303   6.705 -0.4527 -1.6274  0.7767
  160SAPE   O2117890   4.012  -0.231   6.828  0.3122  0.1299  0.1856
  160SAPE   C2117891   3.925  -0.146   6.902  0.7276  0.0296  0.4839
  160SAPE   O2217892   3.805  -0.164   6.906 -0.5116  0.4860 -0.1763
  160SAPE   C2217893   4.008  -0.037   6.982 -0.1955  0.5751  0.5268
  160SAPE   H2R17894   4.095  -0.086   7.032 -0.3071 -0.2790 -0.0919
  160SAPE   H2S17895   4.042   0.032   6.902 -0.9731 -1.4959 -1.6788
  160SAPE    C317896   3.905  -0.448   6.862  0.6257 -0.2899  0.3425
  160SAPE    HX17897   3.839  -0.513   6.800  0.1790 -0.3244  0.8577
  160SAPE    HY17898   3.836  -0.409   6.939 -0.0244 -0.6953 -0.0259
  160SAPE   O3117899   4.016  -0.520   6.919 -0.1234  0.9621  0.1195
  160SAPE   C3117900   4.059  -0.466   7.033 -0.3795 -0.3420 -0.5093
  160SAPE   O3217901   4.002  -0.380   7.099 -0.1191  0.1485 -0.3754
  160SAPE   C3217902   4.188  -0.541   7.066 -0.1121  0.1008 -0.4118
  160SAPE   H2X17903   4.259  -0.538   6.981  0.7579 -0.9124  0.2586
  160SAPE   H2Y17904   4.163  -0.649   7.075  1.2956 -0.2156 -0.2039
  160SAPE   C2317905   3.921   0.043   7.087 -0.7911 -0.8843 -0.5562
  160SAPE   H3R17906   3.824   0.076   7.044  0.5298  2.4834 -1.1151
  160SAPE   H3S17907   3.985   0.133   7.104  0.1422 -1.4128 -1.2685
  160SAPE   C2417908   3.894  -0.036   7.216 -0.5928  0.2979  0.5273
  160SAPE   H4R17909   3.832  -0.127   7.198  1.7663 -1.3763  0.5777
  160SAPE   H4S17910   3.832   0.030   7.280 -0.0254  1.4794 -0.1209
  160SAPE   C2517911   4.016  -0.079   7.291 -0.7123 -0.0997  0.0634
  160SAPE   H5R17912   4.074  -0.159   7.244 -1.8126 -1.8038  1.5074
  160SAPE   C2617913   4.050  -0.036   7.414 -0.6880  0.1190 -0.1673
  160SAPE   H6R17914   4.142  -0.083   7.452 -0.8522  0.5563  0.7895
  160SAPE   C2717915   3.982   0.054   7.510 -0.5528 -0.1557  0.5263
  160SAPE   H7R17916   3.906  -0.003   7.567  1.7182 -2.2004  1.6068
  160SAPE   H7S17917   3.920   0.129   7.457 -1.2396 -1.2384 -0.2173
  160SAPE   C2817918   4.083   0.118   7.602 -0.2811 -0.5990 -0.4369
  160SAPE   H8R17919   4.140   0.200   7.557 -0.3244 -0.3229  0.0069
  160SAPE   C2917920   4.114   0.078   7.729  0.2850  0.3615  0.1564
  160SAPE   H9R17921   4.197   0.122   7.786 -0.7212  0.7812  1.3052
  160SAPE  C21017922   4.048  -0.040   7.802 -0.1156 -0.3434  0.4806
  160SAPE  H10R17923   4.124  -0.079   7.873  0.7608  1.8049  0.7753
  160SAPE  H10S17924   4.011  -0.116   7.731 -1.6453  0.1948  0.6740
  160SAPE  C21117925   3.926   0.015   7.887  0.3292  0.3983 -0.1073
  160SAPE  H11R17926   3.846   0.041   7.815  1.1796 -2.4375 -2.1805
  160SAPE  C21217927   3.904   0.021   8.018 -0.6409 -0.2441 -0.1547
  160SAPE  H12R17928   3.811   0.057   8.064 -1.5278 -0.6586 -1.6027
  160SAPE  C21317929   3.994  -0.014   8.138  0.2696 -0.7909  0.8071
  160SAPE  H13R17930   4.049  -0.106   8.108 -1.5205 -1.9840  1.1279
  160SAPE  H13S17931   3.934  -0.028   8.230  0.0046 -1.1754  0.5741
  160SAPE  C21417932   4.097   0.090   8.163 -0.3397  0.0082 -0.0259
  160SAPE  H14R17933   4.123   0.147   8.072 -0.7831  0.0712 -0.1158
  160SAPE  C21517934   4.162   0.116   8.283 -0.3915  0.2171 -0.3743
  160SAPE  H15R17935   4.248   0.184   8.293 -0.2235  0.0778 -0.8812
  160SAPE  C21617936   4.134   0.048   8.419  0.0639  0.2655 -0.5124
  160SAPE  H16R17937   4.041  -0.012   8.420  0.5529 -0.4718  0.3312
  160SAPE  H16S17938   4.116   0.118   8.503  1.8800  0.6229 -0.4003
  160SAPE  C21717939   4.247  -0.055   8.456 -0.4707 -0.6227  0.2429
  160SAPE  H17R17940   4.347  -0.009   8.442 -0.7381  0.5010  1.9782
  160SAPE  H17S17941   4.240  -0.139   8.384  1.1899  0.3847 -1.1516
  160SAPE  C21817942   4.232  -0.112   8.593  0.3692  0.1270  0.0274
  160SAPE  H18R17943   4.140  -0.176   8.590  0.0448  0.6169 -0.5462
  160SAPE  H18S17944   4.205  -0.028   8.661 -1.2150 -0.3307 -0.0038
  160SAPE  C21917945   4.362  -0.192   8.631  0.1455  0.3744 -0.3248
  160SAPE  H19R17946   4.440  -0.113   8.636  0.6481 -0.1135 -0.4397
  160SAPE  H19S17947   4.384  -0.272   8.557 -0.1815 -2.2113  2.2765
  160SAPE  C22017948   4.358  -0.251   8.771 -0.1815 -0.1220 -0.2645
  160SAPE  H20R17949   4.436  -0.329   8.790  0.4858  0.0149 -2.3819
  160SAPE  H20S17950   4.263  -0.304   8.790 -0.2333 -1.0963 -3.1285
  160SAPE  H20T17951   4.364  -0.162   8.837 -1.1814  0.1876 -0.5907
  160SAPE   C3317952   4.260  -0.501   7.201 -0.5915 -0.9860  0.4764
  160SAPE   H3X17953   4.288  -0.394   7.199  0.2304 -1.2225 -0.6772
  160SAPE   H3Y17954   4.346  -0.571   7.203 -1.5283 -2.2362 -1.8629
  160SAPE   C3417955   4.164  -0.531   7.317 -0.0193 -0.4375 -0.6385
  160SAPE   H4X17956   4.131  -0.637   7.315 -1.1380 -0.0826 -1.6360
  160SAPE   H4Y17957   4.075  -0.465   7.313  0.2102 -0.0551  0.4000
  160SAPE   C3517958   4.228  -0.509   7.450 -0.1613 -0.0985  0.4204
  160SAPE   H5X17959   4.332  -0.546   7.459 -1.0314 -2.6250  0.4906
  160SAPE   H5Y17960   4.175  -0.565   7.530  0.5693 -1.3224  0.0517
  160SAPE   C3617961   4.226  -0.362   7.496 -0.0467 -0.9737  0.0210
  160SAPE   H6X17962   4.122  -0.326   7.507 -0.6352 -2.7483  0.2905
  160SAPE   H6Y17963   4.264  -0.289   7.421 -2.2966 -1.2314 -1.3880
  160SAPE   C3717964   4.298  -0.322   7.628  0.6644 -0.1515  0.1254
  160SAPE   H7X17965   4.300  -0.211   7.638  1.6219 -0.2411  0.9796
  160SAPE   H7Y17966   4.404  -0.355   7.622  0.6619 -0.6298  2.4429
  160SAPE   C3817967   4.241  -0.372   7.760 -1.0136 -0.9283  0.1529
  160SAPE   H8X17968   4.232  -0.483   7.752  3.8837 -1.6563  2.5818
  160SAPE   H8Y17969   4.143  -0.330   7.791 -2.7090 -2.7648 -2.5032
  160SAPE   C3917970   4.341  -0.361   7.876 -0.1689  0.0927 -0.4598
  160SAPE   H9X17971   4.340  -0.254   7.904 -0.9390 -0.3233  1.1510
  160SAPE   H9Y17972   4.442  -0.384   7.836 -0.8988  0.3548 -2.5315
  160SAPE  C31017973   4.292  -0.443   7.990  0.1148  0.4272 -0.2938
  160SAPE  H10X17974   4.366  -0.423   8.070 -0.9315  0.4892  0.6806
  160SAPE  H10Y17975   4.293  -0.553   7.975  2.5514  0.6421 -1.9465
  160SAPE  C31117976   4.157  -0.402   8.044 -0.8912 -0.4108 -0.0721
  160SAPE  H11X17977   4.086  -0.403   7.959  1.2804 -0.1153 -1.9377
  160SAPE  H11Y17978   4.166  -0.296   8.077 -3.0491 -0.5031  0.9278
  160SAPE  C31217979   4.093  -0.487   8.161  0.0619 -0.1004  0.1242
  160SAPE  H12X17980   4.054  -0.589   8.139 -0.4772 -0.0926  1.0279
  160SAPE  H12Y17981   4.001  -0.433   8.190 -1.7818 -3.3963  0.6694
  160SAPE  C31317982   4.177  -0.499   8.296 -0.1033 -0.1399 -0.7995
  160SAPE  H13X17983   4.204  -0.398   8.332  1.7887  0.2146 -3.0979
  160SAPE  H13Y17984   4.263  -0.560   8.260  1.4201  2.0270 -0.9447
  160SAPE  C31417985   4.103  -0.577   8.410  0.2859 -0.8634 -0.0995
  160SAPE  H14X17986   4.093  -0.683   8.379  1.8478 -0.6503 -1.4108
  160SAPE  H14Y17987   4.008  -0.527   8.439  0.9752 -0.6561  1.8736
  160SAPE  C31517988   4.160  -0.568   8.548  0.0719 -0.6355  0.1782
  160SAPE  H15X17989   4.176  -0.463   8.581  1.5779  0.0961 -2.7506
  160SAPE  H15Y17990   4.264  -0.608   8.553  0.8937  1.4605  0.6340
  160SAPE  C31617991   4.069  -0.642   8.649  0.4703 -0.7293 -0.0485
  160SAPE  H16X17992   4.054  -0.747   8.616 -2.4529 -0.3564 -0.0097
  160SAPE  H16Y17993   3.966  -0.601   8.640  1.5688  2.4337  1.1282
  160SAPE  C31717994   4.111  -0.635   8.798 -0.4746 -0.2550 -0.4010
  160SAPE  H17X17995   4.020  -0.659   8.857  0.4843 -0.8493  0.8477
  160SAPE  H17Y17996   4.140  -0.532   8.827  0.9316 -0.6661 -0.3396
  160SAPE  C31817997   4.223  -0.727   8.840 -0.0511  0.3941  0.4748
  160SAPE  H18X17998   4.246  -0.729   8.949  1.6075 -1.3030  0.1141
  160SAPE  H18Y17999   4.316  -0.691   8.791  0.1794  0.2684  0.8180
  160SAPE  H18Z18000   4.202  -0.829   8.804 -1.1778 -0.0223  2.2503
  161SAPE     N18001   5.704   4.584   6.253  0.0203  0.3396  0.3295
  161SAPE   HN118002   5.735   4.669   6.200 -3.0213  3.0915  2.7453
  161SAPE   HN218003   5.769   4.504   6.238  1.2981  1.0290  1.9941
  161SAPE   HN318004   5.612   4.556   6.213 -0.6100  1.3641  1.0320
  161SAPE   C1218005   5.691   4.607   6.399 -0.6255  0.4208 -0.3241
  161SAPE  H12A18006   5.706   4.514   6.458  0.4224  1.3829  0.9441
  161SAPE  H12B18007   5.592   4.646   6.432 -0.5593  1.6483 -1.5102
  161SAPE   C1118008   5.797   4.710   6.434 -0.4930 -0.0329 -0.0640
  161SAPE  H11A18009   5.788   4.753   6.536 -1.7730 -1.5268  0.4697
  161SAPE  H11B18010   5.789   4.796   6.364 -2.0674  0.2943  0.4962
  161SAPE     P18011   6.059   4.738   6.406 -0.1205  0.3598 -0.0863
  161SAPE   O1318012   6.181   4.648   6.386 -0.7429  0.1190 -0.7329
  161SAPE   O1418013   6.048   4.853   6.319 -0.1802 -0.4980 -0.0800
  161SAPE   O1218014   5.929   4.652   6.413  0.2168  0.5714 -0.0443
  161SAPE   O1118015   6.067   4.787   6.554  0.3151  0.1991  0.5785
  161SAPE    C118016   6.087   4.692   6.660  0.1103  0.2094 -0.2221
  161SAPE    HA18017   6.041   4.737   6.750 -2.3584 -0.9895 -0.8372
  161SAPE    HB18018   6.028   4.598   6.653 -2.5600  1.7998  0.2319
  161SAPE    C218019   6.235   4.665   6.694 -0.0234  0.5306  0.8192
  161SAPE    HS18020   6.270   4.580   6.632 -1.7473  0.5999 -0.2907
  161SAPE   O2118021   6.253   4.643   6.831  0.4098 -0.0917 -0.3815
  161SAPE   C2118022   6.199   4.526   6.878  0.0377 -0.6635  0.2659
  161SAPE   O2218023   6.144   4.444   6.810  0.4107  0.7185 -0.4410
  161SAPE   C2218024   6.209   4.521   7.034 -0.3013  0.1752  0.3828
  161SAPE   H2R18025   6.203   4.411   7.048  2.6986  0.1306  1.7840
  161SAPE   H2S18026   6.310   4.558   7.063 -0.0539 -0.5212  0.4193
  161SAPE    C318027   6.328   4.781   6.657 -0.0845 -0.7843 -0.6493
  161SAPE    HX18028   6.303   4.864   6.726 -1.5475 -1.5466 -0.2457
  161SAPE    HY18029   6.304   4.818   6.555  1.3107  0.2482 -0.6114
  161SAPE   O3118030   6.467   4.750   6.677 -0.4066  0.1911 -0.0825
  161SAPE   C3118031   6.538   4.699   6.580  0.3224 -0.3140 -0.1031
  161SAPE   O3218032   6.510   4.679   6.467 -0.0764  0.1913 -0.8834
  161SAPE   C3218033   6.671   4.643   6.630  0.6808 -0.8040 -0.2191
  161SAPE   H2X18034   6.679   4.665   6.739 -0.1803  2.6937 -0.8235
  161SAPE   H2Y18035   6.750   4.695   6.572  1.1964  1.2970  2.2924
  161SAPE   C2318036   6.103   4.599   7.112 -0.5663 -0.9933  0.0693
  161SAPE   H3R18037   6.004   4.613   7.065 -0.6780  0.8307  0.8132
  161SAPE   H3S18038   6.140   4.704   7.115 -1.4500 -0.6566 -0.5457
  161SAPE   C2418039   6.091   4.546   7.254 -0.6830 -0.5699  0.0109
  161SAPE   H4R18040   6.192   4.544   7.301 -0.3347  1.7029 -0.5993
  161SAPE   H4S18041   6.057   4.440   7.252 -2.7605  0.0988 -1.0648
  161SAPE   C2518042   5.985   4.617   7.337  0.1216 -0.5796 -0.4444
  161SAPE   H5R18043   5.884   4.609   7.294 -0.9430  1.3849  1.5627
  161SAPE   C2618044   6.003   4.688   7.448  0.8632 -0.3965 -0.2556
  161SAPE   H6R18045   5.916   4.736   7.495  0.4688 -0.2443 -1.1229
  161SAPE   C2718046   6.141   4.706   7.512  0.0582 -0.4657 -0.4518
  161SAPE   H7R18047   6.144   4.809   7.554 -1.0017 -0.8028  0.4469
  161SAPE   H7S18048   6.224   4.708   7.437  0.3258  0.8312 -0.1350
  161SAPE   C2818049   6.183   4.605   7.613  0.9332 -0.6586 -0.1813
  161SAPE   H8R18050   6.240   4.519   7.574  0.8995 -0.1262 -1.4305
  161SAPE   C2918051   6.153   4.611   7.746 -0.2867 -0.0843 -0.3317
  161SAPE   H9R18052   6.190   4.532   7.813  2.2606  0.4586 -1.0559
  161SAPE  C21018053   6.076   4.713   7.823 -0.2101 -0.0799  0.7891
  161SAPE  H10R18054   6.067   4.803   7.758 -0.9531  1.5843  3.1388
  161SAPE  H10S18055   6.140   4.756   7.902  0.5952 -0.8776  0.5784
  161SAPE  C21118056   5.932   4.681   7.868  0.3425 -0.1481 -0.1461
  161SAPE  H11R18057   5.863   4.637   7.794 -1.8172  0.8634  1.2026
  161SAPE  C21218058   5.894   4.697   7.993  0.0070  0.9237  0.0372
  161SAPE  H12R18059   5.786   4.695   8.014 -0.2172  2.5700 -0.8823
  161SAPE  C21318060   5.981   4.740   8.113  0.0555  0.6113  0.6403
  161SAPE  H13R18061   5.905   4.740   8.194 -2.5691  0.2309 -1.7490
  161SAPE  H13S18062   6.015   4.844   8.094 -0.6884  0.7642  0.1303
  161SAPE  C21418063   6.087   4.635   8.147  0.2866  0.0442 -0.5773
  161SAPE  H14R18064   6.114   4.568   8.065 -0.8455  0.2826 -1.1486
  161SAPE  C21518065   6.119   4.589   8.273 -0.5378 -0.6566  0.3226
  161SAPE  H15R18066   6.186   4.503   8.284  2.5726  1.4712 -1.1346
  161SAPE  C21618067   6.074   4.647   8.404 -0.1807  0.0453  0.6238
  161SAPE  H16R18068   6.019   4.744   8.392 -2.1811 -1.3113 -1.8354
  161SAPE  H16S18069   6.155   4.637   8.479  0.3222 -2.2014 -0.1803
  161SAPE  C21718070   5.964   4.558   8.468 -0.0972  0.6304  0.4876
  161SAPE  H17R18071   5.988   4.450   8.455 -0.5766  0.6536 -0.6735
  161SAPE  H17S18072   5.876   4.573   8.401  1.2345 -1.6475 -1.8839
  161SAPE  C21818073   5.927   4.591   8.609 -0.2798 -0.2711 -0.6397
  161SAPE  H18R18074   5.840   4.530   8.643  0.4507 -0.7243  0.4512
  161SAPE  H18S18075   5.886   4.694   8.605  2.4063  0.8508 -0.6277
  161SAPE  C21918076   6.026   4.586   8.723 -0.0289 -0.3002  1.1654
  161SAPE  H19R18077   6.119   4.640   8.696  0.7717 -1.9519  0.5572
  161SAPE  H19S18078   6.055   4.480   8.736  0.3719 -0.4189 -0.5364
  161SAPE  C22018079   5.971   4.645   8.857 -0.4020  0.2405 -0.4964
  161SAPE  H20R18080   5.963   4.754   8.873 -2.0345  0.0412  0.2207
  161SAPE  H20S18081   6.033   4.611   8.943 -0.9021  1.1607  0.2265
  161SAPE  H20T18082   5.873   4.598   8.883  0.6887 -1.0462  1.4545
  161SAPE   C3318083   6.684   4.484   6.618 -0.6082 -1.2684 -0.5344
  161SAPE   H3X18084   6.789   4.452   6.630 -0.4567 -0.3370  0.8090
  161SAPE   H3Y18085   6.682   4.477   6.507 -2.2674  0.5800 -0.6568
  161SAPE   C3418086   6.577   4.406   6.688  0.2737 -0.5513 -0.0590
  161SAPE   H4X18087   6.591   4.296   6.686 -1.1155 -0.7160 -2.5999
  161SAPE   H4Y18088   6.481   4.426   6.635  1.2988 -0.0437 -1.7521
  161SAPE   C3518089   6.552   4.436   6.838  0.4966 -0.2258  0.1436
  161SAPE   H5X18090   6.458   4.376   6.847  0.3145 -0.3460 -2.2913
  161SAPE   H5Y18091   6.531   4.543   6.857 -1.7674 -0.7682  0.8937
  161SAPE   C3618092   6.656   4.373   6.928 -0.7787 -0.2970 -0.2194
  161SAPE   H6X18093   6.754   4.415   6.898 -0.5764 -1.2399 -0.9067
  161SAPE   H6Y18094   6.666   4.263   6.912 -2.9592 -0.9093  2.2660
  161SAPE   C3718095   6.630   4.397   7.075 -0.6099 -0.2135  0.3708
  161SAPE   H7X18096   6.626   4.506   7.096 -1.6953 -0.1025 -0.3858
  161SAPE   H7Y18097   6.712   4.362   7.141  0.0305  2.1708  0.8848
  161SAPE   C3818098   6.498   4.335   7.126 -0.3973 -0.4742 -0.2134
  161SAPE   H8X18099   6.509   4.225   7.139  1.4042 -0.5078 -1.9601
  161SAPE   H8Y18100   6.426   4.361   7.046  0.3146 -3.6123 -1.9626
  161SAPE   C3918101   6.449   4.389   7.263 -0.0079  0.1188  0.6449
  161SAPE   H9X18102   6.340   4.377   7.277 -0.8268  1.3791 -3.8109
  161SAPE   H9Y18103   6.467   4.498   7.259 -0.8441  0.3171  1.8814
  161SAPE  C31018104   6.525   4.318   7.382  0.0855  0.2380 -0.3997
  161SAPE  H10X18105   6.635   4.326   7.370  0.3504  0.3016  1.8409
  161SAPE  H10Y18106   6.505   4.209   7.385 -0.4794  0.2068 -3.8527
  161SAPE  C31118107   6.493   4.382   7.515 -0.2449 -0.4124  0.0307
  161SAPE  H11X18108   6.382   4.383   7.514 -0.2388  0.1353 -1.2120
  161SAPE  H11Y18109   6.522   4.489   7.522 -1.0472 -0.2859  1.5328
  161SAPE  C31218110   6.547   4.311   7.634  0.1855 -0.2940  0.1597
  161SAPE  H12X18111   6.657   4.313   7.620  0.5625 -2.0770  2.5610
  161SAPE  H12Y18112   6.497   4.212   7.647 -1.4851  0.5365  0.1464
  161SAPE  C31318113   6.517   4.393   7.765  0.0411 -0.7573 -0.2678
  161SAPE  H13X18114   6.503   4.503   7.755 -0.0843 -0.8763 -1.4622
  161SAPE  H13Y18115   6.607   4.378   7.829  1.1036 -0.9580 -1.7775
  161SAPE  C31418116   6.397   4.335   7.836 -0.0017  0.3224  0.1504
  161SAPE  H14X18117   6.400   4.224   7.841  2.5659  0.3438 -0.1270
  161SAPE  H14Y18118   6.306   4.352   7.775  1.0961  1.8118 -1.1370
  161SAPE  C31518119   6.383   4.389   7.980  0.1052  0.6903  0.4441
  161SAPE  H15X18120   6.278   4.379   8.016  0.4593 -0.1526  1.2675
  161SAPE  H15Y18121   6.409   4.498   7.977  0.9733  0.4572 -0.8332
  161SAPE  C31618122   6.476   4.319   8.077  0.4485 -0.4493  0.1573
  161SAPE  H16X18123   6.557   4.394   8.087  2.1011 -2.3452  1.5179
  161SAPE  H16Y18124   6.505   4.231   8.015  0.3666 -0.4251  0.0857
  161SAPE  C31718125   6.409   4.291   8.219 -0.7911 -0.1328  0.5599
  161SAPE  H17X18126   6.335   4.370   8.242  0.7115  1.7123 -0.7905
  161SAPE  H17Y18127   6.489   4.296   8.297 -0.4704 -2.5255  0.4123
  161SAPE  C31818128   6.343   4.157   8.237  0.0285  0.7341  0.1797
  161SAPE  H18X18129   6.416   4.082   8.276 -1.2001 -0.7015 -0.2190
  161SAPE  H18Y18130   6.313   4.111   8.140  0.6214 -0.1588  0.4083
  161SAPE  H18Z18131   6.263   4.159   8.314 -1.0005  0.3388 -0.8598
  162SAPE     N18132   5.155   0.138   6.073 -0.3647  0.2094 -0.0837
  162SAPE   HN118133   5.228   0.088   6.018 -0.0134 -1.1326  1.5531
  162SAPE   HN218134   5.063   0.099   6.046 -0.6809  0.4534  0.6302
  162SAPE   HN318135   5.134   0.235   6.042 -1.6992  0.5344  1.7527
  162SAPE   C1218136   5.169   0.115   6.215  0.2033  0.0205  0.2977
  162SAPE  H12A18137   5.144   0.008   6.232 -2.0708  0.6408  1.0413
  162SAPE  H12B18138   5.103   0.176   6.281 -0.5286 -1.3849  0.8961
  162SAPE   C1118139   5.314   0.145   6.261 -0.1287  0.2030 -0.1075
  162SAPE  H11A18140   5.374   0.071   6.203 -0.9114 -0.7291  0.2627
  162SAPE  H11B18141   5.336   0.123   6.368 -0.7394  0.0141 -0.0178
  162SAPE     P18142   5.496   0.326   6.202  0.2730 -0.0719  0.4429
  162SAPE   O1318143   5.558   0.218   6.121  0.0155 -0.6829 -0.3154
  162SAPE   O1418144   5.490   0.459   6.148 -0.2529 -0.2172  0.1026
  162SAPE   O1218145   5.344   0.283   6.232 -0.7919 -0.3156  0.0951
  162SAPE   O1118146   5.563   0.343   6.343 -0.0769 -0.0941 -0.0853
  162SAPE    C118147   5.483   0.402   6.446  0.6701 -1.1911 -0.3961
  162SAPE    HA18148   5.373   0.398   6.434  0.3892  0.6121  1.2955
  162SAPE    HB18149   5.497   0.340   6.538  2.7061  0.0958  0.2037
  162SAPE    C218150   5.517   0.557   6.478  0.1366  0.7873 -1.2049
  162SAPE    HS18151   5.526   0.612   6.382  2.2857  0.6086 -1.1180
  162SAPE   O2118152   5.642   0.559   6.553  0.6450 -0.6496  0.1852
  162SAPE   C2118153   5.694   0.680   6.554  0.0294  0.0041 -0.5214
  162SAPE   O2218154   5.649   0.774   6.488  0.0963 -0.0195 -0.5031
  162SAPE   C2218155   5.814   0.695   6.649 -0.7687 -0.3759 -0.3356
  162SAPE   H2R18156   5.858   0.595   6.667  0.7215  0.4076  0.4083
  162SAPE   H2S18157   5.895   0.750   6.596 -1.5237  0.7677 -0.3273
  162SAPE    C318158   5.405   0.628   6.559 -0.0676  0.1550  0.7847
  162SAPE    HX18159   5.312   0.597   6.506  0.8333  0.3206 -0.9196
  162SAPE    HY18160   5.412   0.737   6.542 -1.5190  0.0369 -0.6471
  162SAPE   O3118161   5.400   0.585   6.697  0.3593 -0.1257 -0.3468
  162SAPE   C3118162   5.303   0.647   6.766  0.0504  0.2206 -1.1988
  162SAPE   O3218163   5.211   0.704   6.715 -0.6933 -0.3042  0.0595
  162SAPE   C3218164   5.313   0.613   6.916  0.1434  0.4644 -0.6054
  162SAPE   H2X18165   5.379   0.525   6.931  1.5142  1.4584 -0.6661
  162SAPE   H2Y18166   5.210   0.583   6.942  0.7110  0.0303  1.2498
  162SAPE   C2318167   5.786   0.763   6.787 -0.5095 -0.2638 -0.3286
  162SAPE   H3R18168   5.713   0.690   6.829 -2.7178  2.1061  0.0349
  162SAPE   H3S18169   5.732   0.856   6.761 -1.8053 -0.5025  1.4587
  162SAPE   C2418170   5.909   0.788   6.863 -0.1299  0.1844  0.0330
  162SAPE   H4R18171   5.970   0.857   6.801  0.2272 -0.0817  0.0863
  162SAPE   H4S18172   5.962   0.693   6.886  0.7972  0.1908 -1.9536
  162SAPE   C2518173   5.880   0.850   6.998 -0.0391 -1.1137 -0.0674
  162SAPE   H5R18174   5.800   0.806   7.060 -2.3580  2.1923 -0.5802
  162SAPE   C2618175   5.944   0.964   7.035  0.3806  0.0109 -0.5011
  162SAPE   H6R18176   5.924   0.988   7.141 -0.6943 -1.2327 -0.4104
  162SAPE   C2718177   6.049   1.048   6.968  0.0831 -0.0149 -0.2797
  162SAPE   H7R18178   6.020   1.075   6.864  1.6499 -1.4231 -1.1049
  162SAPE   H7S18179   6.143   0.990   6.955  1.5249  1.2854  3.5468
  162SAPE   C2818180   6.080   1.178   7.043  0.0154  0.3157  0.1821
  162SAPE   H8R18181   5.998   1.247   7.020 -1.3736 -1.7605 -1.2575
  162SAPE   C2918182   6.189   1.225   7.107  0.0088  0.3871  0.3179
  162SAPE   H9R18183   6.186   1.331   7.136 -0.0395  0.7597 -1.0136
  162SAPE  C21018184   6.320   1.142   7.119  0.2512 -0.6039 -0.6220
  162SAPE  H10R18185   6.329   1.100   7.017  2.0476 -1.5485 -0.0980
  162SAPE  H10S18186   6.304   1.057   7.188 -1.3110 -0.7282 -1.1261
  162SAPE  C21118187   6.452   1.216   7.137 -0.8528  0.0930 -0.3026
  162SAPE  H11R18188   6.504   1.226   7.040 -0.3099  0.3746  0.0193
  162SAPE  C21218189   6.511   1.262   7.253  0.9505  0.1964 -0.7296
  162SAPE  H12R18190   6.605   1.319   7.255 -0.4258  2.5528  0.0409
  162SAPE  C21318191   6.446   1.244   7.389  0.7119 -0.0025  0.0675
  162SAPE  H13R18192   6.518   1.201   7.462 -3.0377 -3.8650  1.6877
  162SAPE  H13S18193   6.366   1.167   7.390 -0.6348  1.3725 -0.4369
  162SAPE  C21418194   6.388   1.369   7.449  1.1235 -0.7676 -0.6584
  162SAPE  H14R18195   6.295   1.394   7.397 -0.2415 -1.4678  1.3951
  162SAPE  C21518196   6.436   1.442   7.553  0.3198  0.2218  0.1912
  162SAPE  H15R18197   6.381   1.533   7.580  2.0958  0.7659  2.0323
  162SAPE  C21618198   6.566   1.411   7.631 -0.1610 -0.3545  0.8886
  162SAPE  H16R18199   6.612   1.508   7.656 -0.1911 -0.4393  1.2782
  162SAPE  H16S18200   6.649   1.361   7.576 -0.2401 -1.6813  1.9326
  162SAPE  C21718201   6.555   1.336   7.766  0.2683 -0.3072 -0.1164
  162SAPE  H17R18202   6.513   1.237   7.739 -0.6067 -0.3565  1.3505
  162SAPE  H17S18203   6.481   1.388   7.830  0.3257 -0.2394 -0.1050
  162SAPE  C21818204   6.695   1.346   7.830 -0.4298 -0.2432  0.3710
  162SAPE  H18R18205   6.737   1.448   7.815  0.5077 -0.3697  2.0876
  162SAPE  H18S18206   6.761   1.270   7.783  2.1327  2.6722 -0.9611
  162SAPE  C21918207   6.681   1.310   7.980 -0.2495  0.2414 -0.0569
  162SAPE  H19R18208   6.628   1.213   7.994 -0.7548  0.7917  1.9984
  162SAPE  H19S18209   6.618   1.381   8.038  0.8582  2.2261 -1.2468
  162SAPE  C22018210   6.816   1.319   8.049  0.0960 -0.3066  0.3942
  162SAPE  H20R18211   6.885   1.259   7.985 -1.1943  0.4232 -1.7499
  162SAPE  H20S18212   6.804   1.263   8.144  0.7951 -1.8316 -0.4105
  162SAPE  H20T18213   6.853   1.423   8.062 -0.0315 -0.3600  1.1826
  162SAPE   C3318214   5.362   0.741   6.992  0.6227 -0.0923 -0.3905
  162SAPE   H3X18215   5.286   0.821   6.983  1.1918  0.6937  1.5604
  162SAPE   H3Y18216   5.455   0.786   6.950 -0.0679  2.3346  0.6147
  162SAPE   C3418217   5.379   0.723   7.148 -0.1933  1.0893 -0.1398
  162SAPE   H4X18218   5.441   0.632   7.159  0.6882  1.1651 -3.7018
  162SAPE   H4Y18219   5.275   0.705   7.182  0.5868  0.8780  2.2105
  162SAPE   C3518220   5.429   0.839   7.224  0.5226 -0.3741  0.9538
  162SAPE   H5X18221   5.374   0.935   7.217  3.2695  1.3672  2.2932
  162SAPE   H5Y18222   5.528   0.868   7.184  1.1496 -0.6179  2.2864
  162SAPE   C3618223   5.450   0.789   7.365  0.5690  0.1135 -0.5039
  162SAPE   H6X18224   5.513   0.698   7.362  0.9395  0.2246  2.2065
  162SAPE   H6Y18225   5.348   0.758   7.397  0.2360  2.0385  0.4173
  162SAPE   C3718226   5.505   0.897   7.454 -0.0966  0.3701  0.2409
  162SAPE   H7X18227   5.438   0.985   7.460  0.7208  0.8984  1.8659
  162SAPE   H7Y18228   5.605   0.926   7.416 -1.0259  2.5595 -0.5525
  162SAPE   C3818229   5.527   0.845   7.597 -0.1100 -0.0522 -0.5323
  162SAPE   H8X18230   5.602   0.763   7.591 -0.1873 -0.1923  0.3393
  162SAPE   H8Y18231   5.436   0.799   7.641  0.8004 -0.2563  1.1752
  162SAPE   C3918232   5.583   0.951   7.702 -0.2212 -0.2279  0.2268
  162SAPE   H9X18233   5.494   0.998   7.750 -0.0944 -0.7401  0.9806
  162SAPE   H9Y18234   5.643   1.025   7.645 -1.5423  0.5018 -0.2388
  162SAPE  C31018235   5.669   0.882   7.805  0.0654 -0.6491  0.0045
  162SAPE  H10X18236   5.748   0.825   7.752  0.7076 -3.0760  3.3919
  162SAPE  H10Y18237   5.594   0.816   7.852  0.4607 -1.0043  0.1364
  162SAPE  C31118238   5.733   0.977   7.910  0.2513 -0.3279  0.3379
  162SAPE  H11X18239   5.657   1.019   7.978 -2.2855 -1.6118 -1.6075
  162SAPE  H11Y18240   5.773   1.069   7.862  0.7118  0.5801  2.4040
  162SAPE  C31218241   5.853   0.905   7.978  0.5215  0.2214  0.3451
  162SAPE  H12X18242   5.904   0.977   8.045  1.8263  1.7051 -2.1459
  162SAPE  H12Y18243   5.924   0.873   7.898  0.2206 -0.6063  0.4010
  162SAPE  C31318244   5.799   0.786   8.055 -0.1332  0.6272 -0.8314
  162SAPE  H13X18245   5.730   0.718   8.000  0.0048 -0.9056  0.8465
  162SAPE  H13Y18246   5.748   0.829   8.144 -1.0495  1.2441 -1.6421
  162SAPE  C31418247   5.909   0.686   8.095  0.3392 -0.3540  0.0012
  162SAPE  H14X18248   5.974   0.675   8.006 -0.9341 -2.2582 -0.7354
  162SAPE  H14Y18249   5.859   0.588   8.106 -0.2119 -0.3732 -2.3353
  162SAPE  C31518250   5.975   0.722   8.229  0.5861 -0.1065  0.3739
  162SAPE  H15X18251   5.895   0.742   8.304  0.6858  4.0597 -0.5028
  162SAPE  H15Y18252   6.023   0.822   8.214  1.0817 -0.2371  1.0346
  162SAPE  C31618253   6.071   0.606   8.281  0.7018  0.2390  0.4846
  162SAPE  H16X18254   6.011   0.513   8.291  2.6147 -0.9619  1.2177
  162SAPE  H16Y18255   6.108   0.636   8.382  0.5315  1.3258  0.2353
  162SAPE  C31718256   6.196   0.582   8.189 -0.2273 -0.5603  0.4564
  162SAPE  H17X18257   6.244   0.679   8.165 -0.5582 -0.1253  1.5176
  162SAPE  H17Y18258   6.169   0.534   8.092 -0.5747  1.7528 -0.6275
  162SAPE  C31818259   6.296   0.488   8.257  0.3678 -0.0545  0.0730
  162SAPE  H18X18260   6.383   0.470   8.190 -0.4899 -0.4638 -0.9313
  162SAPE  H18Y18261   6.254   0.391   8.290  2.4730 -1.7454 -2.0862
  162SAPE  H18Z18262   6.339   0.524   8.354 -2.5123  0.6313  1.1514
  163SAPE     N18263   3.729   4.857   6.481  0.0493  0.1880 -0.0173
  163SAPE   HN118264   3.817   4.802   6.484 -1.1246 -1.6506  2.3076
  163SAPE   HN218265   3.653   4.798   6.440  0.9373  0.2148 -1.7563
  163SAPE   HN318266   3.744   4.934   6.412  0.2277  2.6327  2.6730
  163SAPE   C1218267   3.706   4.918   6.609 -0.0981  0.8662 -0.2161
  163SAPE  H12A18268   3.757   4.861   6.689 -1.3546  0.9723  0.6763
  163SAPE  H12B18269   3.596   4.919   6.627 -0.2241  0.9502 -0.9709
  163SAPE   C1118270   3.763   5.056   6.610  0.0232 -0.2764  0.3346
  163SAPE  H11A18271   3.871   5.064   6.588  0.0956 -1.8637  0.0361
  163SAPE  H11B18272   3.747   5.090   6.715 -0.0901 -1.4128  0.6888
  163SAPE     P18273   3.659   5.293   6.526  0.1204 -0.0599  0.2192
  163SAPE   O1318274   3.749   5.380   6.447 -0.0302  0.0512 -0.2366
  163SAPE   O1418275   3.513   5.305   6.505 -0.1028 -0.1765  0.2451
  163SAPE   O1218276   3.701   5.143   6.513  0.2307  0.1048  0.1685
  163SAPE   O1118277   3.682   5.303   6.681 -0.0027  0.8899  0.2731
  163SAPE    C118278   3.645   5.423   6.747  0.4069 -0.4766  0.1149
  163SAPE    HA18279   3.728   5.496   6.739 -0.7358  0.6819 -1.3769
  163SAPE    HB18280   3.568   5.487   6.700 -0.2886  0.2222  2.1566
  163SAPE    C218281   3.599   5.408   6.899  0.4925 -0.0971  0.2310
  163SAPE    HS18282   3.557   5.505   6.933 -2.3183 -0.7310 -1.3173
  163SAPE   O2118283   3.718   5.373   6.982 -0.0267 -0.1369  0.2338
  163SAPE   C2118284   3.711   5.411   7.113 -0.7937 -2.0337 -0.0573
  163SAPE   O2218285   3.616   5.458   7.166  0.0461 -0.2735  0.2405
  163SAPE   C2218286   3.840   5.374   7.180 -0.4872  0.2674  0.2701
  163SAPE   H2R18287   3.808   5.294   7.251  0.0099 -0.0558  0.1288
  163SAPE   H2S18288   3.915   5.345   7.104 -1.0765  0.6240 -0.4470
  163SAPE    C318289   3.493   5.298   6.908 -0.7209  0.5817  0.1212
  163SAPE    HX18290   3.533   5.202   6.869  1.7195  1.9176 -0.8116
  163SAPE    HY18291   3.412   5.321   6.837  0.9608  0.4367 -1.9105
  163SAPE   O3118292   3.448   5.287   7.046  0.4980  0.2490  0.0926
  163SAPE   C3118293   3.342   5.365   7.073 -0.0111  0.5696 -0.0756
  163SAPE   O3218294   3.289   5.442   6.995 -0.4545  0.5342 -0.0575
  163SAPE   C3218295   3.287   5.325   7.215  0.1750 -0.4082 -0.3323
  163SAPE   H2X18296   3.367   5.313   7.292 -1.9011  0.7098  2.0499
  163SAPE   H2Y18297   3.238   5.230   7.184  0.2928  0.2697 -2.6805
  163SAPE   C2318298   3.893   5.486   7.269  0.2392 -0.2223  0.1639
  163SAPE   H3R18299   3.808   5.531   7.324  1.2381  0.7283  0.9578
  163SAPE   H3S18300   3.945   5.563   7.209 -0.9742 -0.2881 -0.9804
  163SAPE   C2418301   3.990   5.436   7.385  0.8001  0.0821  0.5020
  163SAPE   H4R18302   4.080   5.405   7.328 -1.5230 -0.7303 -2.9129
  163SAPE   H4S18303   3.946   5.337   7.413 -0.2839  1.1215  2.5489
  163SAPE   C2518304   4.005   5.525   7.506  0.2833 -0.2628 -0.5726
  163SAPE   H5R18305   4.054   5.621   7.484 -0.9576 -0.0028 -2.3437
  163SAPE   C2618306   3.967   5.504   7.634 -0.5271  0.6535  0.7212
  163SAPE   H6R18307   3.984   5.580   7.712  2.9763  2.1576 -1.3752
  163SAPE   C2718308   3.906   5.377   7.686 -0.6708  0.0176 -0.4260
  163SAPE   H7R18309   3.832   5.337   7.614 -0.2938 -1.4657 -0.0056
  163SAPE   H7S18310   3.842   5.406   7.773  2.0986  0.5644  1.4919
  163SAPE   C2818311   4.008   5.268   7.713 -0.0064 -1.0111 -0.2224
  163SAPE   H8R18312   4.083   5.254   7.634  0.5930 -1.5337  0.4341
  163SAPE   C2918313   4.018   5.196   7.825 -0.3834 -0.0597  0.2712
  163SAPE   H9R18314   4.111   5.140   7.841 -0.8207 -0.9440 -0.2865
  163SAPE  C21018315   3.911   5.220   7.928  0.2955 -0.1312 -0.5326
  163SAPE  H10R18316   3.819   5.206   7.867  0.5086  0.4122 -0.9825
  163SAPE  H10S18317   3.899   5.325   7.961  0.2264 -0.4767  0.5685
  163SAPE  C21118318   3.921   5.122   8.044  0.3927 -0.5316 -0.1923
  163SAPE  H11R18319   3.967   5.025   8.018  2.8239 -0.2060  2.6635
  163SAPE  C21218320   3.881   5.138   8.167 -0.4960 -0.7854 -0.3928
  163SAPE  H12R18321   3.905   5.056   8.236 -0.2857  0.8233  1.4974
  163SAPE  C21318322   3.817   5.258   8.232 -0.0646  0.1340 -0.4807
  163SAPE  H13R18323   3.713   5.226   8.257  0.3538 -2.6817 -2.0537
  163SAPE  H13S18324   3.807   5.341   8.159  2.3111 -0.1465 -1.1755
  163SAPE  C21418325   3.901   5.310   8.343  0.1656  0.2627 -0.7850
  163SAPE  H14R18326   4.002   5.349   8.320 -0.5678  2.1144 -0.9265
  163SAPE  C21518327   3.874   5.308   8.474  0.4108  0.4334  0.3885
  163SAPE  H15R18328   3.943   5.361   8.541  3.6626 -0.9120 -1.7990
  163SAPE  C21618329   3.758   5.237   8.542 -0.9241 -0.6221  0.8439
  163SAPE  H16R18330   3.676   5.203   8.475 -2.5282  0.7548  2.0479
  163SAPE  H16S18331   3.704   5.298   8.619 -2.0098 -2.7881  1.8713
  163SAPE  C21718332   3.814   5.112   8.606  0.5069  0.8953  0.2670
  163SAPE  H17R18333   3.748   5.069   8.684 -1.0561 -0.6615 -1.8514
  163SAPE  H17S18334   3.908   5.131   8.662  0.4215  1.4235  0.2308
  163SAPE  C21818335   3.843   5.006   8.501 -0.0275 -0.1460 -0.3053
  163SAPE  H18R18336   3.938   5.028   8.448  0.5896 -1.2541  0.3268
  163SAPE  H18S18337   3.760   5.006   8.426 -0.0683  1.0552 -0.2682
  163SAPE  C21918338   3.865   4.865   8.568 -0.6061  0.7413  0.0481
  163SAPE  H19R18339   3.775   4.837   8.627 -1.4756  1.9397 -0.7014
  163SAPE  H19S18340   3.945   4.881   8.644 -3.0855  0.3495  2.8437
  163SAPE  C22018341   3.899   4.757   8.471  0.0166  0.6270 -0.3311
  163SAPE  H20R18342   3.836   4.745   8.380 -1.1519 -2.6176  0.8299
  163SAPE  H20S18343   3.900   4.657   8.521 -1.8763  1.5276  1.5841
  163SAPE  H20T18344   4.001   4.776   8.433 -0.4183 -0.0298 -1.8671
  163SAPE   C3318345   3.185   5.427   7.258  0.2898  0.3062 -1.0026
  163SAPE   H3X18346   3.125   5.444   7.166 -0.2908 -0.3809 -0.7584
  163SAPE   H3Y18347   3.238   5.521   7.283  0.0599  0.2863 -0.4433
  163SAPE   C3418348   3.106   5.376   7.376 -0.3492  0.0139 -0.1420
  163SAPE   H4X18349   3.044   5.286   7.356 -1.1798  0.5270  0.1004
  163SAPE   H4Y18350   3.050   5.469   7.397  1.3453  1.3492 -1.4309
  163SAPE   C3518351   3.188   5.348   7.500 -0.2355 -0.4763 -0.2932
  163SAPE   H5X18352   3.255   5.431   7.531 -0.6333  0.1698 -1.1378
  163SAPE   H5Y18353   3.240   5.250   7.492 -1.4404 -1.3380  1.8859
  163SAPE   C3618354   3.099   5.335   7.626  0.5051 -0.1682  0.1980
  163SAPE   H6X18355   3.031   5.250   7.606  0.1703  0.6336 -2.3413
  163SAPE   H6Y18356   3.030   5.421   7.617 -1.6925 -1.9495 -0.2538
  163SAPE   C3718357   3.169   5.324   7.758 -0.4961 -0.4081 -0.6171
  163SAPE   H7X18358   3.256   5.390   7.774 -2.1318  1.3760  1.0720
  163SAPE   H7Y18359   3.208   5.219   7.758  1.3746  0.1775  3.9062
  163SAPE   C3818360   3.072   5.338   7.878 -0.4127 -0.2347  0.3996
  163SAPE   H8X18361   3.001   5.254   7.865 -0.7054  0.0152  0.3607
  163SAPE   H8Y18362   2.999   5.422   7.884 -0.2153 -0.1226  1.2302
  163SAPE   C3918363   3.133   5.318   8.024  0.7610  0.2547  0.0956
  163SAPE   H9X18364   3.196   5.409   8.034  1.4374 -0.1151 -0.7652
  163SAPE   H9Y18365   3.204   5.233   8.023 -0.8489 -1.1091  0.1194
  163SAPE  C31018366   3.031   5.311   8.133 -0.0320  0.7572  0.1453
  163SAPE  H10X18367   2.968   5.220   8.125  1.2287 -0.3035  1.9508
  163SAPE  H10Y18368   2.958   5.394   8.120 -0.1015  0.2496 -3.2203
  163SAPE  C31118369   3.093   5.312   8.268  0.5448 -0.0322  0.0897
  163SAPE  H11X18370   3.140   5.411   8.283 -0.0304  0.3837 -0.8538
  163SAPE  H11Y18371   3.173   5.235   8.275 -0.2460 -0.8901 -0.1844
  163SAPE  C31218372   2.994   5.281   8.383 -0.5704  0.4480 -0.0980
  163SAPE  H12X18373   3.056   5.280   8.476  1.5654  0.1600 -1.4904
  163SAPE  H12Y18374   2.950   5.180   8.367 -1.5399  0.5705  1.6655
  163SAPE  C31318375   2.888   5.389   8.401  0.7476  0.2256  0.0416
  163SAPE  H13X18376   2.827   5.397   8.309  1.8149  1.9735 -0.5307
  163SAPE  H13Y18377   2.944   5.485   8.407  0.2928  0.4973 -0.1078
  163SAPE  C31418378   2.819   5.373   8.535 -0.4125  0.1164  0.7060
  163SAPE  H14X18379   2.742   5.453   8.530  1.1018  1.4683 -2.0665
  163SAPE  H14Y18380   2.890   5.381   8.620 -0.5281  0.0767  0.8051
  163SAPE  C31518381   2.757   5.232   8.563  0.0462 -0.3377  0.3889
  163SAPE  H15X18382   2.829   5.148   8.556  0.2766 -0.4291  3.3746
  163SAPE  H15Y18383   2.688   5.210   8.479  0.4692  1.0955 -0.3511
  163SAPE  C31618384   2.670   5.238   8.688 -0.1966 -0.1583 -0.4248
  163SAPE  H16X18385   2.608   5.146   8.691 -0.0203 -0.2815 -0.5355
  163SAPE  H16Y18386   2.581   5.304   8.679 -2.6510 -2.9478  2.1781
  163SAPE  C31718387   2.751   5.267   8.816 -0.5367  0.2204 -0.2364
  163SAPE  H17X18388   2.772   5.376   8.817  0.3181  0.0961 -2.6306
  163SAPE  H17Y18389   2.847   5.213   8.805 -0.4098  0.6374 -1.1667
  163SAPE  C31818390   2.677   5.245   8.951 -0.2063 -0.1766 -0.1657
  163SAPE  H18X18391   2.745   5.261   9.037 -0.2264 -0.1043 -0.1640
  163SAPE  H18Y18392   2.652   5.137   8.968  0.8111 -0.2171  1.1257
  163SAPE  H18Z18393   2.585   5.307   8.961 -0.1089 -0.4557  3.0054
  164SAPE     N18394   0.178   2.080   6.280  0.6175 -0.1082  0.3330
  164SAPE   HN118395   0.184   2.009   6.356 -1.0612  0.0749  0.6581
  164SAPE   HN218396   0.229   2.163   6.316 -1.2136  2.3806 -2.5238
  164SAPE   HN318397   0.080   2.111   6.261  0.8716  0.3509 -0.2184
  164SAPE   C1218398   0.240   2.028   6.155 -0.0969 -0.0029 -0.1286
  164SAPE  H12A18399   0.203   1.926   6.128 -1.2271  0.8800 -2.0364
  164SAPE  H12B18400   0.349   2.027   6.174  0.1472  0.5810 -1.4728
  164SAPE   C1118401   0.199   2.116   6.035  0.3383 -0.4076  0.4438
  164SAPE  H11A18402   0.253   2.074   5.948  0.9980 -0.1189  0.7138
  164SAPE  H11B18403   0.232   2.222   6.038 -0.3384 -0.2030  0.9343
  164SAPE     P18404  -0.038   2.242   6.031 -0.1279 -0.3108 -0.1284
  164SAPE   O1318405   0.015   2.356   5.961  1.0245 -0.1185  0.1579
  164SAPE   O1418406  -0.181   2.213   6.008 -0.4509  0.5866 -0.0160
  164SAPE   O1218407   0.058   2.115   6.007 -0.4838  0.3920  0.2200
  164SAPE   O1118408  -0.004   2.263   6.183  0.6963 -0.4995 -0.0099
  164SAPE    C118409   0.002   2.388   6.243  0.5734 -0.7551 -0.5191
  164SAPE    HA18410   0.109   2.415   6.240  0.1574  0.8439 -1.3849
  164SAPE    HB18411  -0.066   2.467   6.204  1.4313  0.6382  0.7547
  164SAPE    C218412  -0.040   2.375   6.389 -0.3069 -0.2787  0.2469
  164SAPE    HS18413  -0.027   2.476   6.433 -0.4511 -0.0140 -0.3135
  164SAPE   O2118414   0.034   2.278   6.462 -0.2165  0.4299 -0.3221
  164SAPE   C2118415   0.068   2.302   6.584 -0.0493  0.8198 -0.2317
  164SAPE   O2218416   0.044   2.405   6.649  0.3922 -0.1462  0.1811
  164SAPE   C2218417   0.113   2.171   6.644  0.2237  0.0536 -0.4264
  164SAPE   H2R18418   0.071   2.091   6.579 -0.6735  1.2836 -1.4097
  164SAPE   H2S18419   0.223   2.163   6.637  0.0878 -1.3766 -0.9613
  164SAPE    C318420  -0.197   2.358   6.407  0.5293  0.2271 -0.0742
  164SAPE    HX18421  -0.212   2.259   6.360 -0.2430 -0.7881  2.2208
  164SAPE    HY18422  -0.251   2.441   6.357  0.3992  0.6191  0.6950
  164SAPE   O3118423  -0.252   2.337   6.538 -0.2202 -0.0975  0.1548
  164SAPE   C3118424  -0.262   2.447   6.611  0.9999  0.5288 -0.0969
  164SAPE   O3218425  -0.261   2.561   6.570  0.1623  0.0312 -0.1209
  164SAPE   C3218426  -0.292   2.402   6.759 -1.0906  0.2399  0.3251
  164SAPE   H2X18427  -0.224   2.320   6.791  0.6670  2.0237  1.2788
  164SAPE   H2Y18428  -0.390   2.350   6.749  0.2668 -2.1060 -1.2004
  164SAPE   C2318429   0.074   2.155   6.790  0.2602  0.0035  0.4495
  164SAPE   H3R18430  -0.035   2.136   6.801  0.3731  0.3103  2.1698
  164SAPE   H3S18431   0.094   2.249   6.844  0.3991 -0.1182  0.6099
  164SAPE   C2418432   0.149   2.047   6.863 -0.0115  0.9381  0.0486
  164SAPE   H4R18433   0.259   2.053   6.849  0.1829  0.7199  1.4748
  164SAPE   H4S18434   0.121   1.954   6.808 -2.7395  0.5372  2.0072
  164SAPE   C2518435   0.111   2.031   7.012  0.0946  0.5905  0.2084
  164SAPE   H5R18436   0.041   1.952   7.041  0.9856 -0.5938 -0.7857
  164SAPE   C2618437   0.163   2.123   7.093  0.3605 -0.2654 -0.3246
  164SAPE   H6R18438   0.154   2.109   7.202 -0.7007  2.6435 -0.0084
  164SAPE   C2718439   0.259   2.234   7.065 -0.4846 -0.0058 -1.0052
  164SAPE   H7R18440   0.202   2.322   7.102 -1.8366 -1.6616  0.9325
  164SAPE   H7S18441   0.275   2.253   6.956 -2.4279 -1.1020 -1.5087
  164SAPE   C2818442   0.384   2.200   7.143  0.0560 -0.2860 -0.4937
  164SAPE   H8R18443   0.436   2.108   7.110  2.2678 -0.1766  2.4236
  164SAPE   C2918444   0.442   2.261   7.247 -0.6964 -0.0109  0.0239
  164SAPE   H9R18445   0.545   2.234   7.272 -1.0580 -2.6064 -1.0994
  164SAPE  C21018446   0.375   2.378   7.316 -0.1448 -0.5931  0.6221
  164SAPE  H10R18447   0.388   2.356   7.424 -1.8448 -0.2380  0.9151
  164SAPE  H10S18448   0.264   2.380   7.310 -0.1143 -0.7973 -0.0362
  164SAPE  C21118449   0.439   2.511   7.281 -0.2368  0.1964  0.2515
  164SAPE  H11R18450   0.430   2.534   7.173 -1.6758  0.0678  0.3338
  164SAPE  C21218451   0.503   2.596   7.359 -0.5239 -0.0338  0.5287
  164SAPE  H12R18452   0.542   2.690   7.317  1.6192 -0.0133  2.4309
  164SAPE  C21318453   0.523   2.582   7.512  0.1139  0.5883  0.0234
  164SAPE  H13R18454   0.621   2.630   7.534 -0.7009  0.9990  2.9501
  164SAPE  H13S18455   0.535   2.478   7.547 -2.0165  0.6956  1.1350
  164SAPE  C21418456   0.412   2.628   7.597 -0.4787  0.6044 -0.6773
  164SAPE  H14R18457   0.317   2.574   7.581  0.7366 -1.4886 -0.9725
  164SAPE  C21518458   0.406   2.733   7.673  0.1012 -0.5380  0.5772
  164SAPE  H15R18459   0.309   2.752   7.721  0.3320  0.1874  0.7708
  164SAPE  C21618460   0.528   2.825   7.700  0.1645  0.1633 -0.3514
  164SAPE  H16R18461   0.530   2.912   7.631 -1.2121  0.6114  0.1652
  164SAPE  H16S18462   0.623   2.769   7.712 -0.2549 -0.0178  2.4583
  164SAPE  C21718463   0.511   2.890   7.840 -0.3376  0.5360 -0.6043
  164SAPE  H17R18464   0.609   2.936   7.864  0.1463 -1.1520  0.7703
  164SAPE  H17S18465   0.501   2.809   7.915  0.4584  0.4031 -0.6336
  164SAPE  C21818466   0.395   2.990   7.861 -0.7767  0.2579 -1.0691
  164SAPE  H18R18467   0.327   2.961   7.778 -0.0849 -2.4719 -0.7149
  164SAPE  H18S18468   0.443   3.087   7.835  3.1274 -2.0502 -2.8827
  164SAPE  C21918469   0.339   2.983   8.008  0.8224 -0.3884  0.2413
  164SAPE  H19R18470   0.422   2.999   8.079  0.9133 -0.5308  0.1695
  164SAPE  H19S18471   0.307   2.878   8.028  0.5060 -0.2773  0.3307
  164SAPE  C22018472   0.224   3.083   8.034  0.6477 -0.0161  0.0703
  164SAPE  H20R18473   0.160   3.089   7.944 -0.2635  4.3423  0.8782
  164SAPE  H20S18474   0.247   3.191   8.049 -0.0093  1.0103 -5.3158
  164SAPE  H20T18475   0.158   3.059   8.120  2.0616  0.2219  1.2400
  164SAPE   C3318476  -0.305   2.526   6.859 -0.1735  0.9067 -0.1532
  164SAPE   H3X18477  -0.376   2.598   6.813 -0.0111  2.1335  1.4941
  164SAPE   H3Y18478  -0.203   2.569   6.851  0.6297 -0.1483  3.4813
  164SAPE   C3418479  -0.334   2.506   7.005  0.1821  0.0086  0.4044
  164SAPE   H4X18480  -0.436   2.461   7.011  0.4057 -0.7513 -1.2479
  164SAPE   H4Y18481  -0.327   2.600   7.064  2.3054 -0.9692  1.7559
  164SAPE   C3518482  -0.240   2.397   7.070 -0.4539 -0.9878  0.3958
  164SAPE   H5X18483  -0.138   2.425   7.036 -1.4409  1.3727 -0.6868
  164SAPE   H5Y18484  -0.260   2.300   7.019 -0.9354 -0.3896 -0.5458
  164SAPE   C3618485  -0.218   2.385   7.221  0.4451 -0.3652 -0.0052
  164SAPE   H6X18486  -0.314   2.356   7.269  0.2718 -0.6561 -0.5170
  164SAPE   H6Y18487  -0.200   2.481   7.273 -1.3687 -0.4198  0.7541
  164SAPE   C3718488  -0.092   2.304   7.254 -0.0025  0.5246  0.0820
  164SAPE   H7X18489  -0.004   2.337   7.195 -0.1098  2.0191  0.7437
  164SAPE   H7Y18490  -0.091   2.199   7.216  2.7318 -0.9510  3.9334
  164SAPE   C3818491  -0.060   2.304   7.402  0.3114  0.4102 -0.0647
  164SAPE   H8X18492  -0.154   2.272   7.453  0.9844 -1.2921  0.1395
  164SAPE   H8Y18493  -0.045   2.410   7.432 -1.3812  1.0465 -1.4019
  164SAPE   C3918494   0.049   2.201   7.443  0.2847 -0.6383  0.0943
  164SAPE   H9X18495   0.135   2.226   7.377 -0.8118 -0.4315 -1.2782
  164SAPE   H9Y18496   0.017   2.099   7.416 -0.0638 -0.8891  1.3895
  164SAPE  C31018497   0.083   2.209   7.598 -0.3707 -0.2683  0.2184
  164SAPE  H10X18498   0.151   2.297   7.607 -2.1480  1.0718  0.9850
  164SAPE  H10Y18499   0.152   2.125   7.619  0.9583  0.6982 -0.2314
  164SAPE  C31118500  -0.041   2.213   7.690  0.0025 -0.2323 -0.4409
  164SAPE  H11X18501  -0.114   2.132   7.671  1.3951 -1.8444  0.8979
  164SAPE  H11Y18502  -0.118   2.289   7.663 -3.2040 -2.1051  2.9520
  164SAPE  C31218503  -0.005   2.225   7.839  0.5839 -0.0422  0.0718
  164SAPE  H12X18504   0.047   2.321   7.859  2.3816 -1.3224  1.8328
  164SAPE  H12Y18505   0.067   2.144   7.866 -1.7747 -1.5230  2.1399
  164SAPE  C31318506  -0.121   2.207   7.946 -0.0871 -0.5516 -0.5349
  164SAPE  H13X18507  -0.179   2.117   7.917  2.5468 -1.6641 -2.5189
  164SAPE  H13Y18508  -0.182   2.299   7.933  1.0419  0.5950  1.9204
  164SAPE  C31418509  -0.071   2.188   8.089  0.2087 -0.2253  0.6229
  164SAPE  H14X18510   0.003   2.105   8.079 -0.1666 -0.4715 -0.1711
  164SAPE  H14Y18511  -0.156   2.148   8.147 -0.1004 -0.5639 -0.0527
  164SAPE  C31518512  -0.017   2.315   8.142  0.7214  0.4331  0.3471
  164SAPE  H15X18513  -0.096   2.392   8.157  2.2209  1.9138  0.8272
  164SAPE  H15Y18514   0.042   2.351   8.056 -2.2833 -0.4041 -2.1367
  164SAPE  C31618515   0.077   2.298   8.266  0.3739 -0.2059  0.5493
  164SAPE  H16X18516   0.144   2.211   8.250  1.2839  0.3703  1.2397
  164SAPE  H16Y18517   0.015   2.273   8.355  0.2128  2.2397  1.1478
  164SAPE  C31718518   0.158   2.414   8.298 -0.0824 -0.5282 -0.7395
  164SAPE  H17X18519   0.090   2.502   8.310  2.3456  1.4293 -0.8556
  164SAPE  H17Y18520   0.234   2.430   8.218  0.6262  4.0304  0.6813
  164SAPE  C31818521   0.233   2.397   8.430  0.5357  0.1003  0.6095
  164SAPE  H18X18522   0.163   2.365   8.510 -0.5104 -1.6434 -0.9535
  164SAPE  H18Y18523   0.294   2.488   8.445 -0.4791  1.0397 -0.8303
  164SAPE  H18Z18524   0.307   2.317   8.413  1.0320  1.0753 -1.9487
  165SAPE     N18525   6.421   5.340   6.173 -0.0807 -0.4464 -0.6464
  165SAPE   HN118526   6.418   5.350   6.070 -1.9952 -1.4008 -0.6908
  165SAPE   HN218527   6.323   5.352   6.204 -0.2245 -1.6183 -0.6294
  165SAPE   HN318528   6.475   5.418   6.217 -1.9466  0.4152  0.1546
  165SAPE   C1218529   6.478   5.207   6.192  0.4203  1.1231 -0.1589
  165SAPE  H12A18530   6.525   5.158   6.105 -1.8261  0.5568 -1.1064
  165SAPE  H12B18531   6.393   5.142   6.223  1.1081  0.6750  0.8196
  165SAPE   C1118532   6.586   5.191   6.307 -0.4494  0.3691 -0.3273
  165SAPE  H11A18533   6.611   5.087   6.338 -1.7298  1.0281  3.1386
  165SAPE  H11B18534   6.549   5.240   6.400  0.5404 -0.2563  0.4107
  165SAPE     P18535   6.835   5.257   6.344 -0.1567 -0.4496 -0.0181
  165SAPE   O1318536   6.920   5.144   6.305  0.0413  0.3181  0.5408
  165SAPE   O1418537   6.904   5.390   6.332  0.7540  0.2145  0.8803
  165SAPE   O1218538   6.700   5.264   6.263 -0.4364  0.3501 -1.1049
  165SAPE   O1118539   6.783   5.233   6.490  0.5347 -0.0339 -0.0145
  165SAPE    C118540   6.885   5.238   6.591  0.0389  0.5202  0.5456
  165SAPE    HA18541   6.849   5.183   6.681  0.7287 -0.0915  0.4525
  165SAPE    HB18542   6.972   5.174   6.563 -0.5197 -1.0496  2.2852
  165SAPE    C218543   6.940   5.376   6.628 -0.5934  0.1156 -0.0707
  165SAPE    HS18544   6.965   5.439   6.540 -0.7546 -1.8638 -1.5564
  165SAPE   O2118545   7.050   5.352   6.712  0.3335  0.0468 -0.3724
  165SAPE   C2118546   7.147   5.439   6.719 -0.1737 -0.4170  0.5371
  165SAPE   O2218547   7.163   5.539   6.656 -0.2540 -0.7548 -0.3646
  165SAPE   C2218548   7.258   5.392   6.816 -0.9407 -0.1883  0.2784
  165SAPE   H2R18549   7.226   5.295   6.860  1.7836 -1.4818 -0.4479
  165SAPE   H2S18550   7.352   5.377   6.758  0.9210  1.6820  2.7069
  165SAPE    C318551   6.834   5.456   6.717 -0.5625  0.4050  0.4531
  165SAPE    HX18552   6.765   5.463   6.630 -0.1650  0.9163  0.1688
  165SAPE    HY18553   6.874   5.555   6.747  3.8160 -0.9044 -0.6546
  165SAPE   O3118554   6.784   5.377   6.824  0.2248 -0.3534  0.3005
  165SAPE   C3118555   6.720   5.454   6.916  0.0292 -0.0907 -0.4198
  165SAPE   O3218556   6.729   5.573   6.921  0.1739 -0.0070 -0.0880
  165SAPE   C3218557   6.636   5.369   7.012  0.4284 -0.9684  0.2424
  165SAPE   H2X18558   6.679   5.267   7.027  0.7404 -0.6240  1.8032
  165SAPE   H2Y18559   6.538   5.355   6.962 -0.2899  2.2604  0.6723
  165SAPE   C2318560   7.276   5.491   6.938  0.3563 -0.6749 -0.0621
  165SAPE   H3R18561   7.287   5.597   6.907  0.6445 -0.7003 -0.0472
  165SAPE   H3S18562   7.376   5.465   6.980 -0.0660 -0.3110  1.1923
  165SAPE   C2418563   7.170   5.477   7.050  0.1638 -0.1319  0.0085
  165SAPE   H4R18564   7.168   5.369   7.078 -2.5328 -0.1089  0.0791
  165SAPE   H4S18565   7.069   5.496   7.006 -0.6998 -0.3910  1.8475
  165SAPE   C2518566   7.194   5.558   7.171  0.8688 -0.1782  0.1843
  165SAPE   H5R18567   7.223   5.660   7.142 -1.1814  0.5963  0.7407
  165SAPE   C2618568   7.199   5.525   7.301 -0.1551  0.7985 -0.2076
  165SAPE   H6R18569   7.189   5.602   7.379  2.4888 -0.6150  1.5647
  165SAPE   C2718570   7.175   5.390   7.365 -0.2407 -0.2208  0.3618
  165SAPE   H7R18571   7.162   5.323   7.278 -0.9554 -1.5196  1.4385
  165SAPE   H7S18572   7.090   5.378   7.436 -1.6552  1.7761 -0.9735
  165SAPE   C2818573   7.306   5.369   7.440  0.0793 -0.6762  0.4697
  165SAPE   H8R18574   7.388   5.337   7.374 -0.4432  3.9683 -2.7193
  165SAPE   C2918575   7.332   5.384   7.571 -0.2239 -0.1136 -0.1659
  165SAPE   H9R18576   7.436   5.360   7.599 -0.3430  0.0636  0.4452
  165SAPE  C21018577   7.260   5.442   7.687 -0.4826  0.0653 -0.1637
  165SAPE  H10R18578   7.336   5.457   7.767 -0.1668 -1.8382 -0.0984
  165SAPE  H10S18579   7.193   5.368   7.735  0.5250 -0.0746  1.0589
  165SAPE  C21118580   7.183   5.570   7.681 -0.6128 -0.0039  0.2770
  165SAPE  H11R18581   7.173   5.620   7.583  0.8473  1.4457  0.8268
  165SAPE  C21218582   7.124   5.626   7.789 -0.1622  0.2322  0.3677
  165SAPE  H12R18583   7.075   5.724   7.779 -0.2891  0.0034 -1.3996
  165SAPE  C21318584   7.118   5.568   7.931  0.4589  0.7952  0.1880
  165SAPE  H13R18585   7.184   5.639   7.985  2.4497 -1.1151  0.3456
  165SAPE  H13S18586   7.161   5.466   7.942  0.5259  1.0505  2.5469
  165SAPE  C21418587   6.971   5.562   7.987  0.1390 -0.4978  0.0783
  165SAPE  H14R18588   6.900   5.529   7.911  1.8033 -1.0811 -1.2493
  165SAPE  C21518589   6.926   5.597   8.112  0.2335  0.1183  0.1143
  165SAPE  H15R18590   6.820   5.589   8.138  0.1435  0.9195  0.0138
  165SAPE  C21618591   7.020   5.650   8.221 -0.0629 -0.3437 -0.3085
  165SAPE  H16R18592   7.123   5.673   8.184 -0.6180  0.8152 -1.1786
  165SAPE  H16S18593   7.034   5.578   8.305 -0.2551  1.9230  1.7470
  165SAPE  C21718594   6.973   5.782   8.290 -0.4463  0.0194 -0.1471
  165SAPE  H17R18595   7.009   5.866   8.228 -0.9125  0.9892  0.8850
  165SAPE  H17S18596   7.039   5.787   8.379 -0.9338  2.3375  0.0898
  165SAPE  C21818597   6.831   5.776   8.327 -0.0006  0.2946 -0.0646
  165SAPE  H18R18598   6.826   5.813   8.432 -1.5001 -0.6521  0.2089
  165SAPE  H18S18599   6.792   5.673   8.339 -2.0191  0.9738 -0.5800
  165SAPE  C21918600   6.725   5.855   8.244 -0.0071 -0.3293  0.2453
  165SAPE  H19R18601   6.623   5.820   8.273 -0.0810 -0.1016  0.2644
  165SAPE  H19S18602   6.742   5.822   8.139 -0.2572  0.5591 -0.0775
  165SAPE  C22018603   6.738   6.007   8.261 -0.5788  0.3195 -0.3876
  165SAPE  H20R18604   6.643   6.049   8.222 -1.0858 -0.3731  0.1010
  165SAPE  H20S18605   6.818   6.045   8.193 -0.2715 -1.1921 -0.8755
  165SAPE  H20T18606   6.758   6.028   8.368  0.2228 -0.1401 -0.4388
  165SAPE   C3318607   6.617   5.429   7.157 -0.2566 -0.5532 -0.2474
  165SAPE   H3X18608   6.577   5.532   7.147  2.6892  0.7300  0.6912
  165SAPE   H3Y18609   6.717   5.426   7.204 -0.6017 -2.9734  0.3704
  165SAPE   C3418610   6.518   5.356   7.255  0.7957  0.3518 -0.0395
  165SAPE   H4X18611   6.531   5.246   7.255 -0.7426  0.1542 -1.3102
  165SAPE   H4Y18612   6.412   5.360   7.222  0.5708 -1.2361  0.4421
  165SAPE   C3518613   6.538   5.403   7.390  0.6455  0.4396 -0.1836
  165SAPE   H5X18614   6.519   5.512   7.400 -1.0038  0.0672  0.9800
  165SAPE   H5Y18615   6.640   5.395   7.431  0.9320  3.1855 -0.2597
  165SAPE   C3618616   6.438   5.341   7.489  0.0540 -0.0759  0.3208
  165SAPE   H6X18617   6.456   5.232   7.480  1.4716  0.1946 -0.3233
  165SAPE   H6Y18618   6.334   5.376   7.473 -0.1253 -1.4196 -1.5266
  165SAPE   C3718619   6.470   5.379   7.640  0.2194  0.6722 -0.7259
  165SAPE   H7X18620   6.478   5.490   7.649  0.6951  0.6169 -0.4510
  165SAPE   H7Y18621   6.562   5.328   7.673 -0.5699  0.7129  1.6341
  165SAPE   C3818622   6.355   5.331   7.728  0.3888 -0.0414 -0.3959
  165SAPE   H8X18623   6.352   5.222   7.746 -0.2382 -0.2658 -1.7986
  165SAPE   H8Y18624   6.263   5.354   7.670  1.1544 -0.1112 -1.6494
  165SAPE   C3918625   6.349   5.415   7.862 -0.0734  0.3941  0.3041
  165SAPE   H9X18626   6.250   5.396   7.909  1.0580 -0.5673  2.3514
  165SAPE   H9Y18627   6.355   5.522   7.833  1.2303  0.7854  1.9676
  165SAPE  C31018628   6.460   5.366   7.959 -0.4846  0.2308 -0.6176
  165SAPE  H10X18629   6.561   5.403   7.930 -0.1695  0.5452  0.8425
  165SAPE  H10Y18630   6.450   5.255   7.953 -1.3356  0.3222 -0.9642
  165SAPE  C31118631   6.427   5.386   8.112  0.0006 -0.0022 -0.4625
  165SAPE  H11X18632   6.513   5.343   8.168  0.4408 -0.5344 -1.5328
  165SAPE  H11Y18633   6.332   5.332   8.133 -0.3807  1.8918  3.1048
  165SAPE  C31218634   6.416   5.530   8.153 -0.1904  0.3140  0.0325
  165SAPE  H12X18635   6.349   5.581   8.081 -1.4570 -1.0801  0.2032
  165SAPE  H12Y18636   6.515   5.579   8.142  0.3341 -1.1137 -1.7588
  165SAPE  C31318637   6.350   5.552   8.299  0.0768  0.9770  0.4478
  165SAPE  H13X18638   6.430   5.511   8.364  1.4499  3.1967  0.1780
  165SAPE  H13Y18639   6.258   5.489   8.293  0.1061  0.8604  1.2194
  165SAPE  C31418640   6.315   5.704   8.331 -0.3720  0.1930  0.3872
  165SAPE  H14X18641   6.231   5.739   8.267 -1.4619 -0.9876  1.1648
  165SAPE  H14Y18642   6.400   5.771   8.305 -2.5388  2.7094 -0.3981
  165SAPE  C31518643   6.286   5.726   8.479 -0.2091  0.3379  0.0684
  165SAPE  H15X18644   6.378   5.719   8.540  0.6122  2.0043 -0.9495
  165SAPE  H15Y18645   6.225   5.640   8.514 -0.0124 -1.1370 -3.0050
  165SAPE  C31618646   6.213   5.855   8.508 -0.2590  0.1305  0.1284
  165SAPE  H16X18647   6.143   5.871   8.423  1.1020 -0.8373 -1.2131
  165SAPE  H16Y18648   6.281   5.943   8.503 -1.5432  1.0649 -1.3091
  165SAPE  C31718649   6.121   5.855   8.632 -0.1379 -0.3130 -0.1280
  165SAPE  H17X18650   6.188   5.841   8.719 -0.4540 -0.4494  0.0983
  165SAPE  H17Y18651   6.057   5.764   8.621  1.0893 -1.4398  1.9380
  165SAPE  C31818652   6.035   5.982   8.644  0.1363  0.3780 -0.5362
  165SAPE  H18X18653   5.974   5.997   8.552  0.6322 -0.2538 -0.9759
  165SAPE  H18Y18654   6.105   6.067   8.661  1.3350 -0.9617  1.4936
  165SAPE  H18Z18655   5.960   5.975   8.725  0.9796  2.6854  0.4721
  166SAPE     N18656   0.210   1.619   6.035  0.4787  0.8194  0.2944
  166SAPE   HN118657   0.278   1.697   6.044  0.9336  0.2429  2.3877
  166SAPE   HN218658   0.149   1.637   6.118 -0.7509 -0.5754 -0.2907
  166SAPE   HN318659   0.242   1.521   6.047 -0.0065  0.8011  1.6135
  166SAPE   C1218660   0.153   1.612   5.900  0.2145  0.3726 -0.0401
  166SAPE  H12A18661   0.221   1.554   5.834  0.1353 -0.2641  0.4258
  166SAPE  H12B18662   0.141   1.717   5.866  0.4542  1.0614  1.9336
  166SAPE   C1118663  -0.001   1.554   5.900 -0.2608  0.6912  0.4109
  166SAPE  H11A18664  -0.004   1.446   5.926 -0.4514  0.2991 -1.2055
  166SAPE  H11B18665  -0.039   1.552   5.796  4.7076  1.0096 -1.5722
  166SAPE     P18666  -0.231   1.613   6.015 -0.1365  0.2040 -0.0812
  166SAPE   O1318667  -0.301   1.653   5.895  0.0909  0.3113  0.2374
  166SAPE   O1418668  -0.243   1.478   6.076 -0.4907  0.0290  0.3657
  166SAPE   O1218669  -0.078   1.639   5.995 -0.2194  0.2795 -0.0037
  166SAPE   O1118670  -0.269   1.715   6.128  0.2212 -0.5656  0.3830
  166SAPE    C118671  -0.241   1.852   6.107 -1.1778 -0.2214 -0.0051
  166SAPE    HA18672  -0.130   1.859   6.102 -1.0734 -1.4702  0.5367
  166SAPE    HB18673  -0.287   1.893   6.014  0.0280  0.6882 -0.2029
  166SAPE    C218674  -0.303   1.944   6.216 -0.0960  0.4475 -0.0753
  166SAPE    HS18675  -0.250   2.040   6.196  3.1344 -1.3819 -0.7337
  166SAPE   O2118676  -0.279   1.897   6.357 -0.2301  0.0080  0.1643
  166SAPE   C2118677  -0.159   1.898   6.400  0.0806 -0.9256  0.0902
  166SAPE   O2218678  -0.056   1.932   6.345 -0.4425  0.1171 -0.0791
  166SAPE   C2218679  -0.159   1.836   6.544 -0.4556  0.1313 -0.7753
  166SAPE   H2R18680  -0.243   1.765   6.555  0.6041 -1.0276  0.0009
  166SAPE   H2S18681  -0.069   1.773   6.562 -1.1729 -1.3425 -2.1391
  166SAPE    C318682  -0.460   1.952   6.203  0.1226 -0.4044  0.0782
  166SAPE    HX18683  -0.490   1.845   6.189 -1.4449 -0.0174  0.3270
  166SAPE    HY18684  -0.493   1.999   6.108 -0.7359  0.5141  0.8246
  166SAPE   O3118685  -0.523   2.007   6.322 -0.1347  0.0893  0.5588
  166SAPE   C3118686  -0.538   2.133   6.332  1.0501 -0.0452 -1.1955
  166SAPE   O3218687  -0.510   2.215   6.246  0.3143  0.1931 -0.0836
  166SAPE   C3218688  -0.612   2.159   6.462 -0.9898 -0.3362 -0.4069
  166SAPE   H2X18689  -0.558   2.108   6.545 -1.9135 -0.6233  0.0239
  166SAPE   H2Y18690  -0.713   2.115   6.449 -0.6252 -1.3657  0.1492
  166SAPE   C2318691  -0.171   1.951   6.649 -0.9817 -0.1818  0.3303
  166SAPE   H3R18692  -0.116   2.041   6.614 -1.3801  0.3717  1.1092
  166SAPE   H3S18693  -0.118   1.925   6.744  2.7155  1.3546 -1.1916
  166SAPE   C2418694  -0.320   1.989   6.678 -0.0929  0.1283 -0.5949
  166SAPE   H4R18695  -0.381   1.981   6.585  0.4232  1.8579 -1.1183
  166SAPE   H4S18696  -0.318   2.093   6.718  1.3312 -1.0412  2.4465
  166SAPE   C2518697  -0.391   1.900   6.782 -0.0496  0.3076 -0.0835
  166SAPE   H5R18698  -0.423   1.804   6.739 -1.7273  1.1735 -0.8338
  166SAPE   C2618699  -0.420   1.924   6.913  0.0825  0.1785 -0.5475
  166SAPE   H6R18700  -0.453   1.843   6.980  2.6588 -0.2858  0.2343
  166SAPE   C2718701  -0.386   2.046   6.996  0.4596 -0.2108 -0.1658
  166SAPE   H7R18702  -0.460   2.069   7.075 -1.7575  0.5170 -2.3747
  166SAPE   H7S18703  -0.373   2.136   6.932 -1.5377  1.2058  1.3431
  166SAPE   C2818704  -0.260   2.036   7.075 -0.0013 -0.5389 -0.1705
  166SAPE   H8R18705  -0.175   2.066   7.013  0.3728 -0.4607  0.3734
  166SAPE   C2918706  -0.245   1.988   7.201  0.6185  0.8848  0.3355
  166SAPE   H9R18707  -0.145   1.988   7.245  0.0807  0.1719  1.5896
  166SAPE  C21018708  -0.354   1.931   7.294  0.3302 -0.9683 -0.1418
  166SAPE  H10R18709  -0.329   1.832   7.337 -1.8344 -1.3844  0.2072
  166SAPE  H10S18710  -0.439   1.900   7.231 -0.6509 -0.4027  0.8872
  166SAPE  C21118711  -0.380   2.040   7.398 -0.5986 -1.2367 -0.2237
  166SAPE  H11R18712  -0.391   2.144   7.364  0.3277 -0.9384  0.3777
  166SAPE  C21218713  -0.390   2.031   7.530 -0.4431 -0.1146  0.0367
  166SAPE  H12R18714  -0.429   2.124   7.573 -1.5521 -1.6006  2.3587
  166SAPE  C21318715  -0.351   1.912   7.611 -0.1780  0.0357 -0.7015
  166SAPE  H13R18716  -0.252   1.941   7.653  0.0879 -1.7398 -0.0621
  166SAPE  H13S18717  -0.332   1.821   7.549 -0.4821 -1.2667  1.0605
  166SAPE  C21418718  -0.446   1.882   7.718 -0.4396 -0.3315 -0.4655
  166SAPE  H14R18719  -0.538   1.942   7.711 -0.1794  0.1657  0.3365
  166SAPE  C21518720  -0.427   1.783   7.809  1.2685 -0.0060 -0.1735
  166SAPE  H15R18721  -0.499   1.761   7.889  1.9053  1.7910  0.9388
  166SAPE  C21618722  -0.308   1.695   7.824 -0.1707 -0.6625  0.0910
  166SAPE  H16R18723  -0.229   1.737   7.757 -0.8180  0.5783  0.0748
  166SAPE  H16S18724  -0.334   1.593   7.788  1.4519 -1.1755  0.3460
  166SAPE  C21718725  -0.249   1.676   7.962 -0.0303 -0.0130 -0.4166
  166SAPE  H17R18726  -0.172   1.596   7.962 -0.1139 -0.0965  0.4121
  166SAPE  H17S18727  -0.328   1.633   8.027  0.4823  3.2100  2.4572
  166SAPE  C21818728  -0.202   1.809   8.016 -0.1564  0.3313 -0.1421
  166SAPE  H18R18729  -0.271   1.889   7.981 -1.5476 -1.1633 -0.8819
  166SAPE  H18S18730  -0.102   1.818   7.970  0.8519  0.4371  2.0235
  166SAPE  C21918731  -0.203   1.808   8.170 -0.0319  0.2584 -0.7392
  166SAPE  H19R18732  -0.307   1.804   8.208 -0.3467 -3.3995 -1.8526
  166SAPE  H19S18733  -0.161   1.907   8.199 -1.3091  0.5812  0.0797
  166SAPE  C22018734  -0.129   1.680   8.231 -0.7566 -0.5369 -0.2973
  166SAPE  H20R18735  -0.196   1.594   8.210  0.9476 -1.6844 -1.1093
  166SAPE  H20S18736  -0.122   1.699   8.340 -1.9362  0.2400 -0.3384
  166SAPE  H20T18737  -0.030   1.667   8.181  0.1260 -2.8615  1.9791
  166SAPE   C3318738  -0.627   2.310   6.494  0.4767  1.2174 -0.8996
  166SAPE   H3X18739  -0.664   2.371   6.408  2.1503  1.0725 -1.7451
  166SAPE   H3Y18740  -0.526   2.354   6.505  0.7546  0.5458 -0.7743
  166SAPE   C3418741  -0.712   2.334   6.618 -0.2053  0.0735 -0.4551
  166SAPE   H4X18742  -0.809   2.287   6.590  0.2194 -1.3494  0.3821
  166SAPE   H4Y18743  -0.715   2.444   6.636 -1.0883  0.1551 -1.0748
  166SAPE   C3518744  -0.669   2.249   6.732  0.0087  0.2833 -0.2834
  166SAPE   H5X18745  -0.566   2.283   6.752 -0.2037  0.2829  0.8403
  166SAPE   H5Y18746  -0.676   2.139   6.717 -0.5367  0.3010 -0.1662
  166SAPE   C3618747  -0.759   2.284   6.858  0.0060  0.0516 -0.0096
  166SAPE   H6X18748  -0.862   2.249   6.835  0.3803 -1.2132  0.1631
  166SAPE   H6Y18749  -0.765   2.392   6.880  0.5730  0.2180 -0.6580
  166SAPE   C3718750  -0.702   2.211   6.982 -0.2540 -0.1163  0.3485
  166SAPE   H7X18751  -0.607   2.263   7.009  1.0773 -1.8600 -0.8651
  166SAPE   H7Y18752  -0.672   2.109   6.950  1.7475  0.1662  1.2388
  166SAPE   C3818753  -0.801   2.220   7.100  0.4022  0.3932 -0.2127
  166SAPE   H8X18754  -0.891   2.168   7.061  0.2166  2.0940 -2.1719
  166SAPE   H8Y18755  -0.832   2.326   7.116 -1.0034 -0.4725  3.2669
  166SAPE   C3918756  -0.761   2.156   7.224 -0.0383  0.4354 -0.8732
  166SAPE   H9X18757  -0.664   2.198   7.258 -0.1648 -0.6975  0.9590
  166SAPE   H9Y18758  -0.737   2.049   7.205 -2.4619  0.2357 -3.0639
  166SAPE  C31018759  -0.856   2.169   7.338  0.6499 -0.3784  0.7854
  166SAPE  H10X18760  -0.951   2.120   7.309 -0.9200  3.0545 -0.0874
  166SAPE  H10Y18761  -0.880   2.276   7.360 -0.0400 -0.9249  2.8341
  166SAPE  C31118762  -0.806   2.113   7.469 -0.1899  0.1363  0.0182
  166SAPE  H11X18763  -0.702   2.139   7.497 -0.1346  0.5818 -0.5827
  166SAPE  H11Y18764  -0.805   2.002   7.469 -0.3043  0.0880  3.1936
  166SAPE  C31218765  -0.899   2.160   7.586  0.4648  0.1191 -0.0010
  166SAPE  H12X18766  -0.905   2.271   7.584 -0.1317  0.0995  0.5554
  166SAPE  H12Y18767  -0.851   2.135   7.684  0.4397  0.6225  0.1391
  166SAPE  C31318768  -1.042   2.105   7.581 -0.7097 -0.6224  0.3371
  166SAPE  H13X18769  -1.025   1.996   7.566  3.3368 -0.3482  2.2543
  166SAPE  H13Y18770  -1.103   2.154   7.502 -0.9732 -1.3515  0.0888
  166SAPE  C31418771  -1.126   2.110   7.713  0.3583 -0.1757 -0.1708
  166SAPE  H14X18772  -1.219   2.051   7.699  0.2578 -0.2745  0.9046
  166SAPE  H14Y18773  -1.153   2.218   7.717  0.0413 -0.2049 -1.4018
  166SAPE  C31518774  -1.068   2.063   7.851  0.1583 -0.8511  0.3140
  166SAPE  H15X18775  -0.982   1.996   7.827  1.1808  1.1381 -1.6807
  166SAPE  H15Y18776  -1.143   2.013   7.916 -2.3483  0.4356 -1.4977
  166SAPE  C31618777  -1.016   2.174   7.936 -0.4892  0.3124  0.2180
  166SAPE  H16X18778  -1.093   2.238   7.985 -1.4097  0.0480 -0.8647
  166SAPE  H16Y18779  -0.957   2.249   7.878  1.5011 -0.4675  1.1761
  166SAPE  C31718780  -0.934   2.119   8.046 -0.3538  0.1851 -1.5124
  166SAPE  H17X18781  -0.866   2.043   8.000 -0.1253  0.6539 -1.9619
  166SAPE  H17Y18782  -1.001   2.077   8.123  2.2765  1.3309  1.4949
  166SAPE  C31818783  -0.834   2.216   8.113 -0.5876 -0.7246  0.6080
  166SAPE  H18X18784  -0.766   2.262   8.039 -0.8039 -1.4161 -0.0425
  166SAPE  H18Y18785  -0.769   2.171   8.191 -0.4502  0.0556  0.9449
  166SAPE  H18Z18786  -0.892   2.300   8.157 -1.9456 -2.6247  2.5471
  167SAPE     N18787   0.764   2.146   6.223 -0.3215  0.3871  0.1253
  167SAPE   HN118788   0.851   2.196   6.248 -0.4393  0.2207  0.8929
  167SAPE   HN218789   0.688   2.217   6.226  0.7964  1.6493 -1.0778
  167SAPE   HN318790   0.746   2.075   6.297  2.1558 -0.9649 -0.5043
  167SAPE   C1218791   0.773   2.079   6.089 -0.2276  0.1830 -0.1253
  167SAPE  H12A18792   0.867   2.019   6.091 -1.2276 -1.4883 -1.7446
  167SAPE  H12B18793   0.790   2.158   6.013  0.0857 -0.0010 -0.2460
  167SAPE   C1118794   0.653   1.996   6.049 -0.0729 -0.0485  0.1362
  167SAPE  H11A18795   0.677   1.964   5.946 -1.2384 -1.8498  0.4092
  167SAPE  H11B18796   0.564   2.062   6.045  0.2509  0.3464 -0.6886
  167SAPE     P18797   0.547   1.763   6.090 -0.5062  0.2428  0.3241
  167SAPE   O1318798   0.401   1.794   6.112 -0.4012  0.8410  0.1543
  167SAPE   O1418799   0.594   1.709   5.964 -0.3668 -0.8410  0.2211
  167SAPE   O1218800   0.638   1.882   6.146 -0.5549 -0.2483 -0.7651
  167SAPE   O1118801   0.585   1.647   6.193  0.2673  0.3331  0.2233
  167SAPE    C118802   0.673   1.676   6.302 -0.6935  0.2801 -0.1472
  167SAPE    HA18803   0.769   1.626   6.279 -0.7187  0.7347 -1.2932
  167SAPE    HB18804   0.679   1.783   6.332 -1.1955  1.0385 -2.6219
  167SAPE    C218805   0.647   1.603   6.441  0.9131 -0.0237 -0.1607
  167SAPE    HS18806   0.560   1.655   6.485  0.9724  0.7706 -0.9682
  167SAPE   O2118807   0.770   1.605   6.514  0.2891  0.4602  0.4039
  167SAPE   C2118808   0.815   1.716   6.571  0.0934 -0.3807  0.1581
  167SAPE   O2218809   0.762   1.825   6.562 -0.2496  0.6517 -0.2836
  167SAPE   C2218810   0.939   1.690   6.639 -0.8521 -0.4840 -0.2094
  167SAPE   H2R18811   1.010   1.642   6.569  1.4657  2.1412  0.2346
  167SAPE   H2S18812   0.979   1.791   6.662  2.0429 -1.8712  1.1317
  167SAPE    C318813   0.617   1.455   6.426  0.0294  0.0340 -0.4770
  167SAPE    HX18814   0.701   1.394   6.385 -0.2722 -0.0858 -0.9207
  167SAPE    HY18815   0.535   1.447   6.352  0.3495 -2.7984 -0.5969
  167SAPE   O3118816   0.576   1.397   6.550  0.6376  0.6833  0.2854
  167SAPE   C3118817   0.651   1.308   6.610 -0.7221 -0.1204 -0.0604
  167SAPE   O3218818   0.771   1.289   6.595  0.0695  0.5832 -0.8663
  167SAPE   C3218819   0.570   1.239   6.724  0.5180 -0.4930  0.2453
  167SAPE   H2X18820   0.494   1.181   6.668 -0.5338 -0.0741  1.2132
  167SAPE   H2Y18821   0.518   1.316   6.786 -1.0743 -2.7859  1.8134
  167SAPE   C2318822   0.931   1.605   6.764  0.9474 -0.2681  0.9033
  167SAPE   H3R18823   0.889   1.508   6.731 -1.2826  0.4260  1.6539
  167SAPE   H3S18824   0.857   1.656   6.829  0.2631  0.9545 -0.7912
  167SAPE   C2418825   1.069   1.594   6.826 -0.0581 -0.5044 -0.5138
  167SAPE   H4R18826   1.107   1.693   6.856 -0.1111 -0.9374  1.0424
  167SAPE   H4S18827   1.121   1.546   6.740 -0.0402  2.0876 -1.9766
  167SAPE   C2518828   1.064   1.495   6.943  0.7211 -0.4346  0.0450
  167SAPE   H5R18829   1.080   1.391   6.913  2.0478 -0.5714  1.1685
  167SAPE   C2618830   1.070   1.514   7.081  0.8184  0.0473 -0.5867
  167SAPE   H6R18831   1.050   1.430   7.150 -0.7920  1.2319  0.4221
  167SAPE   C2718832   1.090   1.652   7.144  0.0367  0.1845  0.5795
  167SAPE   H7R18833   1.159   1.707   7.076  1.2627  1.0691  2.5054
  167SAPE   H7S18834   1.153   1.628   7.232  1.1179  0.7684 -0.0201
  167SAPE   C2818835   0.971   1.728   7.190  1.1761  0.2175  0.0088
  167SAPE   H8R18836   0.893   1.756   7.118 -1.0468  1.1282  2.7037
  167SAPE   C2918837   0.948   1.787   7.309 -0.3934  0.1602 -0.1689
  167SAPE   H9R18838   0.857   1.841   7.338  0.2222  1.4577 -0.5937
  167SAPE  C21018839   1.057   1.781   7.414  0.0276 -0.3269  0.4969
  167SAPE  H10R18840   1.158   1.808   7.375  0.6777  0.6054  2.7725
  167SAPE  H10S18841   1.068   1.675   7.446 -0.9917  0.0666  2.2014
  167SAPE  C21118842   1.034   1.873   7.527 -0.3996  0.5361 -0.4324
  167SAPE  H11R18843   0.982   1.967   7.507 -1.5573  0.4387  1.9596
  167SAPE  C21218844   1.096   1.856   7.650  0.6393 -0.6112 -0.0987
  167SAPE  H12R18845   1.074   1.932   7.726 -1.3375 -1.4638  0.1964
  167SAPE  C21318846   1.191   1.745   7.694  0.3334 -0.4998 -0.3506
  167SAPE  H13R18847   1.296   1.780   7.694 -0.2582  1.3262 -0.9514
  167SAPE  H13S18848   1.185   1.661   7.622  0.9511 -0.6226 -0.2621
  167SAPE  C21418849   1.146   1.695   7.832 -0.0537  0.0571  0.1894
  167SAPE  H14R18850   1.104   1.595   7.816  0.0527 -0.0984  0.8662
  167SAPE  C21518851   1.171   1.739   7.952 -0.6332  0.0681 -0.5158
  167SAPE  H15R18852   1.132   1.689   8.042  1.1850  0.8000  0.7353
  167SAPE  C21618853   1.261   1.868   7.973  0.2140 -0.8597  0.6040
  167SAPE  H16R18854   1.261   1.914   7.872  4.6804  0.5149  1.1028
  167SAPE  H16S18855   1.366   1.842   8.000  0.9885 -0.8412 -2.1711
  167SAPE  C21718856   1.215   1.978   8.070 -0.1087  0.7958  0.4047
  167SAPE  H17R18857   1.105   1.969   8.064 -0.0314 -1.0555  1.4866
  167SAPE  H17S18858   1.244   2.078   8.031 -1.9752  1.5073  0.8206
  167SAPE  C21818859   1.250   1.940   8.218  0.0299 -0.1209 -0.2331
  167SAPE  H18R18860   1.251   1.830   8.237 -2.1851  0.2048  2.0691
  167SAPE  H18S18861   1.170   1.980   8.285  0.0601  2.0034 -1.4193
  167SAPE  C21918862   1.383   2.008   8.256 -0.2451  0.4306 -0.6910
  167SAPE  H19R18863   1.391   2.107   8.207  0.8327  0.8060  0.2152
  167SAPE  H19S18864   1.457   1.935   8.216  0.0942 -0.6933  1.8632
  167SAPE  C22018865   1.399   2.030   8.410 -0.1538  0.2388  0.1810
  167SAPE  H20R18866   1.502   2.061   8.439  0.2944 -1.0596  0.0301
  167SAPE  H20S18867   1.360   1.950   8.476 -0.5436 -0.3444 -0.7489
  167SAPE  H20T18868   1.347   2.126   8.431  0.7776  0.6535  0.6586
  167SAPE   C3318869   0.654   1.135   6.799  0.1357 -0.2060  0.4649
  167SAPE   H3X18870   0.701   1.076   6.718  2.7630 -0.7202  2.3041
  167SAPE   H3Y18871   0.588   1.060   6.848 -1.9427 -0.2701 -2.3069
  167SAPE   C3418872   0.748   1.201   6.902 -0.3273 -1.0498 -0.3870
  167SAPE   H4X18873   0.772   1.295   6.847 -0.7259 -1.1047 -0.6590
  167SAPE   H4Y18874   0.842   1.145   6.918  0.0571 -0.2286  0.2685
  167SAPE   C3518875   0.679   1.245   7.027  0.6557  0.3978 -0.5499
  167SAPE   H5X18876   0.641   1.161   7.088  0.1610  1.8539  1.2189
  167SAPE   H5Y18877   0.583   1.298   7.005  0.0040  1.1333  3.7053
  167SAPE   C3618878   0.764   1.343   7.102 -0.7508 -0.4225  0.3498
  167SAPE   H6X18879   0.792   1.425   7.033 -3.2152 -0.4088 -0.6948
  167SAPE   H6Y18880   0.849   1.281   7.138  1.6751  0.5299 -3.4708
  167SAPE   C3718881   0.690   1.424   7.215  0.1712 -0.1341 -0.0073
  167SAPE   H7X18882   0.584   1.436   7.185 -0.2304 -1.2427  0.9311
  167SAPE   H7Y18883   0.748   1.518   7.229  0.4016 -0.2673 -0.0762
  167SAPE   C3818884   0.688   1.344   7.347 -0.5451  0.6806 -0.4476
  167SAPE   H8X18885   0.789   1.314   7.382 -0.4633  0.1702 -1.1106
  167SAPE   H8Y18886   0.630   1.253   7.322  1.9696 -0.6691 -1.5752
  167SAPE   C3918887   0.621   1.416   7.461 -0.0056 -0.2930  0.7045
  167SAPE   H9X18888   0.591   1.347   7.543  4.2281 -2.5943  0.4708
  167SAPE   H9Y18889   0.523   1.453   7.424  2.2219  3.0520 -2.1665
  167SAPE  C31018890   0.705   1.529   7.509  0.4014 -0.6975  0.0265
  167SAPE  H10X18891   0.721   1.598   7.424 -2.3613  2.4728  1.9168
  167SAPE  H10Y18892   0.800   1.481   7.539 -0.2561 -1.4799  0.9070
  167SAPE  C31118893   0.642   1.603   7.629 -0.0140 -0.0659  0.1761
  167SAPE  H11X18894   0.608   1.530   7.706 -0.2363  0.8381  0.9466
  167SAPE  H11Y18895   0.547   1.650   7.596 -1.7445 -1.8256  2.4137
  167SAPE  C31218896   0.731   1.704   7.703  0.9857  0.2569  1.0814
  167SAPE  H12X18897   0.753   1.789   7.635  3.3460 -0.7733  0.5044
  167SAPE  H12Y18898   0.825   1.650   7.728  1.6240  0.9110  0.1038
  167SAPE  C31318899   0.666   1.755   7.823  0.5048 -0.3921 -0.6477
  167SAPE  H13X18900   0.640   1.668   7.888  0.2405  1.5072  1.8961
  167SAPE  H13Y18901   0.569   1.798   7.791 -0.1692 -2.0231 -0.8763
  167SAPE  C31418902   0.747   1.865   7.895 -0.4156 -0.0761  0.1687
  167SAPE  H14X18903   0.764   1.947   7.822 -1.7635  0.1986  0.1420
  167SAPE  H14Y18904   0.840   1.812   7.923  1.4433  3.1091  0.3374
  167SAPE  C31518905   0.673   1.935   8.005 -0.2320  0.2454 -0.9739
  167SAPE  H15X18906   0.619   1.860   8.066  0.1440  0.8354  0.1097
  167SAPE  H15Y18907   0.599   2.000   7.953 -0.7193 -0.0564 -0.6605
  167SAPE  C31618908   0.764   2.033   8.082 -0.3800 -0.0551  0.3297
  167SAPE  H16X18909   0.793   2.100   7.998 -3.4086  0.9716  0.0395
  167SAPE  H16Y18910   0.856   1.981   8.114 -0.5056 -0.8115 -0.5207
  167SAPE  C31718911   0.683   2.117   8.185 -0.2855  0.1855  0.1445
  167SAPE  H17X18912   0.581   2.150   8.154 -0.4644  2.3605  2.8353
  167SAPE  H17Y18913   0.739   2.209   8.212  1.1758  0.2602 -2.9149
  167SAPE  C31818914   0.657   2.039   8.321 -0.4239  0.6652  0.0102
  167SAPE  H18X18915   0.636   1.932   8.299 -2.0960  1.0082 -0.0639
  167SAPE  H18Y18916   0.567   2.082   8.370 -1.1748 -0.2043 -0.5882
  167SAPE  H18Z18917   0.747   2.048   8.386  0.3514  0.5170 -1.0221
  168SAPE     N18918   1.586   2.891   6.222 -0.5067 -0.2088 -0.0149
  168SAPE   HN118919   1.675   2.909   6.170 -1.0068 -1.2570 -1.2270
  168SAPE   HN218920   1.557   2.803   6.176 -0.2570  0.2318 -1.0350
  168SAPE   HN318921   1.517   2.967   6.206 -1.3454 -1.3123 -1.6614
  168SAPE   C1218922   1.611   2.865   6.362 -0.0519  0.0816 -0.3142
  168SAPE  H12A18923   1.707   2.809   6.362 -0.5856 -0.8523 -0.7364
  168SAPE  H12B18924   1.531   2.796   6.397 -0.0183 -0.3267 -1.0411
  168SAPE   C1118925   1.632   3.000   6.436  0.1636  0.1266  0.3530
  168SAPE  H11A18926   1.652   2.972   6.542 -0.8059  0.4558  0.6285
  168SAPE  H11B18927   1.543   3.066   6.432  0.2975  0.4029  1.5875
  168SAPE     P18928   1.777   3.218   6.437 -0.1371 -0.1095 -0.0766
  168SAPE   O1318929   1.901   3.262   6.370  0.6218 -0.4413 -0.2972
  168SAPE   O1418930   1.656   3.299   6.431  0.2591  0.4899  0.1251
  168SAPE   O1218931   1.741   3.070   6.375  0.1551 -0.5411 -0.0788
  168SAPE   O1118932   1.807   3.183   6.592  0.3249 -0.8936 -0.1488
  168SAPE    C118933   1.914   3.105   6.627  0.2368 -0.4592 -0.1704
  168SAPE    HA18934   1.969   3.071   6.537  0.9920 -2.1680  0.8987
  168SAPE    HB18935   1.984   3.163   6.690  1.4512  0.5287 -2.4022
  168SAPE    C218936   1.876   2.976   6.710 -0.0875 -0.0330  0.5273
  168SAPE    HS18937   1.790   2.923   6.663  0.5701 -0.4700 -0.1974
  168SAPE   O2118938   1.830   3.010   6.842  0.4809  0.3208 -0.2803
  168SAPE   C2118939   1.735   2.926   6.897  0.8015  0.0282 -0.0412
  168SAPE   O2218940   1.677   2.835   6.851  0.5308  0.0929  0.0620
  168SAPE   C2218941   1.735   2.966   7.042 -0.0577  0.0439  0.0880
  168SAPE   H2R18942   1.836   2.943   7.081  0.3404  1.2010 -0.2644
  168SAPE   H2S18943   1.711   3.074   7.045  1.7548  0.4351  3.9030
  168SAPE    C318944   1.985   2.876   6.715 -0.9356 -0.0835 -0.2688
  168SAPE    HX18945   2.005   2.855   6.608  1.5561 -1.5382  0.4471
  168SAPE    HY18946   1.952   2.790   6.778  0.2112 -0.6348 -0.4136
  168SAPE   O3118947   2.104   2.942   6.773  0.6971 -0.4125  0.2054
  168SAPE   C3118948   2.129   2.913   6.899  0.0113  0.1610 -0.3710
  168SAPE   O3218949   2.070   2.826   6.964  0.0886 -0.1593 -0.1731
  168SAPE   C3218950   2.259   2.980   6.944  0.0033 -0.6745  0.0790
  168SAPE   H2X18951   2.243   3.088   6.926  1.3146 -0.2625  1.2869
  168SAPE   H2Y18952   2.341   2.952   6.874  0.5908  0.8457  0.1416
  168SAPE   C2318953   1.626   2.888   7.122  0.7192 -0.1987  0.1760
  168SAPE   H3R18954   1.640   2.778   7.118 -1.6030 -0.4799 -0.8273
  168SAPE   H3S18955   1.525   2.893   7.076  0.2142 -3.5431  0.7927
  168SAPE   C2418956   1.632   2.948   7.261  0.9462 -0.3907 -0.3325
  168SAPE   H4R18957   1.543   2.913   7.319  1.1765 -0.9967 -0.3420
  168SAPE   H4S18958   1.618   3.058   7.257 -1.5330 -0.6198  1.0165
  168SAPE   C2518959   1.756   2.915   7.342 -0.2449 -0.3887  0.4814
  168SAPE   H5R18960   1.847   2.969   7.312  0.8516 -1.2994  2.0792
  168SAPE   C2618961   1.760   2.828   7.452 -0.0219 -0.0763 -0.1518
  168SAPE   H6R18962   1.848   2.835   7.519 -0.2108 -2.9638  0.4879
  168SAPE   C2718963   1.648   2.748   7.508 -0.3654  0.1281 -0.1534
  168SAPE   H7R18964   1.548   2.792   7.488  0.6130  2.6703  0.4040
  168SAPE   H7S18965   1.648   2.753   7.619  0.6795  2.3293 -0.2210
  168SAPE   C2818966   1.662   2.605   7.464  0.2784  0.7926  0.8679
  168SAPE   H8R18967   1.604   2.578   7.375  0.1043  0.1973  1.1591
  168SAPE   C2918968   1.729   2.505   7.525 -0.7089 -0.8544  0.2388
  168SAPE   H9R18969   1.745   2.409   7.472 -1.9519 -0.0901 -1.5811
  168SAPE  C21018970   1.796   2.515   7.664 -0.4573 -0.0962  0.8645
  168SAPE  H10R18971   1.717   2.464   7.724  1.5121 -1.1622  2.6481
  168SAPE  H10S18972   1.806   2.618   7.704  2.7093 -0.2877  0.7104
  168SAPE  C21118973   1.928   2.436   7.675  0.1822  0.0753  0.2606
  168SAPE  H11R18974   1.916   2.344   7.615  1.2565  0.8408 -1.1556
  168SAPE  C21218975   2.052   2.475   7.726 -0.4107 -0.1084 -0.1937
  168SAPE  H12R18976   2.133   2.401   7.718 -1.5654 -1.3923 -0.2220
  168SAPE  C21318977   2.084   2.604   7.795  0.8473 -0.0248 -0.2694
  168SAPE  H13R18978   2.071   2.687   7.722 -3.0159 -1.5533 -1.4029
  168SAPE  H13S18979   2.194   2.602   7.813  0.9528 -1.1482 -0.9934
  168SAPE  C21418980   2.000   2.643   7.912  0.4029  0.4173 -0.2173
  168SAPE  H14R18981   1.905   2.693   7.887  0.7260  0.5941 -1.1141
  168SAPE  C21518982   2.029   2.622   8.045 -0.3928 -0.1749  0.0742
  168SAPE  H15R18983   1.957   2.643   8.125 -0.5416  0.4584 -0.2173
  168SAPE  C21618984   2.148   2.552   8.105 -0.5990  0.0311  0.0774
  168SAPE  H16R18985   2.236   2.548   8.037 -0.2057 -0.4679  0.6135
  168SAPE  H16S18986   2.114   2.449   8.128  3.7653 -1.1997  1.4480
  168SAPE  C21718987   2.192   2.603   8.244 -0.2356  0.1520  0.3668
  168SAPE  H17R18988   2.102   2.626   8.305  0.1133  0.7378  0.6694
  168SAPE  H17S18989   2.244   2.701   8.234  1.2420 -0.5709  0.8136
  168SAPE  C21818990   2.281   2.506   8.324  0.5441  0.2008  0.1588
  168SAPE  H18R18991   2.349   2.581   8.370 -0.0296  0.4839  0.5649
  168SAPE  H18S18992   2.341   2.440   8.258  0.9435  1.7364 -1.0369
  168SAPE  C21918993   2.211   2.421   8.432  0.6038 -0.4510  0.2373
  168SAPE  H19R18994   2.125   2.371   8.382 -0.1599  0.9050  0.1863
  168SAPE  H19S18995   2.160   2.489   8.504 -1.6571 -2.7448  0.8964
  168SAPE  C22018996   2.303   2.328   8.502 -0.2307 -0.3435 -0.1769
  168SAPE  H20R18997   2.258   2.284   8.594  1.8792 -0.3738  0.8739
  168SAPE  H20S18998   2.396   2.379   8.536  0.8436 -2.2700 -0.1124
  168SAPE  H20T18999   2.328   2.241   8.437  2.4464  0.7376 -0.6736
  168SAPE   C3319000   2.291   2.946   7.084  0.4282 -0.7129 -0.8041
  168SAPE   H3X19001   2.390   2.989   7.111  1.5782 -3.5069 -0.4084
  168SAPE   H3Y19002   2.280   2.836   7.097 -1.5519 -0.5494 -1.0422
  168SAPE   C3419003   2.188   3.002   7.187  0.1913 -0.0948 -0.5307
  168SAPE   H4X19004   2.094   2.945   7.178 -0.6606  0.9938  1.1109
  168SAPE   H4Y19005   2.159   3.109   7.181 -0.3599 -0.1305  1.2137
  168SAPE   C3519006   2.253   2.987   7.330 -0.2715 -0.5921  0.0170
  168SAPE   H5X19007   2.330   3.066   7.345 -0.3754 -0.7667  1.5509
  168SAPE   H5Y19008   2.298   2.888   7.353  2.0331  0.8563  2.0135
  168SAPE   C3619009   2.149   3.005   7.449 -0.0180 -0.5246 -0.2763
  168SAPE   H6X19010   2.055   2.956   7.418 -0.4022 -0.6293  1.0169
  168SAPE   H6Y19011   2.132   3.115   7.451  1.8307 -0.1366 -2.8681
  168SAPE   C3719012   2.195   2.940   7.585  0.1447  0.2806  0.7646
  168SAPE   H7X19013   2.305   2.953   7.594  0.0551  1.9966 -0.3757
  168SAPE   H7Y19014   2.159   2.835   7.588  0.6425  0.0872  0.1888
  168SAPE   C3819015   2.142   3.018   7.698  0.1192 -0.2081  1.1387
  168SAPE   H8X19016   2.037   2.989   7.723 -0.6178  1.7550  0.4800
  168SAPE   H8Y19017   2.156   3.126   7.677 -0.6423 -0.1882  0.6929
  168SAPE   C3919018   2.212   2.974   7.830 -0.1336 -0.0201  0.7369
  168SAPE   H9X19019   2.321   2.976   7.809 -0.4287 -1.1184 -0.9854
  168SAPE   H9Y19020   2.182   2.868   7.844  1.9516 -0.6279  0.6471
  168SAPE  C31019021   2.171   3.048   7.955  0.8633  0.6750 -0.0488
  168SAPE  H10X19022   2.061   3.058   7.942  0.7039  0.7307  1.3233
  168SAPE  H10Y19023   2.207   3.154   7.959  1.6942  0.3458  1.8581
  168SAPE  C31119024   2.196   2.960   8.082  0.2272 -0.5167  0.0618
  168SAPE  H11X19025   2.306   2.971   8.097  0.7718 -0.3516 -3.5937
  168SAPE  H11Y19026   2.165   2.854   8.081  0.3997 -0.5665 -2.1038
  168SAPE  C31219027   2.122   3.024   8.209 -0.5859  0.1907  0.3142
  168SAPE  H12X19028   2.130   3.134   8.202  0.8140  0.0227 -1.1090
  168SAPE  H12Y19029   2.177   2.980   8.295  0.0410  0.2734 -0.0415
  168SAPE  C31319030   1.976   2.975   8.209  0.2127 -0.3467 -0.1837
  168SAPE  H13X19031   1.983   2.864   8.212  2.9493 -0.2163 -0.8112
  168SAPE  H13Y19032   1.926   3.017   8.118 -0.0845 -1.8616 -0.7279
  168SAPE  C31419033   1.895   3.014   8.329  0.0854  0.4015 -0.6227
  168SAPE  H14X19034   1.787   2.988   8.322  0.6032 -2.0878  0.3127
  168SAPE  H14Y19035   1.887   3.125   8.339  1.1787  0.4788 -0.5554
  168SAPE  C31519036   1.952   2.945   8.463  0.3477  0.2644  0.2891
  168SAPE  H15X19037   1.897   2.989   8.549  1.1322  3.7852 -0.9147
  168SAPE  H15Y19038   2.060   2.972   8.466  0.4584 -0.0721 -0.6566
  168SAPE  C31619039   1.939   2.789   8.482  0.7259  0.1050 -0.5109
  168SAPE  H16X19040   2.027   2.757   8.543 -0.9343 -1.0818  1.3451
  168SAPE  H16Y19041   1.935   2.745   8.380  1.1929 -1.0996 -0.0275
  168SAPE  C31719042   1.805   2.758   8.553  0.0783 -0.0135 -0.6381
  168SAPE  H17X19043   1.812   2.825   8.641  0.9774 -1.6487  0.5801
  168SAPE  H17Y19044   1.795   2.650   8.580  0.1882 -0.1742 -1.2468
  168SAPE  C31819045   1.675   2.789   8.474  0.0279 -0.4864 -0.9064
  168SAPE  H18X19046   1.583   2.754   8.526  1.4539  0.5558  2.4391
  168SAPE  H18Y19047   1.683   2.733   8.378 -0.9263  1.0872 -1.9237
  168SAPE  H18Z19048   1.678   2.899   8.462 -1.1801  0.0113  2.7594
  169SAPE     N19049   0.919   5.138   5.995  0.1343  0.6090  0.1447
  169SAPE   HN119050   0.842   5.146   5.926  1.0710 -2.2898 -1.2986
  169SAPE   HN219051   0.919   5.037   6.020 -0.8348  0.6264  0.2249
  169SAPE   HN319052   0.906   5.184   6.088  2.7732  1.1253  0.2964
  169SAPE   C1219053   1.047   5.179   5.914 -0.3840 -0.5105 -0.3411
  169SAPE  H12A19054   1.061   5.289   5.900  3.3213 -0.8775 -0.0454
  169SAPE  H12B19055   1.033   5.144   5.809  0.0402  1.9073 -1.2521
  169SAPE   C1119056   1.169   5.119   5.982 -0.2879 -1.2959 -0.0256
  169SAPE  H11A19057   1.259   5.160   5.932  0.4197  1.6413  3.4281
  169SAPE  H11B19058   1.160   5.009   5.965  0.2156 -1.3243 -0.1178
  169SAPE     P19059   1.307   5.138   6.196 -0.3428  0.3392  0.2489
  169SAPE   O1319060   1.415   5.073   6.118  0.0908  0.0450  1.0059
  169SAPE   O1419061   1.324   5.272   6.254 -0.4698 -0.1557 -0.2794
  169SAPE   O1219062   1.171   5.153   6.115  0.1210  0.2122 -0.5817
  169SAPE   O1119063   1.262   5.038   6.308  0.1988 -0.4571 -0.3884
  169SAPE    C119064   1.153   5.062   6.402  0.1294  0.2691 -0.1362
  169SAPE    HA19065   1.070   5.100   6.339  1.6413  2.2632 -0.9777
  169SAPE    HB19066   1.136   4.958   6.438 -0.0531  0.1283 -0.6330
  169SAPE    C219067   1.195   5.156   6.525  1.0957 -0.3182  0.3008
  169SAPE    HS19068   1.224   5.256   6.487  1.9871 -0.0106  1.7508
  169SAPE   O2119069   1.312   5.094   6.572  0.2159 -0.1066 -0.4250
  169SAPE   C2119070   1.388   5.181   6.637 -0.1627 -0.2812 -0.4254
  169SAPE   O2219071   1.363   5.299   6.642 -0.1945  0.2656  0.0566
  169SAPE   C2219072   1.519   5.113   6.680  1.1378 -0.3331  0.3178
  169SAPE   H2R19073   1.509   5.003   6.673 -1.1835 -0.3004  2.6071
  169SAPE   H2S19074   1.592   5.160   6.610 -1.9109  2.7201 -0.9803
  169SAPE    C319075   1.086   5.142   6.630  0.4769 -0.9174 -0.1611
  169SAPE    HX19076   0.990   5.163   6.579  1.5500 -1.5685 -2.5242
  169SAPE    HY19077   1.094   5.209   6.718  0.5274 -0.1214 -0.7711
  169SAPE   O3119078   1.076   5.005   6.674  0.0697 -0.2503 -0.2382
  169SAPE   C3119079   1.149   4.966   6.777  0.2503 -0.2206  0.4250
  169SAPE   O3219080   1.206   5.040   6.852 -0.1223 -0.4445  0.3991
  169SAPE   C3219081   1.148   4.814   6.783 -0.3638 -0.2483 -0.2733
  169SAPE   H2X19082   1.214   4.782   6.700 -0.3293 -0.0202 -0.3352
  169SAPE   H2Y19083   1.046   4.773   6.767 -0.8755 -0.0182  2.1489
  169SAPE   C2319084   1.555   5.141   6.828  0.2576 -0.4635 -0.4204
  169SAPE   H3R19085   1.559   5.042   6.879 -1.6742 -1.3086 -1.8847
  169SAPE   H3S19086   1.473   5.197   6.877 -1.6999 -1.7717 -2.1348
  169SAPE   C2419087   1.696   5.206   6.863  1.3273  0.5593  0.1660
  169SAPE   H4R19088   1.687   5.310   6.824 -0.2470 -0.4002 -2.1530
  169SAPE   H4S19089   1.757   5.142   6.796 -0.5462 -1.6591  0.4935
  169SAPE   C2519090   1.724   5.199   7.014  0.1002 -0.3877 -0.2978
  169SAPE   H5R19091   1.635   5.223   7.074 -0.2518 -0.5464 -0.7560
  169SAPE   C2619092   1.841   5.163   7.073  0.5943 -0.4334 -0.2688
  169SAPE   H6R19093   1.858   5.178   7.181  2.6340  0.0438 -0.6323
  169SAPE   C2719094   1.970   5.117   7.011 -0.8326 -0.0424  0.3369
  169SAPE   H7R19095   2.047   5.187   7.049 -1.2349  0.0237  1.0294
  169SAPE   H7S19096   1.963   5.135   6.901  0.5580  2.2834  0.5917
  169SAPE   C2819097   1.992   4.971   7.042 -0.0339 -0.8424 -0.2018
  169SAPE   H8R19098   1.954   4.898   6.970  1.0868 -1.6546  0.0221
  169SAPE   C2919099   2.059   4.924   7.149 -0.5069  0.7870  0.2935
  169SAPE   H9R19100   2.067   4.814   7.154  1.1832  0.8969  0.3883
  169SAPE  C21019101   2.130   4.984   7.267 -0.0484 -0.6807 -0.3081
  169SAPE  H10R19102   2.048   5.013   7.336  0.5304 -0.8379  0.4454
  169SAPE  H10S19103   2.163   5.086   7.238 -0.5809 -1.1117 -2.5360
  169SAPE  C21119104   2.234   4.898   7.335  0.2418 -0.3357 -0.0371
  169SAPE  H11R19105   2.325   4.882   7.277  0.9564 -0.6995  1.1567
  169SAPE  C21219106   2.223   4.842   7.457  0.8040  1.1187 -0.5024
  169SAPE  H12R19107   2.301   4.776   7.496 -0.6190  0.0264  0.5271
  169SAPE  C21319108   2.099   4.844   7.547  0.4626  0.3292 -0.7984
  169SAPE  H13R19109   2.063   4.743   7.576 -0.3104  0.5254 -1.0782
  169SAPE  H13S19110   2.007   4.886   7.501 -0.8127 -0.9173  0.5451
  169SAPE  C21419111   2.127   4.930   7.666 -0.1381 -0.4272 -0.1666
  169SAPE  H14R19112   2.088   5.033   7.664 -2.5759 -1.3285 -0.6007
  169SAPE  C21519113   2.192   4.894   7.777 -0.0537  0.2969  0.2914
  169SAPE  H15R19114   2.205   4.969   7.857 -1.2362  2.0977 -1.1587
  169SAPE  C21619115   2.247   4.758   7.806 -0.7764  0.2257  0.7533
  169SAPE  H16R19116   2.339   4.779   7.865 -0.2994 -1.1439  0.5322
  169SAPE  H16S19117   2.280   4.709   7.712 -2.1412  0.3366  0.2132
  169SAPE  C21719118   2.165   4.664   7.886 -0.7068 -0.6236 -0.3573
  169SAPE  H17R19119   2.229   4.573   7.883 -0.3266 -0.4580  1.8441
  169SAPE  H17S19120   2.069   4.625   7.845 -0.2749 -2.0920 -0.0230
  169SAPE  C21819121   2.139   4.690   8.035 -0.2313 -0.0350  0.0924
  169SAPE  H18R19122   2.231   4.704   8.095 -1.2327 -0.9997  1.8868
  169SAPE  H18S19123   2.097   4.603   8.090  0.1271  1.4377  2.8053
  169SAPE  C21919124   2.044   4.807   8.064 -0.1259 -0.3457 -0.0388
  169SAPE  H19R19125   1.952   4.783   8.006 -0.3933 -0.2350  0.3391
  169SAPE  H19S19126   2.081   4.908   8.036  2.0952  0.0349  4.0074
  169SAPE  C22019127   2.008   4.815   8.211  0.2142 -0.4040  0.4129
  169SAPE  H20R19128   2.012   4.714   8.255  1.5578 -0.4676  0.1648
  169SAPE  H20S19129   1.911   4.867   8.228  1.2675  2.0942 -0.8345
  169SAPE  H20T19130   2.083   4.876   8.266  0.5468 -0.0118 -0.4515
  169SAPE   C3319131   1.199   4.762   6.921 -0.1087  0.3010  0.2537
  169SAPE   H3X19132   1.291   4.822   6.931  0.8815 -0.9819 -0.9834
  169SAPE   H3Y19133   1.221   4.653   6.913  2.1524  0.9083 -2.7486
  169SAPE   C3419134   1.105   4.773   7.037 -0.2620 -0.5291 -0.4609
  169SAPE   H4X19135   1.037   4.685   7.044 -1.6855  0.6519  0.6908
  169SAPE   H4Y19136   1.038   4.858   7.016 -0.9243 -0.5508  1.4917
  169SAPE   C3519137   1.169   4.800   7.171 -0.2415  0.2086 -0.2682
  169SAPE   H5X19138   1.221   4.897   7.161 -1.2147  0.8085  0.4842
  169SAPE   H5Y19139   1.241   4.718   7.191 -0.1300  0.4948  0.4866
  169SAPE   C3619140   1.068   4.815   7.287 -0.1971  0.0016  0.0710
  169SAPE   H6X19141   0.998   4.729   7.291 -0.6793  0.4177  0.8919
  169SAPE   H6Y19142   1.020   4.914   7.271  0.2256  0.4040  1.2410
  169SAPE   C3719143   1.152   4.838   7.417 -0.2819 -0.0827 -0.5889
  169SAPE   H7X19144   1.101   4.897   7.497  1.4108 -0.8957  1.1352
  169SAPE   H7Y19145   1.251   4.883   7.393 -0.4871 -0.5351 -2.3089
  169SAPE   C3819146   1.161   4.717   7.511  0.1565 -0.1157 -0.4065
  169SAPE   H8X19147   1.220   4.640   7.457  0.8213  0.7266 -0.8973
  169SAPE   H8Y19148   1.061   4.675   7.533  0.0359  0.1412 -0.4637
  169SAPE   C3919149   1.233   4.749   7.649  0.3148  0.2346  0.0895
  169SAPE   H9X19150   1.307   4.832   7.644 -0.0625  0.6884  1.7052
  169SAPE   H9Y19151   1.284   4.657   7.685 -0.6373  0.6606  2.6485
  169SAPE  C31019152   1.132   4.790   7.757  0.0255  0.0704 -0.2315
  169SAPE  H10X19153   1.045   4.721   7.751  1.3422 -1.8158  1.7558
  169SAPE  H10Y19154   1.102   4.895   7.734  1.6450  0.0485 -2.6813
  169SAPE  C31119155   1.193   4.790   7.896  0.7534  0.4867  0.0751
  169SAPE  H11X19156   1.296   4.832   7.897  1.1034 -0.3458  2.3072
  169SAPE  H11Y19157   1.213   4.682   7.916  0.0120 -0.1756 -2.5478
  169SAPE  C31219158   1.094   4.834   8.007 -0.3841  0.4200  0.5537
  169SAPE  H12X19159   0.998   4.780   7.987 -0.7486  1.3345 -0.2217
  169SAPE  H12Y19160   1.054   4.936   7.987  1.5019  1.6037  2.5652
  169SAPE  C31319161   1.142   4.818   8.154  0.3642  0.1383  0.1690
  169SAPE  H13X19162   1.229   4.887   8.159 -0.2202  0.8450  0.7732
  169SAPE  H13Y19163   1.162   4.712   8.181 -3.5908 -0.9135 -0.6088
  169SAPE  C31419164   1.051   4.878   8.256 -0.0932  0.6229  0.6269
  169SAPE  H14X19165   0.989   4.957   8.207  1.0321  0.9502 -0.3020
  169SAPE  H14Y19166   1.115   4.917   8.338  0.0282  2.0856 -0.1322
  169SAPE  C31519167   0.967   4.772   8.327 -0.2435 -0.2880 -0.3487
  169SAPE  H15X19168   1.037   4.691   8.357  0.3865  0.1760 -0.5542
  169SAPE  H15Y19169   0.909   4.727   8.243 -2.1519  0.7476  0.4091
  169SAPE  C31619170   0.879   4.819   8.445 -0.7554 -0.1028  0.7369
  169SAPE  H16X19171   0.828   4.730   8.486  0.9795 -0.7760  1.5005
  169SAPE  H16Y19172   0.804   4.893   8.411 -0.4178  0.4384  1.1492
  169SAPE  C31719173   0.962   4.862   8.575 -0.3369  0.7621  0.5690
  169SAPE  H17X19174   1.039   4.939   8.555  0.2123  0.1873  0.4504
  169SAPE  H17Y19175   1.007   4.767   8.610  0.1642  1.0264  0.6431
  169SAPE  C31819176   0.868   4.901   8.685 -0.1275  0.4709 -0.0348
  169SAPE  H18X19177   0.923   4.883   8.780 -1.9118  0.0293  0.9461
  169SAPE  H18Y19178   0.790   4.822   8.677  0.9418 -0.4424 -1.5457
  169SAPE  H18Z19179   0.837   5.007   8.676 -0.4252  0.5315  1.5301
  170SAPE     N19180   2.773   2.433   6.287  0.4227 -0.2055 -0.5665
  170SAPE   HN119181   2.850   2.401   6.349  1.1317  1.5336 -0.4975
  170SAPE   HN219182   2.761   2.359   6.215  0.2783 -1.7210  1.0028
  170SAPE   HN319183   2.791   2.527   6.246 -0.7513 -0.5867 -1.9882
  170SAPE   C1219184   2.638   2.437   6.348  0.0609  0.0635 -0.5849
  170SAPE  H12A19185   2.582   2.505   6.280  2.8475  3.3542  0.2708
  170SAPE  H12B19186   2.641   2.486   6.447 -3.2142 -1.8296  0.5435
  170SAPE   C1119187   2.567   2.301   6.334  0.2469  0.2149  0.3059
  170SAPE  H11A19188   2.466   2.315   6.378 -0.3059  1.4232 -1.3358
  170SAPE  H11B19189   2.621   2.222   6.391 -0.1774 -0.4125 -0.1473
  170SAPE     P19190   2.442   2.171   6.143 -0.0530  0.3877 -0.0296
  170SAPE   O1319191   2.351   2.241   6.059 -0.0426  0.0274  0.3187
  170SAPE   O1419192   2.506   2.046   6.089  0.1174  0.3511  0.1934
  170SAPE   O1219193   2.563   2.271   6.192  0.5118 -0.0249  0.1576
  170SAPE   O1119194   2.371   2.135   6.279  0.0693  0.2826 -0.2038
  170SAPE    C119195   2.223   2.138   6.295  0.2978 -0.0691  0.5987
  170SAPE    HA19196   2.157   2.123   6.206 -2.2840 -1.0317  2.6064
  170SAPE    HB19197   2.205   2.049   6.360 -0.9286  0.3476  0.8329
  170SAPE    C219198   2.186   2.278   6.364 -0.6124  0.0162  0.0424
  170SAPE    HS19199   2.221   2.355   6.292  1.2132 -0.8996 -0.0970
  170SAPE   O2119200   2.243   2.296   6.491 -0.7251  0.1088  0.6683
  170SAPE   C2119201   2.238   2.419   6.541 -0.7974 -0.1423  0.8989
  170SAPE   O2219202   2.207   2.520   6.477  0.0909  0.0038  0.1699
  170SAPE   C2219203   2.297   2.423   6.677  0.0356  0.4350 -0.1213
  170SAPE   H2R19204   2.222   2.373   6.742 -0.1649  0.6545 -0.1821
  170SAPE   H2S19205   2.381   2.351   6.682 -0.5317 -0.0239  3.7472
  170SAPE    C319206   2.036   2.276   6.383 -0.4157  0.1249  0.2088
  170SAPE    HX19207   1.991   2.260   6.283  0.9085  0.4122 -0.4406
  170SAPE    HY19208   1.984   2.367   6.420 -0.4585 -0.0569  0.6031
  170SAPE   O3119209   1.992   2.162   6.459  0.6094 -0.0110  0.0602
  170SAPE   C3119210   1.986   2.187   6.590  0.1768  0.6213 -0.6131
  170SAPE   O3219211   1.988   2.291   6.650  0.1876  0.4313 -0.2479
  170SAPE   C3219212   1.956   2.059   6.675  0.3476 -0.0268 -0.8810
  170SAPE   H2X19213   2.034   1.980   6.671  0.0346 -0.4586  1.0435
  170SAPE   H2Y19214   1.864   2.009   6.639 -0.7991  2.3918 -1.4185
  170SAPE   C2319215   2.340   2.556   6.733 -0.5664 -0.5042 -0.3533
  170SAPE   H3R19216   2.347   2.523   6.839  0.0044 -2.0810 -0.8689
  170SAPE   H3S19217   2.267   2.640   6.730  1.7007  1.7637  3.4735
  170SAPE   C2419218   2.480   2.605   6.694 -0.1392  0.3376 -0.8667
  170SAPE   H4R19219   2.490   2.597   6.583  1.2539 -2.2280 -0.6042
  170SAPE   H4S19220   2.553   2.532   6.736 -1.6826 -1.6167 -1.4708
  170SAPE   C2519221   2.520   2.749   6.731 -0.1816  0.5112  0.0547
  170SAPE   H5R19222   2.481   2.831   6.669  1.3359  1.1691 -0.0504
  170SAPE   C2619223   2.598   2.776   6.838  0.2291 -0.1880 -0.0578
  170SAPE   H6R19224   2.624   2.881   6.853 -1.6987  0.4984 -1.3061
  170SAPE   C2719225   2.647   2.678   6.948 -1.0330  0.0861 -0.3377
  170SAPE   H7R19226   2.757   2.685   6.940 -1.0854  1.2042 -0.2131
  170SAPE   H7S19227   2.626   2.570   6.936 -0.3792 -0.0414 -0.3077
  170SAPE   C2819228   2.590   2.723   7.082  0.4332 -0.3566 -0.1477
  170SAPE   H8R19229   2.481   2.711   7.096  0.3574  1.4833  0.9451
  170SAPE   C2919230   2.651   2.788   7.190 -0.2037  0.4482 -0.0809
  170SAPE   H9R19231   2.588   2.811   7.278  1.0634  0.2220  0.8945
  170SAPE  C21019232   2.792   2.826   7.204 -0.0012  0.1752  0.5030
  170SAPE  H10R19233   2.860   2.739   7.219  2.4331  2.2221  1.8292
  170SAPE  H10S19234   2.808   2.892   7.292 -0.5260 -1.3962  1.7818
  170SAPE  C21119235   2.837   2.908   7.087 -0.8851  1.0576 -0.5921
  170SAPE  H11R19236   2.765   2.913   7.004 -0.0829 -0.1252 -1.3749
  170SAPE  C21219237   2.937   2.991   7.069 -0.6131 -0.0684 -0.0192
  170SAPE  H12R19238   2.961   3.040   6.973  2.0096  2.5284  1.8727
  170SAPE  C21319239   3.043   3.025   7.164 -0.2312 -1.1681 -0.4557
  170SAPE  H13R19240   3.138   3.008   7.109 -0.2189  0.6276 -1.0277
  170SAPE  H13S19241   3.044   2.959   7.253  0.5118 -1.5540 -0.7525
  170SAPE  C21419242   3.043   3.166   7.203 -0.0436  0.1007  0.4838
  170SAPE  H14R19243   3.015   3.233   7.121 -0.2972 -0.8774 -0.2335
  170SAPE  C21519244   3.054   3.217   7.326 -0.3585 -0.4754 -0.2419
  170SAPE  H15R19245   3.044   3.326   7.335  5.1971  0.2884 -2.0094
  170SAPE  C21619246   3.067   3.143   7.458  0.3093 -0.0147  0.4066
  170SAPE  H16R19247   3.137   3.060   7.437  1.5854  1.0154  0.5278
  170SAPE  H16S19248   2.965   3.106   7.478 -0.2973  1.8549  0.9313
  170SAPE  C21719249   3.108   3.244   7.570  0.6538 -0.1837  1.0008
  170SAPE  H17R19250   3.031   3.322   7.588  0.1640 -0.2971 -0.5100
  170SAPE  H17S19251   3.202   3.297   7.544 -0.2830  1.2522  0.4497
  170SAPE  C21819252   3.141   3.188   7.710 -0.0258  0.3256  0.0136
  170SAPE  H18R19253   3.053   3.132   7.750 -1.1272  1.6320 -0.5164
  170SAPE  H18S19254   3.167   3.264   7.787 -0.6162 -0.0165  0.5525
  170SAPE  C21919255   3.259   3.097   7.718 -1.1474  0.3704  0.1561
  170SAPE  H19R19256   3.341   3.154   7.669 -0.5536  0.1933  0.9547
  170SAPE  H19S19257   3.237   3.020   7.641  2.1013  0.3226 -0.8026
  170SAPE  C22019258   3.279   3.032   7.853  0.2859  0.0397 -0.2265
  170SAPE  H20R19259   3.368   2.965   7.861 -1.7421 -2.5134  1.5436
  170SAPE  H20S19260   3.187   2.980   7.884  1.2486 -1.2020  0.6046
  170SAPE  H20T19261   3.297   3.111   7.931 -2.4510 -0.6593  1.1586
  170SAPE   C3319262   1.938   2.094   6.830  0.0774 -0.1578  0.1057
  170SAPE   H3X19263   1.862   2.174   6.839  0.4968  0.7379 -3.3459
  170SAPE   H3Y19264   2.028   2.153   6.857  0.2448  0.1368 -1.0359
  170SAPE   C3419265   1.915   1.969   6.915  0.0081 -0.6078 -0.3817
  170SAPE   H4X19266   1.982   1.882   6.899 -0.1000 -1.1382  1.8806
  170SAPE   H4Y19267   1.808   1.940   6.904 -0.4216  0.2498  1.2843
  170SAPE   C3519268   1.951   2.009   7.060  0.7121 -0.7186  0.4554
  170SAPE   H5X19269   2.044   2.071   7.055 -0.7131  1.3675 -0.6225
  170SAPE   H5Y19270   1.982   1.920   7.119 -1.6469 -1.7288  0.1981
  170SAPE   C3619271   1.835   2.080   7.131  0.1164  0.5038 -0.0953
  170SAPE   H6X19272   1.739   2.027   7.115  0.5541  0.1166 -1.5437
  170SAPE   H6Y19273   1.824   2.182   7.090 -1.5329  0.5726  0.4629
  170SAPE   C3719274   1.863   2.109   7.282  0.1155  0.3188 -0.2046
  170SAPE   H7X19275   1.779   2.174   7.314  1.7500  1.4089  2.0633
  170SAPE   H7Y19276   1.966   2.150   7.294  1.0105 -1.0823 -2.7952
  170SAPE   C3819277   1.827   1.987   7.366  0.3700  0.4599 -0.2176
  170SAPE   H8X19278   1.889   1.898   7.339  1.1803  0.4343  1.6094
  170SAPE   H8Y19279   1.725   1.952   7.340  1.0816 -1.1609 -0.9607
  170SAPE   C3919280   1.836   2.020   7.515 -0.2110  0.7881  1.0020
  170SAPE   H9X19281   1.747   2.081   7.542  0.0595  1.5173  0.2466
  170SAPE   H9Y19282   1.932   2.069   7.543  0.6712 -0.0548 -0.4460
  170SAPE  C31019283   1.839   1.884   7.585  0.1929  0.3043  0.2079
  170SAPE  H10X19284   1.938   1.837   7.567  0.8352  0.9147  2.0307
  170SAPE  H10Y19285   1.761   1.818   7.541  0.8043  1.1973 -2.3339
  170SAPE  C31119286   1.813   1.904   7.734  0.1842  0.7234 -0.2463
  170SAPE  H11X19287   1.837   1.804   7.776  1.5910  0.7066 -1.0511
  170SAPE  H11Y19288   1.707   1.931   7.752 -0.0457 -0.4244  0.1523
  170SAPE  C31219289   1.906   2.013   7.785 -0.0172  0.2358 -0.0160
  170SAPE  H12X19290   1.882   2.116   7.751  2.1780  1.6022  2.3597
  170SAPE  H12Y19291   2.002   1.991   7.732  0.4293  1.5085  0.2582
  170SAPE  C31319292   1.935   2.004   7.934  0.4920  0.1293 -0.5056
  170SAPE  H13X19293   1.982   1.904   7.948 -0.3945  0.1225  2.8416
  170SAPE  H13Y19294   1.838   1.983   7.983  1.0765 -0.2889  0.4944
  170SAPE  C31419295   2.009   2.120   8.005 -0.1067 -0.8493  0.2828
  170SAPE  H14X19296   1.942   2.207   7.991  0.8388 -0.4904 -2.1616
  170SAPE  H14Y19297   2.101   2.147   7.950 -0.8947 -0.8651 -1.0573
  170SAPE  C31519298   2.053   2.081   8.145  0.3278 -0.5175  0.0680
  170SAPE  H15X19299   1.963   2.053   8.203 -0.1840 -1.7128 -1.2827
  170SAPE  H15Y19300   2.106   2.164   8.196 -1.2283 -0.4119  1.5691
  170SAPE  C31619301   2.141   1.956   8.151  0.4857  0.3289 -0.0437
  170SAPE  H16X19302   2.198   1.948   8.056  0.3676 -0.1732 -0.0725
  170SAPE  H16Y19303   2.070   1.871   8.155  0.2793  0.4760 -0.4978
  170SAPE  C31719304   2.241   1.959   8.265  0.1989 -0.2519  0.9183
  170SAPE  H17X19305   2.189   1.962   8.363 -1.2655 -1.0550  0.1783
  170SAPE  H17Y19306   2.303   2.051   8.252  1.6170 -1.2136  0.8491
  170SAPE  C31819307   2.332   1.830   8.280 -0.0365 -0.3504  0.5399
  170SAPE  H18X19308   2.407   1.828   8.199 -1.1665  1.2511 -0.5672
  170SAPE  H18Y19309   2.271   1.737   8.279 -1.8260  0.7941  1.2591
  170SAPE  H18Z19310   2.383   1.838   8.378  0.0437 -2.7865  0.7225
  171SAPE     N19311   3.957   3.192   6.256 -0.3761  0.3651  0.2930
  171SAPE   HN119312   4.001   3.098   6.254 -0.7816  0.1747  0.2957
  171SAPE   HN219313   4.025   3.251   6.203 -2.4363  2.6860  0.1716
  171SAPE   HN319314   3.963   3.222   6.356  0.0518  1.0533  0.0632
  171SAPE   C1219315   3.812   3.202   6.197 -0.9235  0.0962 -0.1353
  171SAPE  H12A19316   3.819   3.199   6.086 -1.2813  0.6782 -0.1776
  171SAPE  H12B19317   3.773   3.295   6.244  0.3900  0.5237  0.1416
  171SAPE   C1119318   3.718   3.085   6.246 -0.2141  0.5074 -0.0603
  171SAPE  H11A19319   3.748   3.002   6.179 -0.7317 -0.9428  1.4668
  171SAPE  H11B19320   3.616   3.117   6.218  0.6272  2.3199 -1.1729
  171SAPE     P19321   3.654   2.935   6.438  0.0179 -0.1389 -0.0198
  171SAPE   O1319322   3.542   2.979   6.529 -0.1271 -0.0225  0.3773
  171SAPE   O1419323   3.611   2.855   6.322 -0.0540  0.0914 -0.1246
  171SAPE   O1219324   3.737   3.062   6.388 -0.3140  0.7343  0.0213
  171SAPE   O1119325   3.755   2.852   6.518  0.6750  0.3643  0.0489
  171SAPE    C119326   3.865   2.909   6.597 -0.4618  0.0731 -0.8674
  171SAPE    HA19327   3.937   2.831   6.628  0.2701  1.5251  1.1546
  171SAPE    HB19328   3.929   2.979   6.538  1.5568 -1.4106 -0.4804
  171SAPE    C219329   3.819   2.968   6.727 -0.1404 -0.6896  0.0882
  171SAPE    HS19330   3.727   3.029   6.712  0.6648  0.4559 -0.2396
  171SAPE   O2119331   3.929   3.040   6.791 -0.0628 -0.0645 -0.1441
  171SAPE   C2119332   3.894   3.154   6.850  0.6153 -0.3186  0.0935
  171SAPE   O2219333   3.782   3.205   6.845  0.0199  0.0498  0.5424
  171SAPE   C2219334   4.011   3.231   6.914  0.1947 -0.4695 -0.1800
  171SAPE   H2R19335   4.070   3.152   6.965  0.7209  0.0970  0.1026
  171SAPE   H2S19336   4.075   3.276   6.835 -0.2690  2.5420  1.0917
  171SAPE    C319337   3.768   2.862   6.822  1.0254 -0.1057  0.4610
  171SAPE    HX19338   3.845   2.782   6.814 -1.6049 -2.6177 -0.6308
  171SAPE    HY19339   3.679   2.809   6.781 -0.0079  0.0282  2.4768
  171SAPE   O3119340   3.751   2.907   6.957 -0.4247 -0.2559 -0.1179
  171SAPE   C3119341   3.623   2.930   7.004  0.2424 -1.0589 -0.8271
  171SAPE   O3219342   3.519   2.914   6.942  0.4463 -0.1612 -0.9252
  171SAPE   C3219343   3.648   2.976   7.149  0.1585  0.6289 -0.4061
  171SAPE   H2X19344   3.695   3.076   7.139  2.3214 -0.3389 -0.0224
  171SAPE   H2Y19345   3.717   2.902   7.194 -0.2667  0.8945  0.7049
  171SAPE   C2319346   3.965   3.348   7.005  0.1543 -0.0945  0.2152
  171SAPE   H3R19347   4.036   3.350   7.090 -0.4251 -0.2206  0.7127
  171SAPE   H3S19348   3.865   3.318   7.042 -2.2026  1.9166 -4.0361
  171SAPE   C2419349   3.950   3.489   6.944 -0.5006 -0.3304 -0.3496
  171SAPE   H4R19350   3.891   3.536   7.026 -1.0760 -3.5920  1.1639
  171SAPE   H4S19351   3.896   3.473   6.849  0.6877 -0.8567 -0.9403
  171SAPE   C2519352   4.087   3.544   6.922  0.7860 -0.6697  0.1455
  171SAPE   H5R19353   4.134   3.512   6.828  0.4106 -1.1003  0.0966
  171SAPE   C2619354   4.146   3.635   7.001 -0.0514 -0.1387  0.0498
  171SAPE   H6R19355   4.238   3.687   6.971 -1.3294  1.7589 -0.6445
  171SAPE   C2719356   4.106   3.705   7.128 -0.0319  0.5811  1.0569
  171SAPE   H7R19357   4.012   3.665   7.170  0.6885 -1.3093  0.9098
  171SAPE   H7S19358   4.081   3.808   7.094 -2.8676 -0.6672 -0.8210
  171SAPE   C2819359   4.194   3.711   7.255  0.0247  0.5822 -0.3525
  171SAPE   H8R19360   4.248   3.807   7.266  0.5845  0.4368 -1.7175
  171SAPE   C2919361   4.211   3.619   7.354  0.1184 -0.4575  0.0735
  171SAPE   H9R19362   4.288   3.644   7.429 -0.5158  1.3798  0.1254
  171SAPE  C21019363   4.145   3.482   7.365  0.0934  0.4827  0.1009
  171SAPE  H10R19364   4.048   3.479   7.311  1.8095 -1.0389 -3.0687
  171SAPE  H10S19365   4.114   3.467   7.471 -0.3601 -0.4981 -0.1585
  171SAPE  C21119366   4.229   3.360   7.327 -0.0615 -0.6068  0.2392
  171SAPE  H11R19367   4.213   3.318   7.227  1.6715 -0.7754  0.0032
  171SAPE  C21219368   4.331   3.308   7.405  0.8561 -0.1728 -0.0678
  171SAPE  H12R19369   4.390   3.232   7.352 -1.0101  0.1062 -2.6249
  171SAPE  C21319370   4.378   3.369   7.541  0.0708 -0.7089 -0.0717
  171SAPE  H13R19371   4.338   3.318   7.632  1.0146  0.4773  1.0354
  171SAPE  H13S19372   4.347   3.475   7.554 -0.8499 -0.8518 -1.0402
  171SAPE  C21419373   4.529   3.356   7.541 -0.0037 -0.4124 -0.2227
  171SAPE  H14R19374   4.575   3.378   7.443 -0.8100 -2.5208 -1.0975
  171SAPE  C21519375   4.608   3.336   7.646 -1.2741 -0.0350 -0.2396
  171SAPE  H15R19376   4.716   3.321   7.632 -1.2253  1.1857 -1.2274
  171SAPE  C21619377   4.559   3.305   7.788 -0.5702 -0.3473  0.0230
  171SAPE  H16R19378   4.618   3.218   7.826  2.1751  1.1023 -0.7657
  171SAPE  H16S19379   4.451   3.281   7.801 -0.7248  0.5497  0.3800
  171SAPE  C21719380   4.596   3.420   7.882 -0.2626  0.8222  0.1683
  171SAPE  H17R19381   4.541   3.514   7.860 -0.2526  0.4920 -1.3056
  171SAPE  H17S19382   4.704   3.445   7.885 -0.6461  2.4676  0.7058
  171SAPE  C21819383   4.568   3.376   8.022  0.9404 -0.4049 -0.0622
  171SAPE  H18R19384   4.621   3.283   8.052  2.1039  0.0492 -0.6606
  171SAPE  H18S19385   4.460   3.350   8.032  1.3697 -1.9941  0.6943
  171SAPE  C21919386   4.587   3.483   8.130 -0.3293 -0.0223  0.5155
  171SAPE  H19R19387   4.682   3.535   8.107 -1.4548  2.0966  0.6053
  171SAPE  H19S19388   4.602   3.432   8.228 -0.9642 -2.8907 -0.8035
  171SAPE  C22019389   4.473   3.582   8.152  0.5384 -0.0339  0.4065
  171SAPE  H20R19390   4.393   3.531   8.208  0.3167 -0.8251 -0.6159
  171SAPE  H20S19391   4.440   3.608   8.049 -1.6384  0.7418  1.2689
  171SAPE  H20T19392   4.497   3.673   8.211 -2.1656  0.5690  0.6225
  171SAPE   C3319393   3.514   2.992   7.217  0.0828 -0.8993  0.0100
  171SAPE   H3X19394   3.441   3.043   7.152 -0.0908 -2.2664 -0.8843
  171SAPE   H3Y19395   3.536   3.041   7.315  0.2352 -0.7515 -0.0960
  171SAPE   C3419396   3.452   2.863   7.270 -0.1915 -0.3009 -0.1562
  171SAPE   H4X19397   3.429   2.796   7.184 -1.0969 -0.6744  0.3630
  171SAPE   H4Y19398   3.353   2.882   7.318 -0.3439  2.9515 -1.6009
  171SAPE   C3519399   3.536   2.781   7.371 -0.0247  0.2194 -1.2906
  171SAPE   H5X19400   3.646   2.777   7.358 -0.0223  0.3088 -1.2988
  171SAPE   H5Y19401   3.494   2.679   7.361  0.0462  0.0149  0.2566
  171SAPE   C3619402   3.520   2.820   7.514  0.1711  0.0490  0.0770
  171SAPE   H6X19403   3.414   2.820   7.547 -0.3188 -0.6698 -1.4438
  171SAPE   H6Y19404   3.558   2.922   7.536  2.0507 -0.8378  1.0273
  171SAPE   C3719405   3.595   2.731   7.613 -0.0738  0.2061  0.4718
  171SAPE   H7X19406   3.704   2.744   7.593 -0.7317  3.9699 -1.0811
  171SAPE   H7Y19407   3.556   2.632   7.581 -0.2296 -0.2569  2.0543
  171SAPE   C3819408   3.575   2.762   7.756 -0.2172  0.2035 -0.5436
  171SAPE   H8X19409   3.468   2.766   7.786 -0.3116  1.7489 -1.0617
  171SAPE   H8Y19410   3.615   2.865   7.761 -1.4961  0.8273 -2.6256
  171SAPE   C3919411   3.658   2.672   7.847 -0.7378  0.3187 -0.2703
  171SAPE   H9X19412   3.765   2.677   7.816 -0.9024  0.8131 -0.7622
  171SAPE   H9Y19413   3.624   2.566   7.835 -0.3473  0.2236 -0.5561
  171SAPE  C31019414   3.667   2.721   7.988 -0.3062  0.3611  0.8695
  171SAPE  H10X19415   3.693   2.829   7.993  0.6656  0.0727  2.1066
  171SAPE  H10Y19416   3.745   2.666   8.046  0.9616 -0.0048 -1.1172
  171SAPE  C31119417   3.533   2.720   8.060  0.8825 -0.3959  0.6541
  171SAPE  H11X19418   3.492   2.617   8.056  1.5211 -0.5414 -3.1495
  171SAPE  H11Y19419   3.464   2.792   8.012 -0.3243 -1.5786  0.5554
  171SAPE  C31219420   3.535   2.759   8.209 -0.0830  0.3173 -1.1247
  171SAPE  H12X19421   3.540   2.870   8.210  0.0699  0.3164 -1.5986
  171SAPE  H12Y19422   3.623   2.714   8.258  0.4352 -0.3432 -2.6254
  171SAPE  C31319423   3.410   2.727   8.290  0.6116  0.0217  0.6324
  171SAPE  H13X19424   3.440   2.751   8.394  0.6283 -1.6111  1.0154
  171SAPE  H13Y19425   3.387   2.619   8.284 -2.6478  0.7072 -0.3484
  171SAPE  C31419426   3.280   2.812   8.275 -0.4645 -0.7861 -0.2730
  171SAPE  H14X19427   3.209   2.750   8.334 -1.7830  1.6681  0.7891
  171SAPE  H14Y19428   3.242   2.816   8.171  0.5241  1.1811 -0.5846
  171SAPE  C31519429   3.288   2.949   8.349  0.3476 -0.7918 -0.5165
  171SAPE  H15X19430   3.321   3.015   8.266  1.4596 -0.5840  0.0819
  171SAPE  H15Y19431   3.371   2.950   8.423  0.7782  0.0292 -0.9990
  171SAPE  C31619432   3.151   2.979   8.411  0.3123  0.7504 -0.7731
  171SAPE  H16X19433   3.175   3.069   8.472 -1.1657  0.7948 -0.2339
  171SAPE  H16Y19434   3.114   2.899   8.478 -3.4290  1.1549 -2.2263
  171SAPE  C31719435   3.033   3.011   8.318 -0.7025  0.6894  1.0399
  171SAPE  H17X19436   2.961   3.063   8.384 -0.3350  3.4085 -0.6465
  171SAPE  H17Y19437   2.993   2.916   8.275  0.6610  0.4696  0.1937
  171SAPE  C31819438   3.085   3.113   8.209  0.1423 -0.0720 -0.0848
  171SAPE  H18X19439   3.158   3.072   8.136 -0.4757 -0.8151 -0.2868
  171SAPE  H18Y19440   3.142   3.190   8.266 -1.6234 -0.5230  2.3871
  171SAPE  H18Z19441   3.004   3.165   8.153 -0.3681 -0.6573  0.1057
  172SAPE     N19442   3.134   1.558   5.930 -0.5809 -0.3677  0.3822
  172SAPE   HN119443   3.090   1.489   5.865 -1.1109 -0.5521  0.9392
  172SAPE   HN219444   3.082   1.648   5.919  2.0336  1.0299 -1.2873
  172SAPE   HN319445   3.234   1.576   5.909 -0.4796 -1.6762 -0.2837
  172SAPE   C1219446   3.130   1.504   6.076 -0.2893  0.2399 -0.1358
  172SAPE  H12A19447   3.195   1.415   6.088  0.0610  0.4353 -0.5632
  172SAPE  H12B19448   3.029   1.461   6.094 -0.1114 -0.1021  0.0447
  172SAPE   C1119449   3.149   1.611   6.184  0.7491  0.8872 -0.0433
  172SAPE  H11A19450   3.157   1.556   6.280 -1.3556 -0.0889 -0.4037
  172SAPE  H11B19451   3.058   1.674   6.190  1.2149  1.5192  0.4503
  172SAPE     P19452   3.396   1.645   6.244  0.1455  0.1769 -0.1913
  172SAPE   O1319453   3.421   1.504   6.219  0.5607 -0.3682 -0.1680
  172SAPE   O1419454   3.512   1.736   6.216 -0.2551 -0.2331  0.9182
  172SAPE   O1219455   3.266   1.694   6.161  0.1660 -0.3481  0.0506
  172SAPE   O1119456   3.342   1.662   6.388  0.1045  0.1912  0.3827
  172SAPE    C119457   3.361   1.773   6.479  0.5879  1.2239 -0.4741
  172SAPE    HA19458   3.468   1.791   6.500  0.5663 -0.1754  0.9082
  172SAPE    HB19459   3.320   1.866   6.433 -0.2621  0.6789 -0.8413
  172SAPE    C219460   3.288   1.740   6.614  0.0566 -0.7230 -0.4953
  172SAPE    HS19461   3.285   1.830   6.678  0.9037 -2.5010  2.1168
  172SAPE   O2119462   3.360   1.639   6.683 -0.4636  0.0152 -0.7969
  172SAPE   C2119463   3.352   1.645   6.807 -0.3426 -0.4623  0.0680
  172SAPE   O2219464   3.297   1.727   6.883  0.2684  0.3675 -0.5969
  172SAPE   C2219465   3.438   1.533   6.865  0.1956 -0.0980 -0.4762
  172SAPE   H2R19466   3.463   1.463   6.782 -1.2544 -0.6155 -0.4851
  172SAPE   H2S19467   3.539   1.574   6.883  0.1338 -0.1029 -0.1248
  172SAPE    C319468   3.148   1.690   6.584  0.2120  0.2223  0.0009
  172SAPE    HX19469   3.144   1.592   6.532  0.2491  0.3199 -0.1874
  172SAPE    HY19470   3.098   1.769   6.524 -1.4019 -1.6484 -1.1932
  172SAPE   O3119471   3.068   1.670   6.705  0.1900 -0.4506  0.1994
  172SAPE   C3119472   3.013   1.768   6.764 -0.0288 -0.2470  0.7583
  172SAPE   O3219473   3.003   1.880   6.717  0.3925  0.0587  0.5131
  172SAPE   C3219474   2.938   1.731   6.891 -1.0407  0.2789  0.5289
  172SAPE   H2X19475   3.027   1.713   6.955  0.2651  3.2640 -0.3414
  172SAPE   H2Y19476   2.881   1.636   6.879  2.8862 -2.1292  0.3106
  172SAPE   C2319477   3.366   1.481   6.982  0.0298  0.6565 -0.5481
  172SAPE   H3R19478   3.273   1.429   6.949 -0.0324  0.5576 -0.2198
  172SAPE   H3S19479   3.350   1.568   7.050 -0.9988  2.3750 -2.9089
  172SAPE   C2419480   3.447   1.370   7.058 -0.5427 -0.2919 -0.0269
  172SAPE   H4R19481   3.469   1.287   6.987  1.3586  0.0252  0.1823
  172SAPE   H4S19482   3.375   1.316   7.124 -0.1001 -0.8559 -0.0018
  172SAPE   C2519483   3.569   1.416   7.141 -0.1755 -0.0197  0.1676
  172SAPE   H5R19484   3.659   1.414   7.077 -0.6737 -3.0408 -0.5219
  172SAPE   C2619485   3.565   1.445   7.272  0.2374  0.1110 -0.8407
  172SAPE   H6R19486   3.659   1.482   7.314 -0.4093  0.7488  0.0786
  172SAPE   C2719487   3.447   1.432   7.360  0.4066  0.4884 -0.3507
  172SAPE   H7R19488   3.355   1.387   7.316  0.7337  1.7688 -2.4083
  172SAPE   H7S19489   3.413   1.530   7.399  0.6999 -0.4794  2.4830
  172SAPE   C2819490   3.464   1.337   7.476 -0.3501 -0.6272 -0.1921
  172SAPE   H8R19491   3.489   1.233   7.450 -0.1701 -0.8798  0.9488
  172SAPE   C2919492   3.467   1.368   7.611  0.6594  0.1043  0.4873
  172SAPE   H9R19493   3.473   1.285   7.683  1.4020  1.1173  1.5961
  172SAPE  C21019494   3.451   1.500   7.675 -0.7105 -0.2954 -0.6170
  172SAPE  H10R19495   3.388   1.488   7.765 -0.7085 -0.3312 -0.6209
  172SAPE  H10S19496   3.400   1.579   7.616  0.1319 -0.5976 -1.7744
  172SAPE  C21119497   3.591   1.552   7.704 -0.5739 -0.1554 -0.1372
  172SAPE  H11R19498   3.658   1.565   7.618 -1.7574 -2.7896 -1.4959
  172SAPE  C21219499   3.645   1.584   7.825  0.6337 -0.2213  0.3533
  172SAPE  H12R19500   3.748   1.624   7.832 -0.1448  1.7649  0.9475
  172SAPE  C21319501   3.569   1.571   7.966  0.1921 -1.1051 -0.4406
  172SAPE  H13R19502   3.470   1.521   7.968 -0.5628  0.4212  0.9996
  172SAPE  H13S19503   3.544   1.673   8.000  0.4728 -1.1258 -0.1670
  172SAPE  C21419504   3.654   1.522   8.077 -0.5926  0.6524 -0.0124
  172SAPE  H14R19505   3.761   1.525   8.053 -0.6669  2.8065 -0.1469
  172SAPE  C21519506   3.628   1.456   8.190 -0.3272 -0.1107 -0.0764
  172SAPE  H15R19507   3.714   1.412   8.242 -0.9786  0.0871  1.1751
  172SAPE  C21619508   3.496   1.405   8.247 -0.0738  0.1628  0.0991
  172SAPE  H16R19509   3.510   1.315   8.310  2.0428  0.6301  0.3398
  172SAPE  H16S19510   3.429   1.375   8.163 -1.8344  2.0491  0.7922
  172SAPE  C21719511   3.423   1.505   8.332 -0.7151  0.1280 -0.3854
  172SAPE  H17R19512   3.315   1.478   8.334 -0.1736 -2.1359 -0.3358
  172SAPE  H17S19513   3.420   1.609   8.293  0.8143  0.7763  1.1450
  172SAPE  C21819514   3.473   1.504   8.471  0.2495  0.1456 -0.2675
  172SAPE  H18R19515   3.582   1.481   8.470  0.3948  0.7956  0.1398
  172SAPE  H18S19516   3.421   1.422   8.525 -1.3383  1.8877  0.9233
  172SAPE  C21919517   3.463   1.635   8.537 -0.4378  1.1218  0.0825
  172SAPE  H19R19518   3.361   1.672   8.516 -1.1747 -0.8613  0.0070
  172SAPE  H19S19519   3.529   1.706   8.483 -0.2090  0.9042  0.0723
  172SAPE  C22019520   3.506   1.633   8.682  0.3566  0.8283  0.9181
  172SAPE  H20R19521   3.450   1.711   8.739  1.5443  0.1615  3.0561
  172SAPE  H20S19522   3.616   1.641   8.696  0.4860  0.7679 -0.0313
  172SAPE  H20T19523   3.483   1.541   8.739  0.4963 -0.0083 -0.3504
  172SAPE   C3319524   2.831   1.835   6.935  0.1938  0.2590 -0.3105
  172SAPE   H3X19525   2.767   1.869   6.851  1.2555  0.9416 -0.8430
  172SAPE   H3Y19526   2.871   1.930   6.977 -3.6334  2.0631 -0.5817
  172SAPE   C3419527   2.733   1.777   7.042  1.0059 -0.0834 -0.1632
  172SAPE   H4X19528   2.674   1.690   7.008  1.5134 -1.0470  1.4126
  172SAPE   H4Y19529   2.654   1.853   7.060 -0.5711 -1.8858  0.6265
  172SAPE   C3519530   2.783   1.748   7.186  0.3785  0.3158  0.2784
  172SAPE   H5X19531   2.852   1.829   7.218  0.0716  0.5053  0.4650
  172SAPE   H5Y19532   2.843   1.654   7.182 -0.2453  0.0072 -4.0562
  172SAPE   C3619533   2.674   1.712   7.284  0.8914 -0.1354 -0.0572
  172SAPE   H6X19534   2.623   1.618   7.255 -2.3047  0.5909  2.8702
  172SAPE   H6Y19535   2.593   1.787   7.280 -0.7274 -1.7098  2.2478
  172SAPE   C3719536   2.730   1.693   7.424  0.4329  0.2189 -0.3916
  172SAPE   H7X19537   2.798   1.780   7.439  0.8450  0.0150 -1.0360
  172SAPE   H7Y19538   2.789   1.599   7.423  0.6768  0.3490  0.7173
  172SAPE   C3819539   2.637   1.692   7.538  0.3460  0.5593  0.5111
  172SAPE   H8X19540   2.566   1.607   7.534 -0.3646  1.1246  0.8938
  172SAPE   H8Y19541   2.576   1.785   7.549  2.3713  1.8366  1.1396
  172SAPE   C3919542   2.702   1.675   7.676 -0.0093  0.2077  0.0637
  172SAPE   H9X19543   2.789   1.743   7.684  1.9067 -2.2144  0.3821
  172SAPE   H9Y19544   2.743   1.572   7.690 -1.8610 -0.4100  1.0612
  172SAPE  C31019545   2.596   1.690   7.782 -0.2490 -0.6755 -0.1748
  172SAPE  H10X19546   2.502   1.637   7.752  0.2595 -1.1357 -0.9828
  172SAPE  H10Y19547   2.577   1.799   7.780 -0.4517 -0.6590  1.9126
  172SAPE  C31119548   2.634   1.636   7.917 -0.0328  0.1356 -1.1170
  172SAPE  H11X19549   2.700   1.547   7.912  1.1272  0.7440  2.1178
  172SAPE  H11Y19550   2.541   1.610   7.972  1.6274  0.6824  2.0377
  172SAPE  C31219551   2.703   1.735   8.011  0.8412 -0.5010 -0.0609
  172SAPE  H12X19552   2.667   1.839   7.995 -0.0899 -0.7337  0.5323
  172SAPE  H12Y19553   2.806   1.758   7.976  0.1768  1.8597 -0.5533
  172SAPE  C31319554   2.702   1.696   8.160 -0.1668 -0.3540  0.0817
  172SAPE  H13X19555   2.600   1.678   8.201 -0.8579 -0.8196 -1.7564
  172SAPE  H13Y19556   2.738   1.788   8.211 -0.0327  0.1814 -0.9669
  172SAPE  C31419557   2.785   1.581   8.207  0.3819  0.4295 -0.0862
  172SAPE  H14X19558   2.859   1.610   8.285 -0.9021 -0.3447  1.4348
  172SAPE  H14Y19559   2.854   1.551   8.126  0.1066  2.2186 -1.0277
  172SAPE  C31519560   2.694   1.469   8.260 -0.1134  0.0590  0.5595
  172SAPE  H15X19561   2.757   1.380   8.242  0.4780  0.2951  1.4855
  172SAPE  H15Y19562   2.604   1.448   8.197  1.5896 -1.8292 -1.3059
  172SAPE  C31619563   2.670   1.490   8.411 -0.4934  0.0757 -0.6829
  172SAPE  H16X19564   2.615   1.586   8.412 -1.6786 -0.5819 -1.3872
  172SAPE  H16Y19565   2.770   1.496   8.458  1.3582 -0.9803 -4.2825
  172SAPE  C31719566   2.579   1.391   8.487  0.7768  0.7172  0.6231
  172SAPE  H17X19567   2.589   1.295   8.432  0.0276  0.4701  0.9194
  172SAPE  H17Y19568   2.470   1.409   8.481  0.5675 -0.6441  0.1691
  172SAPE  C31819569   2.612   1.366   8.636 -0.4034 -0.1251 -0.5469
  172SAPE  H18X19570   2.569   1.445   8.700  0.1354  0.1327 -0.4987
  172SAPE  H18Y19571   2.723   1.366   8.646 -0.4270 -2.8797  0.1773
  172SAPE  H18Z19572   2.580   1.265   8.670  0.1927 -0.1189  0.0279
  173SOPE     N19573   3.717   6.157  11.039  0.1624  0.2014  0.1620
  173SOPE   HN119574   3.618   6.191  11.045  0.5114  1.3708 -0.4375
  173SOPE   HN219575   3.719   6.055  11.058  1.7137  0.4191  1.2498
  173SOPE   HN319576   3.772   6.192  11.120  0.7332  0.3489 -0.2884
  173SOPE   C1219577   3.793   6.187  10.907  0.7628  0.3782 -0.5316
  173SOPE  H12A19578   3.815   6.090  10.856  2.8338 -0.5827  2.0582
  173SOPE  H12B19579   3.889   6.233  10.939 -0.4980  1.3047  2.0010
  173SOPE   C1119580   3.696   6.277  10.824  0.2429 -0.2708  0.0226
  173SOPE  H11A19581   3.603   6.229  10.788  0.4254  0.5865 -1.6212
  173SOPE  H11B19582   3.734   6.297  10.722  0.4414  2.7900  0.6281
  173SOPE     P19583   3.759   6.526  10.874  0.2139 -0.1278  0.4892
  173SOPE   O1319584   3.903   6.517  10.909 -0.1998 -0.2573 -0.7533
  173SOPE   O1419585   3.691   6.630  10.952  0.3378 -0.5180 -0.0093
  173SOPE   O1219586   3.669   6.397  10.889 -0.4810 -0.3818  0.1342
  173SOPE   O1119587   3.733   6.557  10.718  0.1529  0.3279 -0.3179
  173SOPE    C119588   3.617   6.633  10.677 -0.2913 -0.3928  0.2936
  173SOPE    HA19589   3.638   6.741  10.691  1.4004 -0.7792  0.7896
  173SOPE    HB19590   3.526   6.605  10.734 -0.4053  0.4163  0.5020
  173SOPE    C219591   3.586   6.621  10.531  0.1339 -0.3823  0.1909
  173SOPE    HS19592   3.676   6.649  10.472  0.6600  0.0803  1.2080
  173SOPE   O2119593   3.481   6.712  10.491 -0.1877  0.4787 -0.2689
  173SOPE   C2119594   3.512   6.838  10.461  1.0202  0.0516  0.7156
  173SOPE   O2219595   3.619   6.892  10.485 -0.3059 -0.1269  0.0692
  173SOPE   C2219596   3.399   6.909  10.403 -0.5899  0.3546 -0.5684
  173SOPE   H2R19597   3.357   6.984  10.474  2.0679 -1.2434  2.8549
  173SOPE   H2S19598   3.314   6.837  10.393 -0.7639  0.4413  0.2460
  173SOPE    C319599   3.549   6.480  10.491  0.3877  0.0804  0.6003
  173SOPE    HX19600   3.449   6.461  10.535  0.1397  0.1781  0.0861
  173SOPE    HY19601   3.621   6.400  10.517  1.7745  1.6234  1.5556
  173SOPE   O3119602   3.537   6.484  10.349 -0.2582  0.1480  0.6631
  173SOPE   C3119603   3.492   6.369  10.292  0.5863 -1.0972 -0.2160
  173SOPE   O3219604   3.474   6.262  10.353 -0.2127 -0.2771  0.3690
  173SOPE   C3219605   3.483   6.393  10.144 -0.2078 -0.7214  0.1195
  173SOPE   H2X19606   3.583   6.433  10.118 -0.0542  1.2363  3.4049
  173SOPE   H2Y19607   3.418   6.481  10.122  2.4563  1.1444 -0.5286
  173SOPE   C2319608   3.428   6.972  10.263  0.3780 -0.1743 -0.1541
  173SOPE   H3R19609   3.528   7.019  10.264 -0.3615  1.4464 -0.8759
  173SOPE   H3S19610   3.356   7.052  10.234 -1.7289 -1.7972  0.4310
  173SOPE   C2419611   3.415   6.861  10.158  1.5373 -0.1809 -0.0576
  173SOPE   H4R19612   3.454   6.759  10.181 -0.1371 -1.0673 -1.0258
  173SOPE   H4S19613   3.307   6.838  10.145  1.4296  0.9743 -1.2073
  173SOPE   C2519614   3.480   6.900  10.014  0.0031  0.5798  0.2424
  173SOPE   H5R19615   3.442   7.004  10.000  1.0162  1.1623  1.6600
  173SOPE   H5S19616   3.586   6.916  10.045  0.3188 -1.7293  0.4178
  173SOPE   C2619617   3.442   6.799   9.893 -0.0365 -0.4642 -0.1955
  173SOPE   H6R19618   3.503   6.710   9.918  2.4962  1.0708 -0.7197
  173SOPE   H6S19619   3.333   6.777   9.901  0.2610 -1.4968  1.0026
  173SOPE   C2719620   3.492   6.855   9.756 -0.3643 -0.2748 -0.2095
  173SOPE   H7R19621   3.487   6.966   9.752  0.5927 -0.2837 -2.0788
  173SOPE   H7S19622   3.599   6.827   9.740 -0.1912  1.2431 -1.9113
  173SOPE   C2819623   3.409   6.789   9.647  0.7030 -0.8346  0.0558
  173SOPE   H8R19624   3.442   6.685   9.627  0.8252 -1.0941  1.5731
  173SOPE   H8S19625   3.309   6.774   9.694  0.8283  1.0016  0.9665
  173SOPE   C2919626   3.385   6.862   9.516  0.3225 -0.3584 -0.5904
  173SOPE   H9119627   3.288   6.912   9.508  0.5348 -0.0109 -1.0206
  173SOPE  C21019628   3.463   6.870   9.407 -0.0146  0.2873 -0.0105
  173SOPE  H10119629   3.433   6.930   9.320 -0.0279 -2.8281 -2.2581
  173SOPE  C21119630   3.599   6.800   9.392 -0.4625  0.1464 -0.2978
  173SOPE  H11R19631   3.629   6.760   9.491  1.7780  1.6529 -0.3349
  173SOPE  H11S19632   3.679   6.872   9.364 -1.2540  1.0619 -0.2512
  173SOPE  C21219633   3.612   6.687   9.291  0.3324 -0.1038  0.6334
  173SOPE  H12R19634   3.509   6.648   9.273 -0.0368  1.1285  0.0430
  173SOPE  H12S19635   3.682   6.616   9.339  1.7471  0.3302 -0.7433
  173SOPE  C21319636   3.654   6.745   9.148 -0.1047 -0.5492  0.0060
  173SOPE  H13R19637   3.584   6.831   9.135  1.9093  0.9896 -0.9567
  173SOPE  H13S19638   3.631   6.679   9.062  0.7365 -0.5596 -0.2113
  173SOPE  C21419639   3.793   6.817   9.120  0.1136  0.5248 -0.4299
  173SOPE  H14R19640   3.872   6.760   9.174 -0.0041  1.2753  0.5400
  173SOPE  H14S19641   3.802   6.918   9.165  0.2362  0.7678 -0.9899
  173SOPE  C21519642   3.825   6.840   8.970 -0.1744 -0.2441 -0.3554
  173SOPE  H15R19643   3.742   6.889   8.916  1.4999  0.5272 -2.3161
  173SOPE  H15S19644   3.840   6.742   8.920  1.2933  0.8650 -2.1570
  173SOPE  C21619645   3.954   6.917   8.947 -0.3210  0.2704  0.0276
  173SOPE  H16R19646   4.044   6.854   8.962 -0.9405 -0.4322  0.8413
  173SOPE  H16S19647   3.960   7.008   9.010 -2.0342  0.1824  0.3395
  173SOPE  C21719648   3.963   6.979   8.805  0.1511 -0.0040 -0.8862
  173SOPE  H17R19649   3.881   7.049   8.778 -1.9290 -1.8170  0.4644
  173SOPE  H17S19650   3.956   6.886   8.744 -0.6241 -2.1185  2.2516
  173SOPE  C21819651   4.084   7.064   8.780  0.3518 -0.1149 -0.2351
  173SOPE  H18R19652   4.089   7.084   8.671 -1.1845  0.1798 -0.2596
  173SOPE  H18S19653   4.176   7.024   8.828 -0.2055  0.1085  1.0387
  173SOPE  H18T19654   4.062   7.157   8.836 -0.2246 -0.9661  0.9887
  173SOPE   C3319655   3.438   6.279  10.054  0.7207 -0.3621  0.3061
  173SOPE   H3X19656   3.351   6.231  10.105  0.5697  1.1161  1.4848
  173SOPE   H3Y19657   3.519   6.203  10.058 -1.5698 -2.8403  0.6117
  173SOPE   C3419658   3.405   6.321   9.910 -0.2694  0.7190 -0.4120
  173SOPE   H4X19659   3.496   6.365   9.865 -0.1751 -0.2687 -1.2172
  173SOPE   H4Y19660   3.322   6.395   9.911  0.1640  1.2062  1.1724
  173SOPE   C3519661   3.369   6.205   9.819 -0.6640  0.5087 -0.2337
  173SOPE   H5X19662   3.263   6.187   9.848 -0.3377 -2.3541 -0.6528
  173SOPE   H5Y19663   3.429   6.114   9.839 -0.6011  0.1539 -1.9366
  173SOPE   C3619664   3.381   6.231   9.669  0.1775 -0.6052  0.3048
  173SOPE   H6X19665   3.414   6.136   9.623 -1.2573 -1.9848  2.0767
  173SOPE   H6Y19666   3.479   6.284   9.669 -0.6237  0.9627 -2.0789
  173SOPE   C3719667   3.269   6.301   9.604 -0.3094  0.4535 -0.2466
  173SOPE   H7X19668   3.263   6.407   9.638  0.6492  0.3717  0.1830
  173SOPE   H7Y19669   3.172   6.251   9.623  0.2290 -1.2495 -1.8689
  173SOPE   C3819670   3.279   6.297   9.445 -0.1324 -0.4538  0.4409
  173SOPE   H8X19671   3.247   6.195   9.416  0.7084  0.2496 -3.1375
  173SOPE   H8Y19672   3.382   6.326   9.414 -0.7094 -0.4699 -1.5412
  173SOPE   C3919673   3.175   6.388   9.384  0.3534  0.8055  0.6741
  173SOPE   H9X19674   3.197   6.495   9.400  0.9932  0.6808  0.6454
  173SOPE   H9Y19675   3.075   6.372   9.431 -0.1210 -1.2111 -0.8991
  173SOPE  C31019676   3.145   6.362   9.235  0.0573  0.2923  0.4227
  173SOPE  H10X19677   3.063   6.288   9.228  0.2010  0.0806  0.9753
  173SOPE  H10Y19678   3.235   6.311   9.194  1.3756  1.8094  1.3552
  173SOPE  C31119679   3.098   6.487   9.161  0.0628 -0.4445  0.3226
  173SOPE  H11X19680   3.023   6.545   9.219 -1.3248 -1.0314 -0.8698
  173SOPE  H11Y19681   3.056   6.452   9.065  1.6895  0.1012 -0.6155
  173SOPE  C31219682   3.216   6.588   9.127 -0.3283 -0.2719 -0.1529
  173SOPE  H12X19683   3.283   6.529   9.061 -0.7923  0.5742 -1.3863
  173SOPE  H12Y19684   3.251   6.615   9.229 -2.9863  3.0061 -0.0104
  173SOPE  C31319685   3.167   6.708   9.059 -0.2725  0.3229 -0.0269
  173SOPE  H13X19686   3.103   6.758   9.134  2.7673  0.5502  2.5368
  173SOPE  H13Y19687   3.112   6.676   8.968  1.8339 -0.3237 -1.0955
  173SOPE  C31419688   3.286   6.797   9.011 -0.2433 -0.2174 -0.4125
  173SOPE  H14X19689   3.323   6.741   8.922 -1.1050 -3.1805  1.0475
  173SOPE  H14Y19690   3.365   6.800   9.089  1.3895 -3.3211 -1.8767
  173SOPE  C31519691   3.219   6.933   8.972 -0.7120 -0.5621  0.2962
  173SOPE  H15X19692   3.177   6.981   9.063  0.7803 -1.4812  1.4841
  173SOPE  H15Y19693   3.133   6.900   8.909 -2.0588  0.8589  1.3520
  173SOPE  C31619694   3.311   7.035   8.903  1.1364  0.3661 -0.2195
  173SOPE  H16X19695   3.257   7.131   8.892  1.8519  0.8114  0.1285
  173SOPE  H16Y19696   3.340   7.003   8.800 -0.8771  1.4475 -1.1403
  173SOPE  C31719697   3.424   7.072   8.994 -0.4422 -0.0830  0.3589
  173SOPE  H17X19698   3.491   6.991   9.028  0.2038  0.7671  1.1467
  173SOPE  H17Y19699   3.380   7.104   9.091 -3.1271  1.4137 -1.2736
  173SOPE  C31819700   3.506   7.176   8.928  0.6165 -0.4036 -0.8832
  173SOPE  H18X19701   3.537   7.150   8.825  0.7359 -0.3140 -0.8701
  173SOPE  H18Y19702   3.598   7.199   8.985 -0.0987  1.4419 -0.4557
  173SOPE  H18Z19703   3.452   7.273   8.924 -0.5207 -0.8707  1.7722
  174SOPE     N19704   2.260   5.924  10.624  0.2257  0.4444 -0.2555
  174SOPE   HN119705   2.169   5.967  10.652 -0.6335 -1.5284  0.0813
  174SOPE   HN219706   2.253   5.858  10.544 -0.6946 -0.0520  0.2180
  174SOPE   HN319707   2.299   5.870  10.704  0.1268 -1.3395 -1.3979
  174SOPE   C1219708   2.360   6.021  10.596  0.3811 -0.0325  1.5352
  174SOPE  H12A19709   2.433   6.025  10.680  1.3876 -0.8498  0.7223
  174SOPE  H12B19710   2.314   6.122  10.588 -1.5131 -1.1111 -3.0248
  174SOPE   C1119711   2.446   5.984  10.471 -0.0898  0.3358 -0.4426
  174SOPE  H11A19712   2.504   6.076  10.447  0.2838  0.1185 -0.3816
  174SOPE  H11B19713   2.396   5.952  10.377  0.5170 -0.3611 -0.5361
  174SOPE     P19714   2.673   5.899  10.585 -0.1629  0.0590 -0.3765
  174SOPE   O1319715   2.750   5.775  10.558 -0.3929 -0.7853  0.4028
  174SOPE   O1419716   2.654   5.933  10.725 -0.1755 -0.4801  0.1846
  174SOPE   O1219717   2.531   5.882  10.521  0.1247  0.3719  0.2605
  174SOPE   O1119718   2.736   6.025  10.506 -0.3241  0.6490  0.3140
  174SOPE    C119719   2.747   6.029  10.368 -0.2845  0.3947  0.5509
  174SOPE    HA19720   2.686   6.109  10.324  1.5514  2.1173  1.0552
  174SOPE    HB19721   2.712   5.931  10.329  0.6542  0.7926 -1.3651
  174SOPE    C219722   2.895   6.033  10.313 -0.5489  0.5974 -0.2757
  174SOPE    HS19723   2.940   6.122  10.362 -2.1299  1.6268 -0.6524
  174SOPE   O2119724   2.883   6.051  10.167  0.0406 -0.0954  0.4020
  174SOPE   C2119725   2.998   6.086  10.108  0.1526  0.7965  0.5495
  174SOPE   O2219726   3.103   6.108  10.171 -0.0009  0.5653 -0.3746
  174SOPE   C2219727   2.967   6.109   9.956  0.6997 -0.3231  0.1438
  174SOPE   H2R19728   3.057   6.154   9.910 -0.1858  1.3750  0.0162
  174SOPE   H2S19729   2.883   6.182   9.953  1.7748  0.8703 -1.7368
  174SOPE    C319730   2.980   5.912  10.351 -0.3185  0.2782 -0.4648
  174SOPE    HX19731   2.976   5.911  10.462 -0.1240  3.2025 -0.4004
  174SOPE    HY19732   3.089   5.921  10.332 -0.8015  0.5121 -3.4266
  174SOPE   O3119733   2.928   5.785  10.299 -0.4186  0.0856  0.0883
  174SOPE   C3119734   2.993   5.741  10.191 -0.0417  0.0203  0.0628
  174SOPE   O3219735   3.087   5.785  10.135 -0.0436 -0.0137  0.7018
  174SOPE   C3219736   2.916   5.612  10.149 -0.2945 -0.2518  0.2478
  174SOPE   H2X19737   2.811   5.643  10.128 -1.4686 -2.1040  3.0116
  174SOPE   H2Y19738   2.915   5.538  10.232 -0.5399  1.4710  1.8139
  174SOPE   C2319739   2.937   5.969   9.889 -0.5322 -0.8301 -0.5177
  174SOPE   H3R19740   2.843   5.928   9.931 -2.2566  3.0693 -0.3624
  174SOPE   H3S19741   3.029   5.910   9.908  1.5039  2.1936 -0.6159
  174SOPE   C2419742   2.914   5.973   9.735 -0.7323  0.2456  0.4950
  174SOPE   H4R19743   3.004   6.011   9.682 -0.3161  0.1054  1.0990
  174SOPE   H4S19744   2.892   5.869   9.704  1.3663 -0.4481  1.2574
  174SOPE   C2519745   2.792   6.062   9.692  0.3668  0.3275  1.0458
  174SOPE   H5R19746   2.703   6.009   9.732  0.8091 -1.7931 -0.6955
  174SOPE   H5S19747   2.820   6.165   9.722 -1.7908  1.7359 -1.6295
  174SOPE   C2619748   2.780   6.048   9.539  0.0883 -0.3263 -0.0199
  174SOPE   H6R19749   2.865   6.113   9.510 -0.8397  1.4330  1.1045
  174SOPE   H6S19750   2.786   5.941   9.508 -3.1151 -0.3544 -0.7638
  174SOPE   C2719751   2.645   6.111   9.505  0.3117  0.7430 -0.8863
  174SOPE   H7R19752   2.562   6.039   9.522 -0.5435  1.9288  0.1277
  174SOPE   H7S19753   2.640   6.197   9.576  1.4214 -0.4231  0.6366
  174SOPE   C2819754   2.626   6.149   9.356 -0.2338 -0.9118  0.2669
  174SOPE   H8R19755   2.660   6.059   9.300  3.2680 -0.7609  2.0255
  174SOPE   H8S19756   2.520   6.175   9.337 -0.3364  0.2397  2.2857
  174SOPE   C2919757   2.708   6.272   9.317 -1.0017 -0.2104 -0.4401
  174SOPE   H9119758   2.815   6.271   9.343 -1.3904 -0.5267  1.1497
  174SOPE  C21019759   2.666   6.382   9.256  0.8788  0.8249  0.4122
  174SOPE  H10119760   2.745   6.454   9.230  2.1321 -0.5522  0.3513
  174SOPE  C21119761   2.531   6.427   9.210 -0.5284 -1.1195 -0.4893
  174SOPE  H11R19762   2.518   6.531   9.249 -1.7917 -1.5015  0.1398
  174SOPE  H11S19763   2.459   6.354   9.252 -0.1585 -2.1246 -1.5616
  174SOPE  C21219764   2.517   6.424   9.055 -0.2278  0.7939 -0.1499
  174SOPE  H12R19765   2.511   6.320   9.018  2.0062  1.6102 -2.9734
  174SOPE  H12S19766   2.595   6.475   8.994 -0.5820  2.0282  0.4107
  174SOPE  C21319767   2.387   6.491   8.996  0.2498  0.6064 -0.2412
  174SOPE  H13R19768   2.399   6.599   9.020 -3.2716  1.1664 -0.6859
  174SOPE  H13S19769   2.294   6.457   9.047  1.1413  0.0452  1.0122
  174SOPE  C21419770   2.379   6.481   8.841  0.0622  0.1633 -0.0524
  174SOPE  H14R19771   2.408   6.379   8.808  2.6814  1.0034 -0.4324
  174SOPE  H14S19772   2.452   6.554   8.799 -1.0855  1.6113  0.4237
  174SOPE  C21519773   2.240   6.518   8.791  0.2683  0.5142  0.0273
  174SOPE  H15R19774   2.174   6.431   8.810  0.0162  0.2883 -1.8220
  174SOPE  H15S19775   2.243   6.512   8.680  3.1528 -2.3152  0.1986
  174SOPE  C21619776   2.184   6.657   8.847  0.2097  0.5335 -0.0457
  174SOPE  H16R19777   2.263   6.733   8.832 -0.2683  0.5314 -3.0783
  174SOPE  H16S19778   2.159   6.642   8.954 -0.5562 -1.7103 -0.4978
  174SOPE  C21719779   2.060   6.706   8.772  0.3283 -0.1845 -0.1799
  174SOPE  H17R19780   1.987   6.622   8.775  0.0537  0.0439 -0.5898
  174SOPE  H17S19781   2.084   6.722   8.665  1.7023 -0.2474  0.1076
  174SOPE  C21819782   2.004   6.834   8.835  0.2362  0.4097  0.1897
  174SOPE  H18R19783   2.074   6.920   8.836 -0.6197  1.1320  2.7526
  174SOPE  H18S19784   1.984   6.824   8.944  0.3157  1.0451  0.2619
  174SOPE  H18T19785   1.909   6.868   8.790 -0.1256 -0.1318  0.5310
  174SOPE   C3319786   2.987   5.555  10.026 -0.3514 -0.0817 -0.7868
  174SOPE   H3X19787   3.096   5.547  10.044 -0.6910  0.0533  1.4267
  174SOPE   H3Y19788   2.977   5.617   9.934  1.9421  0.4935 -0.6741
  174SOPE   C3419789   2.947   5.414   9.984  0.2991 -0.2417  0.2604
  174SOPE   H4X19790   2.959   5.340  10.067  0.6764 -1.7483 -1.1037
  174SOPE   H4Y19791   2.999   5.380   9.892  0.6057  0.0321  0.3309
  174SOPE   C3519792   2.798   5.395   9.944  0.3944 -0.3634 -0.2065
  174SOPE   H5X19793   2.732   5.429  10.027  1.1908  0.8777 -0.0626
  174SOPE   H5Y19794   2.788   5.287   9.919  2.9214 -0.3279 -1.5158
  174SOPE   C3619795   2.749   5.482   9.824 -0.0185 -0.7126  0.1482
  174SOPE   H6X19796   2.757   5.589   9.856  1.2353 -1.3812  2.2413
  174SOPE   H6Y19797   2.641   5.464   9.808 -0.2786  0.5727  0.3579
  174SOPE   C3719798   2.825   5.479   9.694  0.5892 -0.5641  0.7086
  174SOPE   H7X19799   2.816   5.379   9.647 -0.3455 -0.6179  0.9825
  174SOPE   H7Y19800   2.932   5.503   9.708  0.1532  1.4807  0.8051
  174SOPE   C3819801   2.771   5.584   9.591  0.4967  0.3206 -0.1289
  174SOPE   H8X19802   2.795   5.689   9.620 -0.1333  0.4799 -0.1610
  174SOPE   H8Y19803   2.660   5.587   9.593  0.4979  0.3192 -0.0472
  174SOPE   C3919804   2.820   5.557   9.448 -0.2910  0.4922 -0.3623
  174SOPE   H9X19805   2.801   5.450   9.424 -0.2683  0.4069  0.0084
  174SOPE   H9Y19806   2.928   5.580   9.437  0.1034 -1.2136 -0.1891
  174SOPE  C31019807   2.750   5.637   9.340 -0.1010  0.2212  0.3607
  174SOPE  H10X19808   2.769   5.746   9.352 -0.8243  0.3741  0.0987
  174SOPE  H10Y19809   2.641   5.626   9.323  0.3013 -0.6798 -1.8313
  174SOPE  C31119810   2.813   5.599   9.203  0.2261 -0.1449 -0.5679
  174SOPE  H11X19811   2.783   5.495   9.178 -1.2091  0.2526 -0.5255
  174SOPE  H11Y19812   2.924   5.606   9.209  0.2788 -0.6016 -0.9740
  174SOPE  C31219813   2.771   5.686   9.077 -0.1678 -0.1731  0.3004
  174SOPE  H12X19814   2.660   5.681   9.066 -0.2601  2.5020 -0.2835
  174SOPE  H12Y19815   2.812   5.661   8.977  0.8693 -2.3470  1.2298
  174SOPE  C31319816   2.807   5.835   9.100  0.0543 -0.2932 -0.3967
  174SOPE  H13X19817   2.907   5.851   9.146 -1.0189  2.3006  1.1293
  174SOPE  H13Y19818   2.736   5.881   9.171  0.3081  2.6951 -2.0187
  174SOPE  C31419819   2.788   5.913   8.968 -0.2552  0.0482  0.6676
  174SOPE  H14X19820   2.686   5.892   8.929 -0.3755  2.4453 -0.4003
  174SOPE  H14Y19821   2.858   5.873   8.892 -0.4658  0.2173  0.3813
  174SOPE  C31519822   2.816   6.067   8.998  0.9092  0.1710 -1.0653
  174SOPE  H15X19823   2.893   6.080   9.077 -1.1807 -0.9607  1.2317
  174SOPE  H15Y19824   2.726   6.107   9.048  1.2001  0.7916 -1.0251
  174SOPE  C31619825   2.829   6.158   8.877  0.5778 -0.6591  0.1875
  174SOPE  H16X19826   2.918   6.133   8.816  1.6266 -1.1079  1.8781
  174SOPE  H16Y19827   2.842   6.259   8.919 -0.6939 -0.3038 -0.2485
  174SOPE  C31719828   2.709   6.151   8.788 -0.6800 -0.2435 -0.0849
  174SOPE  H17X19829   2.616   6.138   8.847 -0.2249  0.6743  0.8548
  174SOPE  H17Y19830   2.740   6.070   8.719 -1.7625 -0.4905 -0.2799
  174SOPE  C31819831   2.686   6.268   8.696  0.7370  0.8106  0.3183
  174SOPE  H18X19832   2.643   6.358   8.744 -0.2419  0.5726 -0.0803
  174SOPE  H18Y19833   2.619   6.242   8.611  0.3927  0.1535  0.7843
  174SOPE  H18Z19834   2.784   6.301   8.655  0.6207 -1.0747 -1.5839
  175SOPE     N19835   5.333   0.957  10.680  0.4949  0.6282 -0.0618
  175SOPE   HN119836   5.321   0.938  10.782 -0.5789  0.4254 -0.2199
  175SOPE   HN219837   5.417   1.017  10.665 -0.0835  1.6557  0.7332
  175SOPE   HN319838   5.260   1.023  10.645  1.3681  1.6858  0.0869
  175SOPE   C1219839   5.355   0.840  10.594  0.4759 -1.0338  0.5765
  175SOPE  H12A19840   5.450   0.794  10.626 -0.8675 -2.8854  1.9945
  175SOPE  H12B19841   5.356   0.878  10.489 -0.2304 -2.0369  0.1951
  175SOPE   C1119842   5.243   0.730  10.605 -0.2627 -0.5716  0.2595
  175SOPE  H11A19843   5.217   0.696  10.707  0.1617  2.5362  1.4783
  175SOPE  H11B19844   5.281   0.636  10.561  1.2484  0.3764 -0.4858
  175SOPE     P19845   4.979   0.778  10.577  0.1459  0.3656 -0.3742
  175SOPE   O1319846   4.890   0.865  10.500 -0.1866 -0.0529  0.2951
  175SOPE   O1419847   4.955   0.787  10.725 -0.4027  0.5413  0.0587
  175SOPE   O1219848   5.135   0.781  10.537  0.0265  0.0561 -0.4689
  175SOPE   O1119849   4.941   0.629  10.542  0.1469  0.4183 -0.0904
  175SOPE    C119850   4.996   0.542  10.452 -0.2985  0.0754 -0.0090
  175SOPE    HA19851   4.948   0.444  10.474  1.1715  0.1511  4.0407
  175SOPE    HB19852   5.104   0.535  10.477 -0.3879  0.6127  0.5398
  175SOPE    C219853   4.976   0.587  10.300 -0.2464  0.6203 -0.3579
  175SOPE    HS19854   4.987   0.697  10.304 -1.7256  0.8225 -1.4539
  175SOPE   O2119855   4.843   0.544  10.262 -0.9924 -0.6541 -0.8373
  175SOPE   C2119856   4.789   0.621  10.168 -0.6907 -0.0048 -0.1160
  175SOPE   O2219857   4.827   0.732  10.137 -0.6032 -0.1734  0.6590
  175SOPE   C2219858   4.665   0.550  10.109 -0.2498 -0.1534 -0.5495
  175SOPE   H2R19859   4.579   0.583  10.172  0.6797  0.3833  0.4647
  175SOPE   H2S19860   4.665   0.442  10.132  1.1074  0.4256  2.5100
  175SOPE    C319861   5.086   0.519  10.214  0.0841  0.2155  0.1071
  175SOPE    HX19862   5.067   0.411  10.228  0.2698  0.0095 -1.1958
  175SOPE    HY19863   5.183   0.553  10.256  0.2343  0.1694 -0.2040
  175SOPE   O3119864   5.077   0.545  10.075 -0.2234 -0.0836  0.2681
  175SOPE   C3119865   5.165   0.631  10.026 -0.1114  0.0864 -0.8252
  175SOPE   O3219866   5.260   0.680  10.086 -0.4982  0.1011 -0.1042
  175SOPE   C3219867   5.129   0.648   9.877  0.3868  0.3969  0.6113
  175SOPE   H2X19868   5.043   0.718   9.870 -1.1378 -1.5306 -0.3529
  175SOPE   H2Y19869   5.091   0.547   9.852  1.5214  0.4257 -1.3544
  175SOPE   C2319870   4.637   0.574   9.962 -0.7255  0.5783  0.5823
  175SOPE   H3R19871   4.736   0.563   9.912  0.1619 -0.1874  2.4600
  175SOPE   H3S19872   4.605   0.679   9.945  0.8317  0.9304 -0.2757
  175SOPE   C2419873   4.528   0.485   9.908 -0.2845 -0.5724  0.4372
  175SOPE   H4R19874   4.558   0.379   9.922 -1.3318 -1.1661 -1.6414
  175SOPE   H4S19875   4.438   0.501   9.971 -0.1663  1.1062  0.2017
  175SOPE   C2519876   4.501   0.514   9.759  0.3891 -1.1211  0.2682
  175SOPE   H5R19877   4.406   0.469   9.724 -0.1669 -0.3715  0.7828
  175SOPE   H5S19878   4.473   0.620   9.743 -0.5449 -1.6107 -1.3674
  175SOPE   C2619879   4.608   0.461   9.669  0.0418 -0.0699  0.0648
  175SOPE   H6R19880   4.712   0.492   9.693 -0.2702  0.2075  1.1027
  175SOPE   H6S19881   4.610   0.351   9.686  1.9253  0.0115  0.4322
  175SOPE   C2719882   4.579   0.492   9.522 -1.5984 -0.0900  0.0489
  175SOPE   H7R19883   4.488   0.432   9.502 -1.4739  0.2762 -1.6736
  175SOPE   H7S19884   4.573   0.603   9.515  1.1357  0.2019  1.7911
  175SOPE   C2819885   4.685   0.439   9.423  0.4090  0.0341  0.0478
  175SOPE   H8R19886   4.777   0.500   9.437  1.8194 -1.5407 -2.1667
  175SOPE   H8S19887   4.709   0.332   9.441 -0.2370 -0.0640  0.3275
  175SOPE   C2919888   4.643   0.453   9.283  0.1250  0.0799  0.1299
  175SOPE   H9119889   4.534   0.438   9.271 -0.3332 -0.2930  4.0566
  175SOPE  C21019890   4.721   0.468   9.175 -0.0818 -0.2397  0.0138
  175SOPE  H10119891   4.666   0.469   9.079 -1.4423  0.7669  0.7900
  175SOPE  C21119892   4.874   0.483   9.187 -0.9999  0.0908  0.5377
  175SOPE  H11R19893   4.905   0.447   9.287 -1.7060 -0.8953  0.4046
  175SOPE  H11S19894   4.899   0.592   9.186  1.0010 -0.3427  0.7428
  175SOPE  C21219895   4.965   0.413   9.084 -0.1252  0.0046  0.7961
  175SOPE  H12R19896   4.964   0.304   9.101 -0.9929 -0.2377 -0.7536
  175SOPE  H12S19897   5.069   0.448   9.103  0.7190 -0.4903 -2.6366
  175SOPE  C21319898   4.939   0.442   8.940  0.9807  0.1508  0.0743
  175SOPE  H13R19899   4.919   0.550   8.927 -0.2674 -0.0203  0.4816
  175SOPE  H13S19900   4.849   0.384   8.911  1.2374  0.3149 -1.0631
  175SOPE  C21419901   5.053   0.392   8.853  1.0166 -0.8670 -0.5996
  175SOPE  H14R19902   5.043   0.283   8.839  0.3993 -1.2324  2.3008
  175SOPE  H14S19903   5.151   0.412   8.903  0.6670 -0.7366  0.0462
  175SOPE  C21519904   5.062   0.462   8.714  0.4943  0.2553 -0.1039
  175SOPE  H15R19905   5.069   0.570   8.739 -2.8083  0.8632 -1.4933
  175SOPE  H15S19906   4.980   0.443   8.641  1.0100  1.0037 -0.8907
  175SOPE  C21619907   5.193   0.423   8.635 -0.3210 -1.0159 -0.4532
  175SOPE  H16R19908   5.281   0.462   8.692 -2.1378  0.7864  1.2128
  175SOPE  H16S19909   5.189   0.477   8.539 -0.9347  1.7898  1.0901
  175SOPE  C21719910   5.226   0.280   8.609 -0.1693 -0.3499 -0.1932
  175SOPE  H17R19911   5.131   0.232   8.576 -0.4521 -0.6268  1.0111
  175SOPE  H17S19912   5.237   0.226   8.705 -1.3377  1.2523  0.8606
  175SOPE  C21819913   5.339   0.251   8.509  0.0578  0.2357 -0.0366
  175SOPE  H18R19914   5.327   0.142   8.490 -1.4458  0.0312  1.8584
  175SOPE  H18S19915   5.440   0.276   8.549 -0.3041 -0.9444  1.6916
  175SOPE  H18T19916   5.320   0.302   8.412  0.9984 -1.1000 -0.9406
  175SOPE   C3319917   5.252   0.703   9.792 -0.2417 -0.0936  0.4349
  175SOPE   H3X19918   5.326   0.620   9.784  2.6424  2.1671  2.5979
  175SOPE   H3Y19919   5.287   0.789   9.852 -1.8067  0.3015  0.8143
  175SOPE   C3419920   5.218   0.742   9.644  0.0449  0.4867 -0.4412
  175SOPE   H4X19921   5.307   0.762   9.580 -0.5076 -1.0385 -1.7404
  175SOPE   H4Y19922   5.161   0.838   9.651 -0.4837  0.0350  1.6321
  175SOPE   C3519923   5.140   0.633   9.574  0.1954  0.3029 -1.1027
  175SOPE   H5X19924   5.045   0.614   9.628  0.4819 -1.4202 -1.1999
  175SOPE   H5Y19925   5.194   0.537   9.581 -1.6309 -0.7640 -1.3152
  175SOPE   C3619926   5.097   0.663   9.430 -0.3251 -0.5088  0.2323
  175SOPE   H6X19927   5.023   0.746   9.430 -1.1803 -1.2638  0.5973
  175SOPE   H6Y19928   5.046   0.577   9.382  0.6936 -1.2247  0.4183
  175SOPE   C3719929   5.211   0.708   9.337  0.8432  0.5051  0.1428
  175SOPE   H7X19930   5.271   0.616   9.322 -0.1946 -0.5400  2.2847
  175SOPE   H7Y19931   5.272   0.791   9.379 -1.5710  2.1744  0.4654
  175SOPE   C3819932   5.166   0.752   9.197 -0.7228  0.2480 -0.7943
  175SOPE   H8X19933   5.112   0.848   9.203 -0.8170  0.1527 -0.1240
  175SOPE   H8Y19934   5.095   0.675   9.161 -1.3331  1.7253 -2.8455
  175SOPE   C3919935   5.282   0.764   9.102 -0.6920  0.0300 -0.4054
  175SOPE   H9X19936   5.327   0.666   9.075 -1.1343 -0.2276 -0.2158
  175SOPE   H9Y19937   5.356   0.839   9.138  0.3842 -0.2026 -2.0792
  175SOPE  C31019938   5.228   0.820   8.969 -0.1229 -0.4382 -0.5633
  175SOPE  H10X19939   5.185   0.921   8.982  2.0722  0.5937 -1.0269
  175SOPE  H10Y19940   5.158   0.744   8.929  1.5906 -2.2587 -0.2098
  175SOPE  C31119941   5.344   0.832   8.866  0.0392  0.1723  0.2826
  175SOPE  H11X19942   5.392   0.733   8.852 -0.5435 -0.2326  1.0627
  175SOPE  H11Y19943   5.424   0.878   8.928  0.4067 -0.2457  0.1186
  175SOPE  C31219944   5.316   0.910   8.739  0.4427  0.3549  0.2439
  175SOPE  H12X19945   5.412   0.935   8.689  1.4570  2.3426  3.0596
  175SOPE  H12Y19946   5.268   1.005   8.772 -1.1938 -0.8499  1.3905
  175SOPE  C31319947   5.223   0.840   8.641 -0.1262  0.1108 -0.3677
  175SOPE  H13X19948   5.134   0.810   8.700  0.4113 -0.8775 -0.0488
  175SOPE  H13Y19949   5.259   0.740   8.611 -2.9681 -1.3025  0.8352
  175SOPE  C31419950   5.189   0.927   8.526  0.6286 -0.3121 -0.4643
  175SOPE  H14X19951   5.278   0.987   8.496  0.2040  1.6530  2.0683
  175SOPE  H14Y19952   5.111   0.998   8.561  0.6798 -1.1952  1.5091
  175SOPE  C31519953   5.132   0.855   8.398  0.1044  0.1719  0.2553
  175SOPE  H15X19954   5.197   0.769   8.370  1.3134  0.6607  1.5002
  175SOPE  H15Y19955   5.134   0.933   8.320 -0.3967 -1.0577 -1.0106
  175SOPE  C31619956   4.992   0.791   8.410 -0.5517  0.6738  0.4192
  175SOPE  H16X19957   4.926   0.873   8.447 -1.0861  0.9105 -1.0318
  175SOPE  H16Y19958   4.995   0.715   8.490  0.7764  0.2679 -0.0102
  175SOPE  C31719959   4.943   0.738   8.276 -0.3719  0.2957  0.1929
  175SOPE  H17X19960   4.851   0.679   8.298  0.7734 -1.2611  0.8445
  175SOPE  H17Y19961   5.018   0.662   8.246  1.0197  1.1382  1.4551
  175SOPE  C31819962   4.906   0.838   8.170  0.6539  0.2879  0.0584
  175SOPE  H18X19963   4.993   0.906   8.162  1.5531 -0.9360 -0.5598
  175SOPE  H18Y19964   4.821   0.903   8.201 -0.4070 -1.3798  0.7105
  175SOPE  H18Z19965   4.884   0.791   8.072 -0.1003 -3.3081  1.8393
  176SOPE     N19966   4.705   6.201  11.081 -0.6141  0.4064 -0.0981
  176SOPE   HN119967   4.705   6.097  11.086  2.1028  0.4316  1.2155
  176SOPE   HN219968   4.786   6.234  11.024  0.5636 -0.5816  0.9837
  176SOPE   HN319969   4.685   6.244  11.173 -1.0827  0.6119 -0.2946
  176SOPE   C1219970   4.579   6.217  10.997  0.3279 -0.2255  0.2648
  176SOPE  H12A19971   4.497   6.203  11.070  0.6101 -0.0284  0.6233
  176SOPE  H12B19972   4.582   6.136  10.921 -1.9663  0.7851 -0.9420
  176SOPE   C1119973   4.590   6.351  10.927  0.0459 -0.2900  0.5456
  176SOPE  H11A19974   4.582   6.440  10.992 -2.1941 -0.0871  0.0351
  176SOPE  H11B19975   4.500   6.355  10.862  1.2183 -1.1141 -1.1868
  176SOPE     P19976   4.802   6.467  10.832  0.0302 -0.3123 -0.2381
  176SOPE   O1319977   4.905   6.447  10.724 -0.0470 -0.4120 -0.3581
  176SOPE   O1419978   4.850   6.493  10.968 -0.4159 -0.7266  0.4232
  176SOPE   O1219979   4.702   6.345  10.834  0.1556 -0.6309  0.2061
  176SOPE   O1119980   4.714   6.591  10.784 -0.6038 -0.0603  0.3226
  176SOPE    C119981   4.647   6.573  10.658 -0.7773 -0.2765  0.1700
  176SOPE    HA19982   4.564   6.501  10.678 -2.2900  1.2862 -0.3565
  176SOPE    HB19983   4.716   6.530  10.582 -0.2369 -0.0660  0.5402
  176SOPE    C219984   4.586   6.699  10.597 -0.4643  0.4483  0.1149
  176SOPE    HS19985   4.524   6.688  10.506 -1.6533  1.3629  0.7998
  176SOPE   O2119986   4.689   6.792  10.576 -0.6511  0.9688 -0.0976
  176SOPE   C2119987   4.756   6.775  10.462 -0.1080  0.1651 -0.3664
  176SOPE   O2219988   4.729   6.684  10.386 -0.5561  0.1520  0.2685
  176SOPE   C2219989   4.871   6.874  10.442 -0.3067  0.8415 -0.3078
  176SOPE   H2R19990   4.952   6.848  10.513  0.8350  0.3676 -1.7693
  176SOPE   H2S19991   4.826   6.967  10.481  0.0708 -0.1369  2.5642
  176SOPE    C319992   4.484   6.754  10.697 -0.4195  0.0516 -0.9771
  176SOPE    HX19993   4.464   6.862  10.683 -2.2515  0.0839  1.6419
  176SOPE    HY19994   4.531   6.753  10.797 -3.1520  2.5804  0.4200
  176SOPE   O3119995   4.364   6.673  10.671 -0.1910 -0.6018 -0.5058
  176SOPE   C3119996   4.300   6.615  10.771  0.4886  0.1211 -0.2754
  176SOPE   O3219997   4.334   6.606  10.888  0.2170 -0.1424 -0.1903
  176SOPE   C3219998   4.161   6.555  10.725  0.0046  0.2998 -0.0698
  176SOPE   H2X19999   4.083   6.625  10.763 -1.7597 -2.7075  2.0999
  176SOPE   H2Y20000   4.147   6.453  10.769  2.9559  0.4715  1.3959
  176SOPE   C2320001   4.931   6.880  10.309 -0.6201 -0.1729  0.3035
  176SOPE   H3R20002   4.962   6.779  10.274 -3.5251  0.4654 -4.7624
  176SOPE   H3S20003   5.024   6.937  10.326 -0.2420 -0.9671  0.9323
  176SOPE   C2420004   4.849   6.943  10.194 -0.3178  0.1009  0.4657
  176SOPE   H4R20005   4.770   6.870  10.166 -0.2612  1.0708 -2.3959
  176SOPE   H4S20006   4.800   7.034  10.234  0.9211 -0.5833  3.6824
  176SOPE   C2520007   4.944   6.966  10.073 -0.6549 -0.2861  0.0800
  176SOPE   H5R20008   5.011   7.052  10.095  0.0184 -0.8971  0.4300
  176SOPE   H5S20009   5.014   6.881  10.062  0.6670  0.7483  0.3036
  176SOPE   C2620010   4.880   6.990   9.941  0.4474  0.1604 -0.3625
  176SOPE   H6R20011   4.811   6.908   9.910 -1.4499  1.5547  0.0940
  176SOPE   H6S20012   4.816   7.080   9.950  0.8769  0.3672  0.7231
  176SOPE   C2720013   4.978   6.995   9.827  0.4419 -0.0129  0.4231
  176SOPE   H7R20014   5.070   7.057   9.839  0.3970  0.4177 -1.3767
  176SOPE   H7S20015   5.031   6.898   9.828  0.0269 -0.2390  0.6170
  176SOPE   C2820016   4.925   6.996   9.686  0.0166 -0.5957  0.1201
  176SOPE   H8R20017   4.910   6.893   9.646  1.0453 -1.5627  2.1828
  176SOPE   H8S20018   4.823   7.040   9.685 -0.2826 -1.2504 -1.4823
  176SOPE   C2920019   5.005   7.082   9.586 -0.3821 -0.4519  0.4855
  176SOPE   H9120020   5.041   7.178   9.628  3.4232 -2.1517  1.3185
  176SOPE  C21020021   5.025   7.048   9.456 -0.1129 -0.6280 -0.8163
  176SOPE  H10120022   5.075   7.121   9.390 -1.9339  1.3861 -0.0100
  176SOPE  C21120023   4.987   6.921   9.394 -0.6019  0.1404 -0.5864
  176SOPE  H11R20024   4.974   6.927   9.284  2.1380 -1.1599 -1.0235
  176SOPE  H11S20025   4.887   6.909   9.442 -0.0920 -0.8765  0.2301
  176SOPE  C21220026   5.092   6.815   9.429 -0.7728  0.1853  0.1933
  176SOPE  H12R20027   5.050   6.717   9.396  1.0830 -0.4163 -0.4033
  176SOPE  H12S20028   5.094   6.805   9.539  1.4625 -0.5354  0.1096
  176SOPE  C21320029   5.230   6.841   9.372 -0.7844 -0.3229 -0.3167
  176SOPE  H13R20030   5.265   6.933   9.424 -0.8786  1.0164 -2.5522
  176SOPE  H13S20031   5.229   6.863   9.263  3.0501  0.7316 -0.2207
  176SOPE  C21420032   5.325   6.721   9.395  0.8705  0.4613  0.5714
  176SOPE  H14R20033   5.431   6.748   9.380  0.8075  0.1813 -0.4533
  176SOPE  H14S20034   5.301   6.642   9.320  2.5311  1.3086 -0.8937
  176SOPE  C21520035   5.302   6.650   9.535 -0.0798  0.0645  0.3787
  176SOPE  H15R20036   5.369   6.563   9.520 -0.5975 -0.4081  0.7874
  176SOPE  H15S20037   5.196   6.617   9.527  0.2493 -1.2663  1.2843
  176SOPE  C21620038   5.335   6.728   9.659  0.5636 -0.0719 -0.0489
  176SOPE  H16R20039   5.307   6.836   9.659 -0.6942 -0.3945 -0.0475
  176SOPE  H16S20040   5.446   6.730   9.661  0.5705  0.0844 -0.5819
  176SOPE  C21720041   5.272   6.661   9.781 -0.2500  0.1933 -0.1864
  176SOPE  H17R20042   5.306   6.555   9.779  0.1969  0.3430 -1.6902
  176SOPE  H17S20043   5.163   6.664   9.757 -0.2909 -1.1897 -0.2224
  176SOPE  C21820044   5.298   6.711   9.926 -0.2397 -0.7915 -0.4682
  176SOPE  H18R20045   5.236   6.638   9.981 -0.6221 -0.1726 -0.0651
  176SOPE  H18S20046   5.262   6.815   9.943 -1.0584 -1.0226 -0.8075
  176SOPE  H18T20047   5.405   6.702   9.955 -1.0232  1.2491  3.4469
  176SOPE   C3320048   4.151   6.535  10.574 -0.1647  0.8097  0.4589
  176SOPE   H3X20049   4.229   6.460  10.548  1.4882  2.1972  1.3568
  176SOPE   H3Y20050   4.164   6.631  10.520  1.6640  0.1023 -0.4207
  176SOPE   C3420051   4.021   6.473  10.509  0.1568 -0.4358  0.1652
  176SOPE   H4X20052   3.950   6.558  10.496  0.7484  0.3196  1.8542
  176SOPE   H4Y20053   3.987   6.392  10.578  0.9574 -0.3986  0.6069
  176SOPE   C3520054   4.048   6.420  10.367  0.1701 -0.6768 -0.1361
  176SOPE   H5X20055   4.138   6.356  10.376  2.1816  1.9014 -1.2480
  176SOPE   H5Y20056   4.082   6.506  10.305  0.8115 -1.9336 -1.5474
  176SOPE   C3620057   3.928   6.346  10.301  0.0133 -0.2308 -0.1184
  176SOPE   H6X20058   3.834   6.404  10.303 -0.5515 -1.1539  0.1487
  176SOPE   H6Y20059   3.908   6.256  10.363  0.7870  0.3373  0.9780
  176SOPE   C3720060   3.958   6.312  10.157 -0.0803  0.3594 -0.3339
  176SOPE   H7X20061   4.057   6.260  10.162 -0.4607 -0.4691 -1.3497
  176SOPE   H7Y20062   3.983   6.405  10.102  2.0847  0.7099  1.1575
  176SOPE   C3820063   3.855   6.217  10.094 -0.1117 -0.0284  0.6860
  176SOPE   H8X20064   3.750   6.249  10.109  0.5450  1.5205  2.1842
  176SOPE   H8Y20065   3.881   6.126  10.153  2.2846  0.3717  0.2832
  176SOPE   C3920066   3.887   6.190   9.941  0.0705  0.0629 -0.0287
  176SOPE   H9X20067   3.989   6.148   9.937  0.1066  0.2264 -1.0670
  176SOPE   H9Y20068   3.892   6.288   9.888  1.2116 -0.6121 -1.2002
  176SOPE  C31020069   3.775   6.110   9.865  0.1147 -0.1037  0.3788
  176SOPE  H10X20070   3.675   6.151   9.892 -0.2585 -0.8075  0.1046
  176SOPE  H10Y20071   3.773   6.000   9.878 -0.0888 -0.4926 -2.5698
  176SOPE  C31120072   3.796   6.126   9.715  0.0501 -0.4137 -0.4217
  176SOPE  H11X20073   3.898   6.107   9.676  0.4773  0.1288  0.4072
  176SOPE  H11Y20074   3.782   6.232   9.684  2.9676 -0.0549 -0.6196
  176SOPE  C31220075   3.707   6.028   9.629 -0.4642 -0.3437  0.0805
  176SOPE  H12X20076   3.602   6.043   9.663 -1.0717 -2.2927 -0.8686
  176SOPE  H12Y20077   3.719   5.924   9.666  2.6795  0.1375  0.4804
  176SOPE  C31320078   3.719   6.036   9.479 -0.4669 -0.0107  0.6045
  176SOPE  H13X20079   3.694   5.939   9.430 -0.0145  0.7029 -1.0601
  176SOPE  H13Y20080   3.828   6.043   9.458 -0.4463 -0.6716  0.4664
  176SOPE  C31420081   3.650   6.153   9.417  0.4841 -0.4730  0.7684
  176SOPE  H14X20082   3.707   6.243   9.450  0.6028  0.8083 -2.7375
  176SOPE  H14Y20083   3.548   6.140   9.457  0.2173  0.9119  0.5820
  176SOPE  C31520084   3.660   6.149   9.266  0.3927  0.8011 -0.4194
  176SOPE  H15X20085   3.589   6.075   9.223  0.3886 -0.3808  1.5519
  176SOPE  H15Y20086   3.762   6.110   9.246  0.4433  0.5003  0.3918
  176SOPE  C31620087   3.622   6.287   9.204  0.3887  0.4406 -0.4081
  176SOPE  H16X20088   3.716   6.345   9.217  1.0766 -0.6457 -0.3743
  176SOPE  H16Y20089   3.532   6.334   9.249 -0.2819 -1.9357  0.8243
  176SOPE  C31720090   3.593   6.277   9.051  0.4821 -0.2350 -0.5170
  176SOPE  H17X20091   3.488   6.251   9.027  0.2012  2.0342 -1.8567
  176SOPE  H17Y20092   3.658   6.193   9.018  1.1231 -0.3305  0.9221
  176SOPE  C31820093   3.620   6.409   8.980 -0.3010 -0.2610 -0.3647
  176SOPE  H18X20094   3.725   6.443   8.997 -0.9731  1.4162  0.5509
  176SOPE  H18Y20095   3.554   6.490   9.018  0.6543  0.0309  0.7016
  176SOPE  H18Z20096   3.602   6.394   8.871  0.6025 -3.3904 -0.1183
  177SOPE     N20097   4.721   4.212  10.831 -0.3970  0.6030 -0.3378
  177SOPE   HN120098   4.741   4.295  10.891 -2.1785  1.1124 -0.3953
  177SOPE   HN220099   4.643   4.164  10.880 -1.5996  2.3360 -0.4777
  177SOPE   HN320100   4.796   4.141  10.826 -2.0232 -1.2123  0.5447
  177SOPE   C1220101   4.671   4.258  10.701  0.8214 -0.7910 -0.3790
  177SOPE  H12A20102   4.633   4.173  10.639 -1.3466  1.7066 -2.5704
  177SOPE  H12B20103   4.760   4.295  10.646  0.3505  0.9438  0.0212
  177SOPE   C1120104   4.569   4.368  10.719 -0.5586  0.5714  0.5103
  177SOPE  H11A20105   4.542   4.407  10.618 -1.4970 -3.5078 -0.9219
  177SOPE  H11B20106   4.626   4.445  10.774  2.3063 -1.6220  0.7144
  177SOPE     P20107   4.356   4.421  10.868 -0.4362 -0.2142 -0.3692
  177SOPE   O1320108   4.435   4.485  10.969 -0.3359  0.0626  0.3301
  177SOPE   O1420109   4.238   4.346  10.908 -0.0138  0.1392  0.5885
  177SOPE   O1220110   4.450   4.321  10.791 -0.0506 -0.2909 -0.0229
  177SOPE   O1120111   4.319   4.533  10.756  0.6166 -0.3330 -0.2343
  177SOPE    C120112   4.237   4.491  10.647 -0.0840 -0.2256  0.2405
  177SOPE    HA20113   4.155   4.424  10.682 -0.6096  0.7915  1.0082
  177SOPE    HB20114   4.299   4.435  10.574  2.4355  0.6278  1.6599
  177SOPE    C220115   4.195   4.619  10.565  0.0946  1.5295  0.0517
  177SOPE    HS20116   4.120   4.568  10.500  0.8670 -0.3282  0.5992
  177SOPE   O2120117   4.308   4.677  10.498 -0.2843  0.1923  0.0362
  177SOPE   C2120118   4.340   4.626  10.385  0.4453  0.1859  0.0896
  177SOPE   O2220119   4.291   4.530  10.330 -0.2846 -0.0339  0.2759
  177SOPE   C2220120   4.456   4.710  10.325 -0.0892 -0.2025  0.6161
  177SOPE   H2R20121   4.543   4.661  10.373  0.1359  1.1035  1.5752
  177SOPE   H2S20122   4.444   4.811  10.370 -1.1933  0.8223 -1.8741
  177SOPE    C320123   4.129   4.726  10.642 -0.2605  0.3655 -0.0249
  177SOPE    HX20124   4.185   4.747  10.736 -0.2493  0.3887 -0.0360
  177SOPE    HY20125   4.031   4.691  10.682  0.9312 -1.6834  1.1808
  177SOPE   O3120126   4.105   4.848  10.565  0.1698 -0.1024 -0.0737
  177SOPE   C3120127   4.193   4.945  10.589 -0.6268 -0.8512 -0.1808
  177SOPE   O3220128   4.274   4.950  10.681 -0.0732  0.5854  0.2005
  177SOPE   C3220129   4.189   5.051  10.485  0.1986 -0.3020 -0.8761
  177SOPE   H2X20130   4.262   5.130  10.509 -1.3968  1.2518 -1.0016
  177SOPE   H2Y20131   4.091   5.104  10.495  0.8794  0.5977  1.2723
  177SOPE   C2320132   4.447   4.721  10.170 -0.2201  0.5064  0.4107
  177SOPE   H3R20133   4.353   4.758  10.124 -0.3115 -0.6369 -0.3322
  177SOPE   H3S20134   4.471   4.623  10.123 -0.7820  1.1805 -1.3290
  177SOPE   C2420135   4.553   4.823  10.121 -0.1087 -0.5417 -0.4566
  177SOPE   H4R20136   4.535   4.931  10.141 -2.0287 -1.4404  2.8357
  177SOPE   H4S20137   4.641   4.794  10.183 -0.2113 -1.7497 -0.8706
  177SOPE   C2520138   4.599   4.796   9.978 -0.0631  1.0147  0.0527
  177SOPE   H5R20139   4.632   4.690   9.972 -0.3717  0.9447 -0.4004
  177SOPE   H5S20140   4.500   4.809   9.930  1.1431 -0.0895 -2.8868
  177SOPE   C2620141   4.711   4.897   9.943 -0.6661 -0.2300  0.0073
  177SOPE   H6R20142   4.670   5.000   9.955 -2.1426 -1.2977  5.4995
  177SOPE   H6S20143   4.776   4.894  10.034  1.1372 -0.5183 -1.2738
  177SOPE   C2720144   4.778   4.884   9.803 -0.0277 -0.1386 -0.2943
  177SOPE   H7R20145   4.872   4.941   9.792  0.0035 -0.4345 -1.5540
  177SOPE   H7S20146   4.814   4.780   9.789 -2.4085 -1.0583  0.0553
  177SOPE   C2820147   4.687   4.929   9.683  0.1803  0.8367 -0.0634
  177SOPE   H8R20148   4.621   5.012   9.716 -1.5283 -0.3131 -0.5486
  177SOPE   H8S20149   4.748   4.959   9.595 -0.6231  1.0529 -0.5477
  177SOPE   C2920150   4.610   4.809   9.628  0.2015  0.2232 -0.0857
  177SOPE   H9120151   4.522   4.778   9.686 -0.2031  1.3869 -0.0666
  177SOPE  C21020152   4.641   4.732   9.520  0.2119 -0.2297  1.0002
  177SOPE  H10120153   4.587   4.645   9.481  3.2393  0.3991 -5.1802
  177SOPE  C21120154   4.758   4.776   9.435  0.0110 -0.5580  0.1853
  177SOPE  H11R20155   4.791   4.686   9.379  4.3032  0.3328  1.1363
  177SOPE  H11S20156   4.847   4.807   9.493 -1.7325  2.0955  1.5718
  177SOPE  C21220157   4.726   4.884   9.332  0.1396  0.2717 -0.0700
  177SOPE  H12R20158   4.819   4.929   9.293  0.0790 -0.8251 -1.5663
  177SOPE  H12S20159   4.665   4.969   9.368 -2.1640 -0.6695 -1.6170
  177SOPE  C21320160   4.655   4.830   9.205  0.0429 -0.2766 -0.6025
  177SOPE  H13R20161   4.610   4.917   9.154  2.0226  1.3183  0.2844
  177SOPE  H13S20162   4.560   4.781   9.235 -1.7286  4.0420  1.2433
  177SOPE  C21420163   4.733   4.747   9.106  0.0293  0.7313 -0.1597
  177SOPE  H14R20164   4.779   4.662   9.160  0.0772  0.6079 -0.3983
  177SOPE  H14S20165   4.814   4.811   9.065  1.0356 -0.3528  0.1352
  177SOPE  C21520166   4.641   4.705   8.989  0.1789  0.8697 -0.3411
  177SOPE  H15R20167   4.560   4.637   9.022  0.6184 -0.7324 -2.4620
  177SOPE  H15S20168   4.696   4.632   8.925 -0.8875  0.6070 -0.9631
  177SOPE  C21620169   4.590   4.824   8.894  0.6299  0.1421  0.3781
  177SOPE  H16R20170   4.677   4.887   8.866  0.3197  0.0273 -0.8800
  177SOPE  H16S20171   4.533   4.893   8.960 -2.5555  0.3171 -2.4294
  177SOPE  C21720172   4.511   4.787   8.770  0.1169  0.1163  0.0594
  177SOPE  H17R20173   4.469   4.880   8.728  2.0356  0.7173 -0.5904
  177SOPE  H17S20174   4.424   4.728   8.807 -0.7437  0.3409 -1.5627
  177SOPE  C21820175   4.580   4.719   8.654  0.2342 -0.1205 -0.6760
  177SOPE  H18R20176   4.509   4.675   8.581 -0.0649  0.2123 -0.5847
  177SOPE  H18S20177   4.631   4.633   8.702  2.0083  2.2583  1.8808
  177SOPE  H18T20178   4.658   4.780   8.604 -0.6357  0.6151 -1.1440
  177SOPE   C3320179   4.201   4.999  10.342  0.3895  0.0081  0.3423
  177SOPE   H3X20180   4.157   4.897  10.351 -0.5256  0.5036  1.7215
  177SOPE   H3Y20181   4.302   4.980  10.300  0.4232  0.9686 -0.0392
  177SOPE   C3420182   4.113   5.070  10.239  0.1764  0.2365  0.9173
  177SOPE   H4X20183   4.152   5.172  10.221 -0.2388 -0.0592 -1.7982
  177SOPE   H4Y20184   4.012   5.090  10.282  0.4213  0.1186  1.5577
  177SOPE   C3520185   4.093   5.005  10.099  0.6389 -0.4385 -0.1385
  177SOPE   H5X20186   4.004   5.059  10.059  0.4523  1.2513  2.4352
  177SOPE   H5Y20187   4.069   4.897  10.097  2.4772 -0.8628  0.0831
  177SOPE   C3620188   4.207   5.036  10.004  0.1563  0.4094  0.6684
  177SOPE   H6X20189   4.307   4.988  10.016 -1.2147 -2.6933  0.3411
  177SOPE   H6Y20190   4.216   5.146  10.003  2.3908  0.2471 -0.3367
  177SOPE   C3720191   4.155   5.000   9.865  0.3046 -0.9690  0.0630
  177SOPE   H7X20192   4.057   5.048   9.847  0.1252 -1.7151 -1.0377
  177SOPE   H7Y20193   4.137   4.890   9.863  1.6882 -1.2038 -0.4865
  177SOPE   C3820194   4.247   5.034   9.747  0.0142 -0.1437  0.3516
  177SOPE   H8X20195   4.350   5.004   9.776  0.4606  1.2244  0.2155
  177SOPE   H8Y20196   4.260   5.143   9.733  0.0782 -0.1623  0.2760
  177SOPE   C3920197   4.207   4.970   9.614  0.8712  0.0742 -0.3147
  177SOPE   H9X20198   4.107   5.007   9.585  0.2741 -0.4885  0.9885
  177SOPE   H9Y20199   4.199   4.860   9.627 -0.9099  0.2891  0.6477
  177SOPE  C31020200   4.295   5.020   9.488  0.4105 -0.3154  0.2052
  177SOPE  H10X20201   4.403   5.013   9.513  0.5684  2.0320  0.3141
  177SOPE  H10Y20202   4.281   5.130   9.485  0.0132 -0.3168  1.6266
  177SOPE  C31120203   4.268   4.972   9.345  0.1646 -0.6636  0.6900
  177SOPE  H11X20204   4.170   4.921   9.338 -0.0942  0.0215 -1.2283
  177SOPE  H11Y20205   4.348   4.899   9.321  0.1215  0.4499 -3.3954
  177SOPE  C31220206   4.279   5.080   9.230 -0.1942 -0.1044  0.0703
  177SOPE  H12X20207   4.379   5.127   9.241 -0.8550  1.4831 -0.4599
  177SOPE  H12Y20208   4.213   5.166   9.255  1.6590  0.5924  2.7362
  177SOPE  C31320209   4.247   5.027   9.092  0.5933  0.0192  0.2234
  177SOPE  H13X20210   4.137   5.017   9.087  0.5951 -0.3712  0.9054
  177SOPE  H13Y20211   4.299   4.929   9.082 -2.0575 -1.8190  3.3231
  177SOPE  C31420212   4.273   5.127   8.975 -0.6051 -0.5594  0.2113
  177SOPE  H14X20213   4.381   5.156   8.974 -1.0156  1.0408  0.3127
  177SOPE  H14Y20214   4.221   5.222   9.000 -1.5101 -0.6675 -1.2304
  177SOPE  C31520215   4.232   5.066   8.841  0.6495 -1.2087 -0.0849
  177SOPE  H15X20216   4.123   5.052   8.860  0.7399  1.0623  2.4732
  177SOPE  H15Y20217   4.292   4.973   8.829  0.1048 -1.4641 -0.8496
  177SOPE  C31620218   4.267   5.164   8.724  0.0185  0.2459 -0.0474
  177SOPE  H16X20219   4.375   5.147   8.703  0.2291  1.5896 -0.0488
  177SOPE  H16Y20220   4.242   5.270   8.744 -4.5220 -0.4226 -1.6943
  177SOPE  C31720221   4.196   5.117   8.593  0.2001 -0.2517  0.3743
  177SOPE  H17X20222   4.241   5.169   8.506  0.2536  2.3769  1.9015
  177SOPE  H17Y20223   4.094   5.161   8.594  0.2032 -0.1845 -1.0008
  177SOPE  C31820224   4.190   4.965   8.569 -0.0501  0.0773  0.5496
  177SOPE  H18X20225   4.145   4.922   8.660  0.5502 -0.0228  0.8010
  177SOPE  H18Y20226   4.292   4.925   8.551 -0.7943 -0.6199 -2.4287
  177SOPE  H18Z20227   4.133   4.950   8.474  0.2465  3.2757 -0.2113
  178SOPE     N20228   1.600   3.293  10.493 -0.3699  0.0550  0.2878
  178SOPE   HN120229   1.671   3.367  10.472  0.2286 -1.2274 -2.4041
  178SOPE   HN220230   1.525   3.325  10.557  1.0793  1.7734  1.1876
  178SOPE   HN320231   1.648   3.223  10.552  0.7853  0.9532  0.4318
  178SOPE   C1220232   1.559   3.228  10.364 -0.0957 -0.2529  1.0885
  178SOPE  H12A20233   1.545   3.307  10.287  2.8857 -0.5572  0.1762
  178SOPE  H12B20234   1.463   3.176  10.387 -0.6133  0.3344  0.2706
  178SOPE   C1120235   1.651   3.124  10.312  0.5521 -0.2823  0.0492
  178SOPE  H11A20236   1.744   3.175  10.279  0.1379  0.0882 -0.5647
  178SOPE  H11B20237   1.607   3.076  10.221 -2.1746 -1.9874  2.1961
  178SOPE     P20238   1.597   2.914  10.456  0.0593 -0.4254  0.0825
  178SOPE   O1320239   1.510   2.962  10.560  0.0249  0.1047 -0.2105
  178SOPE   O1420240   1.665   2.784  10.471  0.4843 -1.0122  0.3040
  178SOPE   O1220241   1.692   3.027  10.418  0.6386  0.1666  0.0548
  178SOPE   O1120242   1.508   2.897  10.329 -0.0241 -0.7356 -0.1259
  178SOPE    C120243   1.471   2.781  10.250  0.4382  0.4253  0.2122
  178SOPE    HA20244   1.360   2.784  10.237  0.5101  0.1861 -0.4520
  178SOPE    HB20245   1.497   2.682  10.295  0.9704  1.7627  2.9789
  178SOPE    C220246   1.542   2.787  10.115 -0.1315 -0.2068 -0.1113
  178SOPE    HS20247   1.537   2.685  10.071  2.6805 -0.4388  0.0391
  178SOPE   O2120248   1.681   2.828  10.134  0.2101  0.0632 -0.2256
  178SOPE   C2120249   1.752   2.726  10.184  0.7243  0.0332  0.0977
  178SOPE   O2220250   1.719   2.608  10.183  0.0446 -0.0711 -0.0167
  178SOPE   C2220251   1.877   2.770  10.245 -0.9938  0.8634 -0.6520
  178SOPE   H2R20252   1.916   2.695  10.318 -0.1412  1.7878 -0.1545
  178SOPE   H2S20253   1.847   2.857  10.307  0.8247 -0.2969  1.9697
  178SOPE    C320254   1.479   2.893  10.026  0.1530  0.5430  0.0715
  178SOPE    HX20255   1.470   2.994  10.073 -0.8572  0.6565 -0.3729
  178SOPE    HY20256   1.372   2.868  10.018  0.6805 -1.3771 -1.1766
  178SOPE   O3120257   1.550   2.898   9.898  0.0782 -0.0611 -0.0935
  178SOPE   C3120258   1.631   2.999   9.872 -0.0676  0.2583  0.7717
  178SOPE   O3220259   1.624   3.108   9.931  0.0319  1.0940 -0.3053
  178SOPE   C3220260   1.736   2.947   9.771  1.2512 -0.3095  0.0922
  178SOPE   H2X20261   1.783   2.863   9.827 -2.3477 -2.0163  0.6516
  178SOPE   H2Y20262   1.812   3.027   9.758 -0.1036  0.9772 -0.0239
  178SOPE   C2320263   1.979   2.824  10.140  0.3338 -0.1237  0.0584
  178SOPE   H3R20264   2.020   2.914  10.190  1.1500 -0.1789 -0.4989
  178SOPE   H3S20265   1.918   2.879  10.065 -2.3451 -0.3734  1.9693
  178SOPE   C2420266   2.093   2.736  10.087  1.1989  0.4409  0.1774
  178SOPE   H4R20267   2.139   2.689  10.176 -0.3323  2.2871  1.9934
  178SOPE   H4S20268   2.052   2.650  10.030  0.6533 -0.0402  1.2879
  178SOPE   C2520269   2.185   2.812   9.985 -0.2334 -0.0622  0.0494
  178SOPE   H5R20270   2.243   2.887  10.043 -2.2600 -0.4956  2.7436
  178SOPE   H5S20271   2.251   2.731   9.948 -0.2922  0.5622 -1.4613
  178SOPE   C2620272   2.123   2.880   9.862  0.3086 -0.1769  0.2665
  178SOPE   H6R20273   2.054   2.805   9.818  0.2001 -0.2042  0.4837
  178SOPE   H6S20274   2.058   2.963   9.895 -0.7392 -1.1047  0.5814
  178SOPE   C2720275   2.224   2.936   9.767 -0.6000  0.8719 -0.9444
  178SOPE   H7R20276   2.297   2.995   9.826 -0.3094 -0.0976 -0.3133
  178SOPE   H7S20277   2.285   2.856   9.720 -1.1091  0.2983 -0.6370
  178SOPE   C2820278   2.186   3.031   9.658  0.3010 -0.1005 -1.7398
  178SOPE   H8R20279   2.148   3.125   9.703 -0.2326 -0.7337 -0.8598
  178SOPE   H8S20280   2.272   3.055   9.592  0.4218 -1.3588 -2.0543
  178SOPE   C2920281   2.073   2.972   9.577 -0.1293  0.4037  0.1725
  178SOPE   H9120282   1.993   2.918   9.630  1.0626 -0.3144  1.2948
  178SOPE  C21020283   2.068   2.959   9.445  0.4222 -0.3123  0.1332
  178SOPE  H10120284   1.991   2.897   9.395 -0.4416  2.0046 -1.4943
  178SOPE  C21120285   2.173   3.006   9.354  0.2805 -0.1533  0.0385
  178SOPE  H11R20286   2.239   2.918   9.339  0.6352 -0.1829  1.7270
  178SOPE  H11S20287   2.229   3.094   9.392 -0.4990 -0.1302  1.1535
  178SOPE  C21220288   2.134   3.055   9.214  0.1624 -0.7082 -0.2452
  178SOPE  H12R20289   2.221   3.106   9.169 -0.1068 -0.4915 -0.5260
  178SOPE  H12S20290   2.048   3.126   9.220  1.3966  0.8724 -1.0514
  178SOPE  C21320291   2.087   2.935   9.126 -0.8697 -0.0362  0.4071
  178SOPE  H13R20292   1.989   2.897   9.162 -1.3317  0.9410  0.2158
  178SOPE  H13S20293   2.145   2.844   9.150  0.8242  0.9394  0.1072
  178SOPE  C21420294   2.078   2.951   8.978  0.0892  0.1003 -1.0564
  178SOPE  H14R20295   1.987   3.014   8.970 -0.1811 -0.3966 -2.0712
  178SOPE  H14S20296   2.054   2.858   8.922  1.1113 -0.7917 -0.0309
  178SOPE  C21520297   2.198   3.024   8.909  0.4952  0.1417 -0.3103
  178SOPE  H15R20298   2.287   2.977   8.956  0.7120 -0.5576 -1.4071
  178SOPE  H15S20299   2.195   3.133   8.929  1.2184 -0.5786  4.1223
  178SOPE  C21620300   2.197   3.002   8.755  1.2125 -0.1719 -0.3366
  178SOPE  H16R20301   2.100   3.036   8.713  0.0570  0.6624  2.9256
  178SOPE  H16S20302   2.202   2.892   8.745  3.1841 -0.1836  0.4907
  178SOPE  C21720303   2.307   3.073   8.668 -0.3629  0.0301  0.5644
  178SOPE  H17R20304   2.291   3.032   8.566  0.9612  1.5898 -0.2801
  178SOPE  H17S20305   2.408   3.043   8.704  0.2314  0.0878 -1.0355
  178SOPE  C21820306   2.293   3.225   8.673 -0.9856  0.4016 -0.8401
  178SOPE  H18R20307   2.367   3.269   8.602  0.9124 -3.4432 -1.3735
  178SOPE  H18S20308   2.306   3.265   8.776 -1.9081 -1.5669  0.0686
  178SOPE  H18T20309   2.192   3.256   8.639 -1.2640  0.1742 -0.2163
  178SOPE   C3320310   1.677   2.902   9.635  0.1884  0.5976 -0.1363
  178SOPE   H3X20311   1.578   2.855   9.652  0.5419 -0.5124 -1.0707
  178SOPE   H3Y20312   1.747   2.826   9.595 -1.0341 -0.9700  0.6589
  178SOPE   C3420313   1.673   3.015   9.533  0.1378  0.1292  0.4628
  178SOPE   H4X20314   1.765   3.077   9.531  0.2616 -0.0698 -0.6271
  178SOPE   H4Y20315   1.603   3.088   9.578  0.3579 -0.9021  2.5159
  178SOPE   C3520316   1.640   2.973   9.390  0.5323 -0.0864 -0.0217
  178SOPE   H5X20317   1.535   2.938   9.388 -0.9300  4.0448 -4.0731
  178SOPE   H5Y20318   1.708   2.889   9.363 -1.6771 -2.2583  1.0195
  178SOPE   C3620319   1.623   3.090   9.297 -0.5736 -0.5755  0.0046
  178SOPE   H6X20320   1.722   3.123   9.258 -1.5401  1.4448 -0.8159
  178SOPE   H6Y20321   1.573   3.181   9.337  1.3602  0.4841  0.0581
  178SOPE   C3720322   1.546   3.057   9.168 -0.4656  0.8576  0.4532
  178SOPE   H7X20323   1.546   3.149   9.107  0.4544  1.2221  0.9907
  178SOPE   H7Y20324   1.444   3.027   9.201 -0.9669  0.6974 -1.2119
  178SOPE   C3820325   1.605   2.944   9.086 -0.1748  0.7175 -0.1342
  178SOPE   H8X20326   1.570   2.853   9.139  1.7341 -1.9243 -3.1736
  178SOPE   H8Y20327   1.716   2.941   9.085 -0.1782  0.6035 -0.6648
  178SOPE   C3920328   1.544   2.956   8.946 -0.0790  0.4195 -0.4657
  178SOPE   H9X20329   1.577   3.053   8.902  0.0897  0.5086 -0.1487
  178SOPE   H9Y20330   1.433   2.959   8.952 -0.0077  0.2599  1.3208
  178SOPE  C31020331   1.564   2.835   8.859 -0.7231  0.5200  0.1705
  178SOPE  H10X20332   1.669   2.815   8.828 -1.3906  0.2444 -2.0263
  178SOPE  H10Y20333   1.505   2.873   8.772  0.2054  0.8774 -0.3046
  178SOPE  C31120334   1.504   2.704   8.911  0.2623  0.3617  0.1493
  178SOPE  H11X20335   1.401   2.717   8.951  0.0770  1.0844 -0.5538
  178SOPE  H11Y20336   1.569   2.661   8.990  0.5805  0.0591 -0.2721
  178SOPE  C31220337   1.514   2.597   8.802 -0.5024 -0.2079  0.0836
  178SOPE  H12X20338   1.619   2.595   8.765 -0.2864  1.3092  0.5673
  178SOPE  H12Y20339   1.451   2.629   8.716  0.4612 -0.4647 -0.7261
  178SOPE  C31320340   1.480   2.454   8.854 -0.2401  0.0146 -0.3467
  178SOPE  H13X20341   1.391   2.458   8.919 -0.6848 -0.8741 -0.8906
  178SOPE  H13Y20342   1.572   2.418   8.905  0.6394 -2.6638 -3.6769
  178SOPE  C31420343   1.448   2.366   8.734 -0.3913  0.2641  0.1483
  178SOPE  H14X20344   1.519   2.382   8.650  0.8791  0.6762  1.2776
  178SOPE  H14Y20345   1.344   2.385   8.699  0.2137  3.4117 -0.1352
  178SOPE  C31520346   1.453   2.213   8.768 -0.4951 -0.0490  0.3599
  178SOPE  H15X20347   1.559   2.195   8.799 -0.6286 -1.7495 -0.1384
  178SOPE  H15Y20348   1.439   2.162   8.671 -0.5891 -3.8338  2.2947
  178SOPE  C31620349   1.353   2.163   8.870  0.0967 -0.1976 -0.2600
  178SOPE  H16X20350   1.251   2.205   8.856  0.3519  0.9053  1.1140
  178SOPE  H16Y20351   1.380   2.198   8.972  0.4647 -3.2857  0.7445
  178SOPE  C31720352   1.333   2.014   8.864 -0.5338  0.1371  0.2262
  178SOPE  H17X20353   1.275   1.974   8.778 -2.9952  1.5798  1.1490
  178SOPE  H17Y20354   1.272   1.985   8.953 -0.8257 -1.3244 -0.4366
  178SOPE  C31820355   1.469   1.940   8.865  0.3422  0.7497 -0.0561
  178SOPE  H18X20356   1.523   1.980   8.953  0.8035 -1.5967  0.7822
  178SOPE  H18Y20357   1.516   1.949   8.765  1.5599  0.5129  0.4875
  178SOPE  H18Z20358   1.457   1.832   8.891 -2.6480  0.1143 -3.6566
  179SOPE     N20359   6.778   4.058   6.372  0.4023 -0.3419 -0.0246
  179SOPE   HN120360   6.744   3.960   6.376 -0.0222 -0.1844  0.2353
  179SOPE   HN220361   6.751   4.093   6.277  0.9412  1.5692  0.5019
  179SOPE   HN320362   6.882   4.056   6.371  0.3931 -0.6625 -0.1962
  179SOPE   C1220363   6.717   4.139   6.486  0.1982  0.4322  0.1299
  179SOPE  H12A20364   6.611   4.111   6.503 -0.6525  2.5592 -1.4089
  179SOPE  H12B20365   6.742   4.247   6.479 -0.1933  0.5638  0.7775
  179SOPE   C1120366   6.789   4.100   6.618 -0.1264 -0.2370 -0.2667
  179SOPE  H11A20367   6.748   4.001   6.647  0.3038 -0.8000 -1.5390
  179SOPE  H11B20368   6.761   4.165   6.704 -1.5195  1.2153 -1.7787
  179SOPE     P20369   7.041   4.035   6.685  0.0281 -0.0389 -0.1050
  179SOPE   O1320370   7.175   4.059   6.635 -0.2568 -0.4127  0.0550
  179SOPE   O1420371   7.007   3.893   6.717 -0.4384 -0.4993 -0.0524
  179SOPE   O1220372   6.930   4.091   6.587  0.4861 -0.3140 -0.1867
  179SOPE   O1120373   7.013   4.118   6.811  0.2146 -0.1450  0.4310
  179SOPE    C120374   7.013   4.260   6.815  0.3060  0.0438 -0.2161
  179SOPE    HA20375   6.922   4.297   6.868 -1.1464  1.6347 -3.6631
  179SOPE    HB20376   7.014   4.310   6.716  1.8121 -0.7239 -0.5919
  179SOPE    C220377   7.146   4.311   6.878 -0.0010  1.1414 -0.3684
  179SOPE    HS20378   7.228   4.254   6.830 -0.8850 -1.9053  1.5574
  179SOPE   O2120379   7.151   4.303   7.021 -0.2494  0.3131 -0.0884
  179SOPE   C2120380   7.271   4.282   7.069 -0.6254  0.1799  0.1311
  179SOPE   O2220381   7.377   4.284   7.012 -0.0137 -0.1401  0.7662
  179SOPE   C2220382   7.259   4.249   7.215  0.2580 -0.0846  0.5697
  179SOPE   H2R20383   7.281   4.142   7.233 -0.6223 -0.5402 -0.9583
  179SOPE   H2S20384   7.152   4.256   7.244  0.6472 -0.5644  2.2045
  179SOPE    C320385   7.163   4.462   6.840  0.1121  0.1305 -0.2480
  179SOPE    HX20386   7.163   4.470   6.730  2.1261 -2.1167 -0.4564
  179SOPE    HY20387   7.265   4.504   6.855 -1.0041  1.4688  4.5968
  179SOPE   O3120388   7.055   4.538   6.902 -0.0960  0.0106  0.8844
  179SOPE   C3120389   7.083   4.601   7.011  0.6522 -0.7050 -0.1657
  179SOPE   O3220390   7.196   4.615   7.052  0.0089 -0.0693 -0.0625
  179SOPE   C3220391   6.946   4.626   7.075 -0.5572 -0.4378 -0.3314
  179SOPE   H2X20392   6.876   4.548   7.039 -0.2296 -1.5323  1.3516
  179SOPE   H2Y20393   6.912   4.726   7.039  0.6623 -0.3038 -1.1446
  179SOPE   C2320394   7.347   4.331   7.311  0.5395 -0.2677  0.1610
  179SOPE   H3R20395   7.372   4.432   7.273 -0.8317  1.1731  2.9500
  179SOPE   H3S20396   7.447   4.286   7.322  1.0632  0.7779 -0.2885
  179SOPE   C2420397   7.289   4.340   7.452  0.0379 -0.0770  0.1202
  179SOPE   H4R20398   7.349   4.425   7.490  0.6924 -0.2400 -0.5200
  179SOPE   H4S20399   7.183   4.372   7.445  0.2680  0.5338 -0.6106
  179SOPE   C2520400   7.300   4.218   7.530 -0.0622  0.1705  0.5999
  179SOPE   H5R20401   7.239   4.140   7.478 -0.1322  0.0528  0.8582
  179SOPE   H5S20402   7.403   4.177   7.538  1.5094  3.2828 -2.5165
  179SOPE   C2620403   7.240   4.226   7.676  0.2190 -0.5998 -0.1153
  179SOPE   H6R20404   7.136   4.264   7.664 -0.5284 -2.0507  1.5378
  179SOPE   H6S20405   7.220   4.122   7.712 -0.4220 -0.5298 -0.2537
  179SOPE   C2720406   7.322   4.309   7.780 -0.5887  0.0474 -0.7772
  179SOPE   H7R20407   7.381   4.232   7.834  0.0746  0.9508 -0.1752
  179SOPE   H7S20408   7.385   4.376   7.717 -1.0213  0.7934 -0.4290
  179SOPE   C2820409   7.241   4.395   7.881  0.4184  0.0355  0.6455
  179SOPE   H8R20410   7.317   4.469   7.913 -0.8107  2.1300 -1.1260
  179SOPE   H8S20411   7.171   4.458   7.821  2.1839  1.7626  0.3558
  179SOPE   C2920412   7.180   4.305   7.988  0.2996  0.5288  0.1589
  179SOPE   H9120413   7.181   4.196   7.977  1.3312  0.3975  1.4344
  179SOPE  C21020414   7.124   4.346   8.102 -0.7600 -0.4433  0.3153
  179SOPE  H10120415   7.084   4.262   8.160  1.5229 -0.8076  1.4184
  179SOPE  C21120416   7.104   4.495   8.151 -0.1384 -0.0978 -0.5270
  179SOPE  H11R20417   7.015   4.495   8.218  0.9082  2.4019  0.9409
  179SOPE  H11S20418   7.074   4.557   8.064 -1.3414 -2.8911 -2.1619
  179SOPE  C21220419   7.212   4.559   8.237  0.3289  0.5675 -0.7685
  179SOPE  H12R20420   7.301   4.580   8.173  0.2284 -1.6041 -1.6606
  179SOPE  H12S20421   7.254   4.491   8.314 -2.1459 -0.4672 -0.2988
  179SOPE  C21320422   7.161   4.681   8.303  0.5986  0.6353 -0.5501
  179SOPE  H13R20423   7.076   4.739   8.261  0.9576  1.9365  0.4913
  179SOPE  H13S20424   7.244   4.752   8.322  0.3712  0.7522  0.0199
  179SOPE  C21420425   7.116   4.643   8.452 -0.3611  0.6267  0.0624
  179SOPE  H14R20426   7.201   4.587   8.497  0.3878 -0.1162 -2.1781
  179SOPE  H14S20427   7.034   4.569   8.452 -0.7159  1.0116  1.8966
  179SOPE  C21520428   7.081   4.765   8.534  0.2925 -0.0786  0.3718
  179SOPE  H15R20429   7.022   4.737   8.624  1.9101 -1.1942  1.1140
  179SOPE  H15S20430   7.024   4.834   8.469  0.3098  0.2492  0.7056
  179SOPE  C21620431   7.205   4.830   8.587  0.5100  0.5036 -0.4977
  179SOPE  H16R20432   7.276   4.864   8.509  2.3584  0.9004  1.3087
  179SOPE  H16S20433   7.257   4.749   8.642  1.0494  1.1916  0.0154
  179SOPE  C21720434   7.170   4.950   8.684 -0.6194 -0.3936  0.0962
  179SOPE  H17R20435   7.092   4.932   8.761  1.8136 -0.1587  2.7287
  179SOPE  H17S20436   7.123   5.032   8.626 -1.3060 -0.7004  0.2170
  179SOPE  C21820437   7.285   5.000   8.761 -1.0060  0.0205 -0.2127
  179SOPE  H18R20438   7.343   4.918   8.808 -0.1512 -0.1964 -1.6182
  179SOPE  H18S20439   7.260   5.070   8.843 -1.4284  0.2607 -0.5473
  179SOPE  H18T20440   7.358   5.045   8.691 -0.8101 -0.5235 -0.3584
  179SOPE   C3320441   6.946   4.622   7.233 -0.0711  0.2535  0.2890
  179SOPE   H3X20442   6.852   4.666   7.274 -1.7694 -2.2673 -0.7393
  179SOPE   H3Y20443   7.032   4.679   7.274  0.2587 -1.1118  1.5370
  179SOPE   C3420444   6.962   4.485   7.296 -0.1961 -0.0416 -0.1708
  179SOPE   H4X20445   7.068   4.454   7.308 -0.7640 -2.1880 -0.4433
  179SOPE   H4Y20446   6.923   4.398   7.239  0.2719  0.1971 -0.8577
  179SOPE   C3520447   6.890   4.484   7.433  0.3829  0.4538  0.3597
  179SOPE   H5X20448   6.884   4.391   7.493 -1.2470 -0.0941 -0.6292
  179SOPE   H5Y20449   6.781   4.498   7.413  0.3314  4.0760  2.7493
  179SOPE   C3620450   6.918   4.593   7.531 -0.8715 -0.3974  0.8242
  179SOPE   H6X20451   6.888   4.692   7.492 -1.2073 -2.0597 -3.3913
  179SOPE   H6Y20452   7.028   4.597   7.546 -0.9261 -0.7530  1.3577
  179SOPE   C3720453   6.865   4.558   7.673 -0.0134 -0.5671 -0.4801
  179SOPE   H7X20454   6.922   4.468   7.704  1.9466 -0.5990 -3.9833
  179SOPE   H7Y20455   6.757   4.532   7.676 -0.6960  1.6683 -3.7966
  179SOPE   C3820456   6.885   4.666   7.777  0.2526 -0.2931  0.2414
  179SOPE   H8X20457   6.828   4.747   7.727 -0.1535 -1.9160 -1.9984
  179SOPE   H8Y20458   6.994   4.682   7.792  0.4457 -1.6515  0.3158
  179SOPE   C3920459   6.813   4.619   7.902 -0.0850  0.7032  0.0342
  179SOPE   H9X20460   6.859   4.519   7.919 -2.0310 -0.2195 -0.0673
  179SOPE   H9Y20461   6.704   4.604   7.888 -0.4562  0.5165  2.7656
  179SOPE  C31020462   6.834   4.717   8.028  0.2284 -0.3860 -0.0642
  179SOPE  H10X20463   6.791   4.814   7.995  3.0761  0.9146 -0.0784
  179SOPE  H10Y20464   6.941   4.729   8.055  0.1467 -0.0691  0.1292
  179SOPE  C31120465   6.741   4.673   8.143  0.1875 -0.0965  0.1839
  179SOPE  H11X20466   6.776   4.575   8.180  0.3758 -0.2228 -0.3263
  179SOPE  H11Y20467   6.639   4.654   8.105 -0.8585  0.9780  2.3643
  179SOPE  C31220468   6.738   4.775   8.255 -0.3410 -0.1229  0.4003
  179SOPE  H12X20469   6.677   4.862   8.223 -0.3087 -0.8908 -1.8725
  179SOPE  H12Y20470   6.846   4.800   8.266 -0.0422 -1.5278  0.8741
  179SOPE  C31320471   6.707   4.726   8.397 -0.1858  0.0001  0.4237
  179SOPE  H13X20472   6.790   4.659   8.430 -1.1269 -1.0669  0.6315
  179SOPE  H13Y20473   6.617   4.662   8.393  1.0883 -1.7452 -1.6741
  179SOPE  C31420474   6.687   4.839   8.501  0.3659  0.6569 -0.8147
  179SOPE  H14X20475   6.592   4.891   8.476 -1.0135 -0.6760  1.4691
  179SOPE  H14Y20476   6.761   4.921   8.494  0.2713  0.9587  1.3346
  179SOPE  C31520477   6.680   4.784   8.639 -0.1279 -0.6975  0.0035
  179SOPE  H15X20478   6.761   4.714   8.668  0.7867  1.0575  1.7940
  179SOPE  H15Y20479   6.597   4.710   8.638 -1.6435  0.9778 -1.8383
  179SOPE  C31620480   6.644   4.882   8.756 -0.2435 -0.0989  0.4983
  179SOPE  H16X20481   6.646   4.819   8.847 -2.2318  1.6883  1.8370
  179SOPE  H16Y20482   6.535   4.898   8.743 -0.0488 -0.0973 -1.2375
  179SOPE  C31720483   6.733   5.005   8.774 -0.0645  0.5251  1.0836
  179SOPE  H17X20484   6.662   5.086   8.801  0.4738  1.0304  1.0014
  179SOPE  H17Y20485   6.786   5.052   8.688  0.9202  1.0527  1.9726
  179SOPE  C31820486   6.829   4.984   8.890  0.1529  0.4177  0.2574
  179SOPE  H18X20487   6.765   4.947   8.973 -2.0792  3.5467 -0.0138
  179SOPE  H18Y20488   6.875   5.083   8.911 -1.1794  1.2436 -0.6866
  179SOPE  H18Z20489   6.897   4.898   8.870 -1.4402 -0.5046 -1.2754
  180SOPE     N20490   0.093   3.634   6.641 -0.3586  0.0022 -0.1295
  180SOPE   HN120491   0.104   3.534   6.670 -2.1477  0.0509  0.7844
  180SOPE   HN220492   0.145   3.687   6.713  1.0854 -0.2928 -0.9362
  180SOPE   HN320493  -0.008   3.656   6.647 -0.6663 -1.6818  1.6399
  180SOPE   C1220494   0.131   3.633   6.497  0.1526 -0.9260  0.0143
  180SOPE  H12A20495   0.241   3.625   6.485  0.0179  0.2213 -2.1867
  180SOPE  H12B20496   0.104   3.733   6.456 -1.8405 -1.4636 -0.0508
  180SOPE   C1120497   0.049   3.543   6.404 -0.0633 -0.6984  0.0538
  180SOPE  H11A20498   0.060   3.435   6.429  0.0903 -0.9343 -1.0360
  180SOPE  H11B20499   0.103   3.560   6.309  0.0632 -0.2720  0.2020
  180SOPE     P20500  -0.143   3.692   6.309 -0.4937 -0.2583  0.3015
  180SOPE   O1320501  -0.087   3.655   6.176 -0.0316  0.0538 -0.1282
  180SOPE   O1420502  -0.106   3.824   6.367  0.2056  0.0239  0.3932
  180SOPE   O1220503  -0.091   3.588   6.410 -0.3092  0.4627 -0.2350
  180SOPE   O1120504  -0.299   3.657   6.315 -0.1982 -0.3735 -0.5092
  180SOPE    C120505  -0.380   3.750   6.400  0.6313  0.1072  0.7356
  180SOPE    HA20506  -0.486   3.726   6.379  1.1677 -1.8181  0.1406
  180SOPE    HB20507  -0.366   3.856   6.367  1.6073 -1.2808 -3.6735
  180SOPE    C220508  -0.351   3.739   6.553  0.4593  0.1676  0.1085
  180SOPE    HS20509  -0.257   3.794   6.574  0.5937 -0.0874  0.1686
  180SOPE   O2120510  -0.349   3.603   6.589  0.3809 -0.9152 -0.4240
  180SOPE   C2120511  -0.260   3.566   6.677  0.5646  1.0973  0.3928
  180SOPE   O2220512  -0.167   3.632   6.715 -0.0107 -0.1356  0.0875
  180SOPE   C2220513  -0.295   3.427   6.715  0.0464 -0.5653  0.5303
  180SOPE   H2R20514  -0.199   3.370   6.713 -0.0324 -0.6664 -0.3444
  180SOPE   H2S20515  -0.353   3.382   6.632 -0.6033  3.7467 -1.4368
  180SOPE    C320516  -0.460   3.821   6.635  0.1563  0.8114  0.0721
  180SOPE    HX20517  -0.564   3.784   6.621 -0.5819  2.7703  0.2214
  180SOPE    HY20518  -0.466   3.929   6.608  1.4790  1.5669  2.5973
  180SOPE   O3120519  -0.427   3.807   6.780  0.0306 -0.0983  0.4817
  180SOPE   C3120520  -0.325   3.884   6.824 -0.1633  0.6092  0.3670
  180SOPE   O3220521  -0.274   3.973   6.759 -0.3562 -0.5204 -0.3034
  180SOPE   C3220522  -0.295   3.843   6.963  0.7640  0.5675 -1.0523
  180SOPE   H2X20523  -0.221   3.760   6.974  0.1342  0.1642  0.2909
  180SOPE   H2Y20524  -0.388   3.804   7.009  0.5791  1.2907 -0.8023
  180SOPE   C2320525  -0.354   3.436   6.853 -0.5738  0.6828 -0.1066
  180SOPE   H3R20526  -0.431   3.358   6.870 -0.2532  0.8479  2.1988
  180SOPE   H3S20527  -0.409   3.531   6.867  1.2921  2.0968 -2.0577
  180SOPE   C2420528  -0.245   3.422   6.964 -0.1111  0.1931 -0.2980
  180SOPE   H4R20529  -0.228   3.312   6.962 -2.0627 -0.1257 -0.1643
  180SOPE   H4S20530  -0.151   3.477   6.943  1.8523 -2.7938  0.3525
  180SOPE   C2520531  -0.288   3.477   7.095  0.6600 -0.3611 -0.6396
  180SOPE   H5R20532  -0.314   3.584   7.080 -1.5437 -0.3025  2.9962
  180SOPE   H5S20533  -0.388   3.430   7.106  0.7981 -0.1449  1.9812
  180SOPE   C2620534  -0.190   3.447   7.213  0.3425 -0.2766  0.0646
  180SOPE   H6R20535  -0.172   3.338   7.199 -0.3860 -0.5287  1.0727
  180SOPE   H6S20536  -0.098   3.508   7.200 -0.0123  0.2937  0.2006
  180SOPE   C2720537  -0.247   3.480   7.351 -0.2455  0.7019  0.2935
  180SOPE   H7R20538  -0.272   3.588   7.349 -0.8951  0.5403 -2.1860
  180SOPE   H7S20539  -0.340   3.422   7.369  1.1062 -1.8809 -0.6885
  180SOPE   C2820540  -0.140   3.470   7.460 -0.0291 -0.5433  0.1015
  180SOPE   H8R20541  -0.084   3.374   7.449  0.2621 -0.6378  2.1630
  180SOPE   H8S20542  -0.061   3.547   7.445 -0.1084 -0.3931  0.4521
  180SOPE   C2920543  -0.212   3.493   7.587 -0.6887  0.1103  0.4866
  180SOPE   H9120544  -0.260   3.591   7.575  0.7104  0.5689 -1.7624
  180SOPE  C21020545  -0.204   3.416   7.697 -0.3586 -1.3816 -0.6097
  180SOPE  H10120546  -0.270   3.445   7.781  0.4686  0.9678 -0.7413
  180SOPE  C21120547  -0.115   3.295   7.720  0.6875 -0.5594 -0.0308
  180SOPE  H11R20548  -0.007   3.319   7.713  1.2062 -2.4041  1.3615
  180SOPE  H11S20549  -0.139   3.225   7.637 -3.6928 -0.7405  1.2302
  180SOPE  C21220550  -0.133   3.227   7.857  0.9578 -0.6401  0.4291
  180SOPE  H12R20551  -0.084   3.129   7.838  0.8064 -0.4375 -1.0113
  180SOPE  H12S20552  -0.242   3.212   7.874  0.1154  2.5552 -1.8721
  180SOPE  C21320553  -0.069   3.302   7.967  0.1853  1.0325  0.0083
  180SOPE  H13R20554  -0.093   3.409   7.952 -1.5895  0.7687  0.8979
  180SOPE  H13S20555   0.042   3.297   7.954  0.6092 -0.0755  3.3473
  180SOPE  C21420556  -0.113   3.248   8.107 -0.7943 -0.1908 -0.8819
  180SOPE  H14R20557  -0.084   3.143   8.127  0.1410  0.1503 -0.3976
  180SOPE  H14S20558  -0.223   3.254   8.104 -0.7975 -0.8858 -2.8022
  180SOPE  C21520559  -0.067   3.339   8.218 -0.5483 -0.1878  0.2473
  180SOPE  H15R20560  -0.109   3.436   8.184  0.8046  0.3341  0.0409
  180SOPE  H15S20561   0.043   3.352   8.227 -0.7093 -0.1380  2.2524
  180SOPE  C21620562  -0.127   3.302   8.356  0.4942  0.3139  0.2019
  180SOPE  H16R20563  -0.083   3.205   8.389 -0.6967 -0.2095  0.2523
  180SOPE  H16S20564  -0.231   3.273   8.329  1.1499 -1.3770 -0.5826
  180SOPE  C21720565  -0.100   3.413   8.465 -0.3619  0.4340 -0.1190
  180SOPE  H17R20566   0.008   3.419   8.489 -0.4726 -0.5116  0.6830
  180SOPE  H17S20567  -0.158   3.389   8.557 -1.2720  2.3438 -0.1750
  180SOPE  C21820568  -0.148   3.554   8.427  0.2566  0.0360  0.5683
  180SOPE  H18R20569  -0.083   3.605   8.353 -0.2885 -0.1342 -0.0339
  180SOPE  H18S20570  -0.133   3.617   8.517  1.8888 -0.7109  0.8250
  180SOPE  H18T20571  -0.251   3.554   8.386  0.0320  0.7291  1.1232
  180SOPE   C3320572  -0.221   3.959   7.033  1.0121  0.1475  0.2164
  180SOPE   H3X20573  -0.282   4.052   7.027  1.2937  0.3560  0.4834
  180SOPE   H3Y20574  -0.123   3.973   6.982  0.2598 -0.8135 -1.5112
  180SOPE   C3420575  -0.190   3.931   7.178 -0.4154 -0.2208 -0.2987
  180SOPE   H4X20576  -0.145   4.027   7.211  0.6248 -0.8993  0.2645
  180SOPE   H4Y20577  -0.107   3.858   7.179 -2.5039 -2.6760 -0.1671
  180SOPE   C3520578  -0.309   3.907   7.273  0.0427 -0.3598  0.5197
  180SOPE   H5X20579  -0.356   3.809   7.251  0.9465 -0.8114  0.5744
  180SOPE   H5Y20580  -0.386   3.985   7.256 -1.0230 -0.8946  2.6452
  180SOPE   C3620581  -0.271   3.909   7.421  0.3124 -0.4825 -0.1190
  180SOPE   H6X20582  -0.246   4.012   7.456  1.7843 -0.6175 -0.7358
  180SOPE   H6Y20583  -0.188   3.836   7.431 -0.3188 -1.0925  0.7574
  180SOPE   C3720584  -0.395   3.872   7.505  0.1332 -1.1205 -0.6760
  180SOPE   H7X20585  -0.435   3.772   7.478 -0.8072 -1.3198  1.3949
  180SOPE   H7Y20586  -0.461   3.961   7.500 -1.1045 -2.0042 -0.2586
  180SOPE   C3820587  -0.362   3.860   7.661  0.2240 -0.3116 -0.1569
  180SOPE   H8X20588  -0.289   3.941   7.684 -0.2715  0.1610 -0.2324
  180SOPE   H8Y20589  -0.306   3.766   7.678 -3.3481 -2.5607 -0.3093
  180SOPE   C3920590  -0.473   3.848   7.765  0.0764 -0.6039  0.2932
  180SOPE   H9X20591  -0.534   3.756   7.764 -0.1556 -0.4552  0.5748
  180SOPE   H9Y20592  -0.540   3.936   7.750  0.0244 -0.7819 -0.5033
  180SOPE  C31020593  -0.409   3.844   7.910  0.0339 -0.6138  0.6875
  180SOPE  H10X20594  -0.345   3.932   7.932 -2.0629  0.9233  0.7236
  180SOPE  H10Y20595  -0.336   3.761   7.900  0.3893 -0.0501 -1.7981
  180SOPE  C31120596  -0.501   3.804   8.018 -0.0337  0.7522  0.0937
  180SOPE  H11X20597  -0.534   3.699   8.003  1.2107  0.2657  0.7269
  180SOPE  H11Y20598  -0.597   3.860   8.029 -0.7593 -0.1151 -1.6581
  180SOPE  C31220599  -0.430   3.813   8.156 -0.4769 -0.0356  0.0762
  180SOPE  H12X20600  -0.372   3.905   8.176 -1.1273  0.7056 -1.3992
  180SOPE  H12Y20601  -0.348   3.737   8.158 -1.3330 -0.9741  0.2255
  180SOPE  C31320602  -0.530   3.802   8.267  0.2944 -0.6526  0.3182
  180SOPE  H13X20603  -0.551   3.692   8.270 -0.3801 -0.5488 -0.3892
  180SOPE  H13Y20604  -0.618   3.859   8.231 -1.0545 -2.5887  0.4485
  180SOPE  C31420605  -0.478   3.842   8.403 -0.2076  0.6182  0.1124
  180SOPE  H14X20606  -0.441   3.947   8.404 -0.9014  0.8958 -2.1238
  180SOPE  H14Y20607  -0.386   3.789   8.436  0.7852  0.1244 -3.2475
  180SOPE  C31520608  -0.580   3.826   8.514 -0.9438  0.6731  0.6163
  180SOPE  H15X20609  -0.535   3.798   8.611  2.8443  0.2180 -1.1842
  180SOPE  H15Y20610  -0.646   3.738   8.496  2.4150 -1.5789 -1.2436
  180SOPE  C31620611  -0.670   3.952   8.528  0.3111 -0.0994  0.0323
  180SOPE  H16X20612  -0.779   3.936   8.533  0.7247 -2.5048  2.5521
  180SOPE  H16Y20613  -0.658   4.007   8.432 -1.4107 -0.9560 -0.6705
  180SOPE  C31720614  -0.616   4.046   8.636  0.7013  0.9502  0.5661
  180SOPE  H17X20615  -0.515   4.085   8.610  1.5138 -0.5643  1.3730
  180SOPE  H17Y20616  -0.595   3.985   8.726  1.6655 -1.4056 -1.1947
  180SOPE  C31820617  -0.708   4.160   8.655  0.0259 -0.1806  0.6452
  180SOPE  H18X20618  -0.681   4.226   8.740 -1.0559  0.4695  0.4950
  180SOPE  H18Y20619  -0.813   4.128   8.673 -0.0032 -0.4681  0.0015
  180SOPE  H18Z20620  -0.707   4.213   8.557  0.7151 -3.5357 -1.2638
  181SOPE     N20621   6.315   1.384   6.190 -1.0665  0.2306 -0.5279
  181SOPE   HN120622   6.416   1.404   6.179 -0.9978 -0.1188 -0.5656
  181SOPE   HN220623   6.288   1.284   6.176 -1.6014  0.5157 -1.5392
  181SOPE   HN320624   6.277   1.452   6.121 -2.4725 -0.1087 -0.1152
  181SOPE   C1220625   6.253   1.421   6.323  0.1697  0.2932 -0.4712
  181SOPE  H12A20626   6.313   1.403   6.414  0.5951  2.1511 -0.3745
  181SOPE  H12B20627   6.164   1.355   6.335 -1.1261  2.5877  3.0126
  181SOPE   C1120628   6.219   1.566   6.311  0.8250  0.1529  0.1198
  181SOPE  H11A20629   6.314   1.624   6.305  1.2074 -0.2143  2.2162
  181SOPE  H11B20630   6.165   1.584   6.406 -2.0086 -1.7918 -1.0340
  181SOPE     P20631   5.989   1.594   6.196  0.3253  0.1096  0.2724
  181SOPE   O1320632   5.948   1.501   6.301 -0.6813 -0.1216 -0.5699
  181SOPE   O1420633   5.922   1.572   6.067 -0.2207 -0.6487  0.2490
  181SOPE   O1220634   6.147   1.588   6.185 -0.8756 -0.0085  0.8529
  181SOPE   O1120635   5.960   1.742   6.241 -0.4107 -0.1033 -0.0519
  181SOPE    C120636   6.004   1.811   6.356  0.1041 -0.2150  1.2160
  181SOPE    HA20637   5.980   1.918   6.336 -2.1805 -1.0257 -0.6846
  181SOPE    HB20638   6.115   1.804   6.360  0.3076  0.2299 -1.8043
  181SOPE    C220639   5.932   1.770   6.486 -0.4018 -0.2373  0.0789
  181SOPE    HS20640   5.970   1.667   6.502  1.7139  0.2944 -1.3403
  181SOPE   O2120641   5.787   1.759   6.469 -0.3997  0.4958 -0.5333
  181SOPE   C2120642   5.729   1.673   6.549  0.3815  0.5579 -0.7224
  181SOPE   O2220643   5.790   1.587   6.610 -0.4529 -0.2095 -0.4793
  181SOPE   C2220644   5.569   1.704   6.553 -0.1916  0.4866 -0.5870
  181SOPE   H2R20645   5.520   1.607   6.574 -0.6191  0.9805  0.7367
  181SOPE   H2S20646   5.555   1.738   6.448 -0.2221 -2.0829 -1.4447
  181SOPE    C320647   5.965   1.871   6.608  0.0959  0.6242  0.2857
  181SOPE    HX20648   5.903   1.962   6.597  1.8464  1.6087 -1.9853
  181SOPE    HY20649   6.070   1.905   6.596 -0.6529  2.7559 -0.4842
  181SOPE   O3120650   5.947   1.809   6.738  0.0531  0.0395  0.8248
  181SOPE   C3120651   6.040   1.726   6.775  0.2732  0.3824 -0.8458
  181SOPE   O3220652   6.140   1.695   6.711 -0.1943  0.5449 -0.1618
  181SOPE   C3220653   5.984   1.654   6.901  0.0099 -0.2264 -0.5453
  181SOPE   H2X20654   5.890   1.605   6.869  0.4163 -1.5017  0.1943
  181SOPE   H2Y20655   5.973   1.730   6.981  0.6150  1.3009 -1.8681
  181SOPE   C2320656   5.538   1.807   6.664  0.2925 -0.4732  0.7652
  181SOPE   H3R20657   5.440   1.858   6.653  0.5067 -0.6382 -2.1573
  181SOPE   H3S20658   5.608   1.892   6.649 -2.5681  1.4437 -2.3586
  181SOPE   C2420659   5.563   1.753   6.807  0.1255  0.1057  0.0984
  181SOPE   H4R20660   5.509   1.656   6.813  1.3734 -0.6547 -0.6286
  181SOPE   H4S20661   5.672   1.746   6.825  0.3297  0.0284 -1.0877
  181SOPE   C2520662   5.503   1.843   6.916 -0.1007 -0.0377  0.2194
  181SOPE   H5R20663   5.535   1.948   6.898  0.8944 -0.3911 -0.0927
  181SOPE   H5S20664   5.392   1.848   6.908 -0.2267 -2.3602  0.1129
  181SOPE   C2620665   5.536   1.792   7.055  0.0541 -0.5050 -0.3032
  181SOPE   H6R20666   5.482   1.853   7.130  0.9485 -0.3970  0.2680
  181SOPE   H6S20667   5.494   1.690   7.063 -1.8820  0.4536  2.9369
  181SOPE   C2720668   5.689   1.782   7.087 -0.3486  0.4511  0.8309
  181SOPE   H7R20669   5.739   1.705   7.025  0.4476  2.6435 -1.2892
  181SOPE   H7S20670   5.746   1.874   7.064 -0.5599  0.5344  0.6361
  181SOPE   C2820671   5.702   1.743   7.240  0.5614 -0.3170 -0.3357
  181SOPE   H8R20672   5.673   1.639   7.265 -1.0003  0.0047 -0.7156
  181SOPE   H8S20673   5.811   1.745   7.261  0.6240 -2.1971 -0.4398
  181SOPE   C2920674   5.638   1.845   7.334 -0.3731  0.0091 -0.2670
  181SOPE   H9120675   5.663   1.951   7.322 -3.8189  0.8345 -0.4985
  181SOPE  C21020676   5.540   1.817   7.420  0.0702  0.6762  0.5225
  181SOPE  H10120677   5.501   1.893   7.490 -2.7800  0.0617 -0.3054
  181SOPE  C21120678   5.483   1.681   7.441 -0.0264 -0.6594  0.2084
  181SOPE  H11R20679   5.468   1.622   7.347  1.8849  2.1169 -1.9333
  181SOPE  H11S20680   5.381   1.686   7.485  0.1204  0.1117  0.4720
  181SOPE  C21220681   5.574   1.604   7.535  0.3973  0.1877 -0.2785
  181SOPE  H12R20682   5.574   1.649   7.637  0.6654 -0.9220  0.2145
  181SOPE  H12S20683   5.676   1.602   7.490 -0.1728  1.4074 -1.6359
  181SOPE  C21320684   5.519   1.467   7.552  0.2502 -0.5757  0.3241
  181SOPE  H13R20685   5.516   1.413   7.455  0.5601  0.9252 -0.5334
  181SOPE  H13S20686   5.409   1.473   7.569  0.3281 -0.5276  0.8267
  181SOPE  C21420687   5.604   1.378   7.645 -0.1437  0.5576 -0.2358
  181SOPE  H14R20688   5.710   1.386   7.612 -0.3237 -1.6871 -1.4321
  181SOPE  H14S20689   5.588   1.269   7.635  0.8847  0.4125 -0.3540
  181SOPE  C21520690   5.582   1.425   7.793 -0.5039  0.6338 -0.3573
  181SOPE  H15R20691   5.601   1.534   7.805  2.0515  0.1922 -0.2156
  181SOPE  H15S20692   5.647   1.379   7.870 -1.6894 -3.5552 -1.7552
  181SOPE  C21620693   5.442   1.403   7.843  0.4253  0.2208 -0.5570
  181SOPE  H16R20694   5.409   1.298   7.830  0.6307  0.1810 -0.7789
  181SOPE  H16S20695   5.376   1.464   7.777  1.0082 -1.4077 -2.7043
  181SOPE  C21720696   5.420   1.463   7.988 -0.4116  0.3416 -0.1869
  181SOPE  H17R20697   5.453   1.569   7.979 -1.4330  0.5194 -2.1443
  181SOPE  H17S20698   5.490   1.420   8.063  1.8833  1.7436 -1.4941
  181SOPE  C21820699   5.275   1.452   8.033  0.9514 -0.3249 -0.6616
  181SOPE  H18R20700   5.253   1.501   8.131 -5.0407  1.8640 -2.8747
  181SOPE  H18S20701   5.254   1.344   8.048 -0.2259  0.1148  1.0269
  181SOPE  H18T20702   5.207   1.491   7.954 -0.2158 -0.9919 -0.0084
  181SOPE   C3320703   6.081   1.537   6.955  0.3421 -0.0999  0.1326
  181SOPE   H3X20704   6.105   1.491   6.857  0.1719  1.0545 -0.4608
  181SOPE   H3Y20705   6.021   1.472   7.023  0.4432  1.6903  1.9798
  181SOPE   C3420706   6.217   1.572   7.015  0.0602  0.2569  1.2230
  181SOPE   H4X20707   6.279   1.617   6.934 -0.1265  2.2651  2.1812
  181SOPE   H4Y20708   6.284   1.486   7.039 -1.7026 -1.3804  0.3598
  181SOPE   C3520709   6.206   1.665   7.138 -0.1593 -0.1142  0.5915
  181SOPE   H5X20710   6.186   1.768   7.103  0.8633 -0.4203 -0.9302
  181SOPE   H5Y20711   6.308   1.668   7.181 -0.6253 -0.3326  1.7325
  181SOPE   C3620712   6.107   1.624   7.250 -0.0327 -0.0776 -0.0877
  181SOPE   H6X20713   6.145   1.525   7.281  2.3695  0.6884 -0.4435
  181SOPE   H6Y20714   6.001   1.610   7.218 -0.0078 -2.2026  0.7262
  181SOPE   C3720715   6.112   1.712   7.377 -0.0478  0.1895 -0.2969
  181SOPE   H7X20716   6.098   1.813   7.333  1.1923  0.5930  0.1877
  181SOPE   H7Y20717   6.209   1.704   7.431  1.5439  1.5844 -2.8243
  181SOPE   C3820718   5.994   1.696   7.479  0.3939  0.7514 -0.2127
  181SOPE   H8X20719   5.946   1.600   7.452  0.0374  0.8895 -0.0715
  181SOPE   H8Y20720   5.913   1.770   7.462  1.3659  2.2680  1.5734
  181SOPE   C3920721   6.039   1.708   7.620  0.0431  0.5627  0.1098
  181SOPE   H9X20722   6.079   1.809   7.642  1.9380  0.0263 -0.7095
  181SOPE   H9Y20723   6.122   1.639   7.645  0.3663  1.6965  2.3130
  181SOPE  C31020724   5.921   1.666   7.709 -0.1252  0.4644  0.0970
  181SOPE  H10X20725   5.893   1.559   7.697  1.2502  0.1796 -0.6618
  181SOPE  H10Y20726   5.834   1.735   7.701  0.1965  0.8872  0.2425
  181SOPE  C31120727   5.968   1.665   7.854 -0.2146  0.5454 -0.7438
  181SOPE  H11X20728   6.019   1.762   7.869  0.8327 -0.2720  1.2624
  181SOPE  H11Y20729   6.041   1.581   7.865  0.9519  1.5213 -0.9580
  181SOPE  C31220730   5.866   1.647   7.967 -1.2436 -0.2646  0.0944
  181SOPE  H12X20731   5.926   1.599   8.046 -1.1050  0.6427  0.5475
  181SOPE  H12Y20732   5.797   1.564   7.940 -0.9896 -0.2655 -0.5787
  181SOPE  C31320733   5.807   1.777   8.018 -0.0356  0.3356  0.2273
  181SOPE  H13X20734   5.745   1.828   7.941 -0.0149 -1.1623 -0.8268
  181SOPE  H13Y20735   5.895   1.841   8.041 -0.5967  2.1312 -2.3608
  181SOPE  C31420736   5.712   1.767   8.142 -0.0523 -0.1882  0.4847
  181SOPE  H14X20737   5.642   1.686   8.111  0.1766 -0.0421 -0.4241
  181SOPE  H14Y20738   5.659   1.864   8.150 -0.9504 -0.4715 -1.6333
  181SOPE  C31520739   5.782   1.716   8.271  0.4295 -0.5868  0.7246
  181SOPE  H15X20740   5.851   1.796   8.307  0.8458 -1.2510  1.4156
  181SOPE  H15Y20741   5.846   1.627   8.255  0.7067  0.0100 -1.6379
  181SOPE  C31620742   5.673   1.697   8.373 -0.6495 -0.4693 -0.6607
  181SOPE  H16X20743   5.605   1.614   8.342  0.2398 -0.5396 -2.4918
  181SOPE  H16Y20744   5.610   1.788   8.367  0.1394 -0.0498 -3.0084
  181SOPE  C31720745   5.714   1.673   8.521  0.2920  0.0533 -0.2570
  181SOPE  H17X20746   5.767   1.576   8.530  0.9608  0.6026  2.0438
  181SOPE  H17Y20747   5.617   1.663   8.574  0.7702 -0.7386  0.4777
  181SOPE  C31820748   5.802   1.786   8.582  0.1818 -0.1571 -0.6878
  181SOPE  H18X20749   5.752   1.884   8.572  1.8978  0.9593  1.2603
  181SOPE  H18Y20750   5.903   1.798   8.537 -0.7993 -0.0951 -2.9147
  181SOPE  H18Z20751   5.811   1.767   8.691  1.4499  4.2176  0.0659
  182SOPE     N20752   5.674   3.138   6.065  0.1636 -0.6276 -0.3275
  182SOPE   HN120753   5.749   3.209   6.075 -0.0727 -0.2427 -1.1395
  182SOPE   HN220754   5.583   3.172   6.027 -0.3293  0.6094  1.8708
  182SOPE   HN320755   5.652   3.097   6.157 -1.1646 -0.9326 -0.7683
  182SOPE   C1220756   5.728   3.019   5.982 -0.4612  0.3803  0.2572
  182SOPE  H12A20757   5.780   3.053   5.890 -1.2399 -1.4272 -0.8824
  182SOPE  H12B20758   5.637   2.962   5.952 -0.1258  0.2379 -0.4992
  182SOPE   C1120759   5.814   2.933   6.076 -0.6714 -0.7683 -0.0495
  182SOPE  H11A20760   5.837   2.843   6.015 -0.1575 -0.4130 -0.3831
  182SOPE  H11B20761   5.756   2.902   6.165 -1.7886 -1.2262 -0.9262
  182SOPE     P20762   6.049   2.952   6.188  0.1901  0.0665  0.1588
  182SOPE   O1320763   6.154   3.052   6.185  0.6527 -0.0743  0.6085
  182SOPE   O1420764   6.075   2.818   6.135  0.4343 -0.2494  0.3711
  182SOPE   O1220765   5.933   3.006   6.105 -0.0495 -0.9587  0.7704
  182SOPE   O1120766   6.005   2.928   6.337  0.1448  0.0609  0.2571
  182SOPE    C120767   5.929   3.030   6.407 -0.3177  0.0602  0.1003
  182SOPE    HA20768   5.874   2.987   6.494  0.2377 -1.1988 -0.1720
  182SOPE    HB20769   5.846   3.073   6.347 -0.5224 -0.2121  0.1856
  182SOPE    C220770   6.019   3.136   6.466 -0.0278 -0.4347  0.0325
  182SOPE    HS20771   6.087   3.174   6.386  0.6480 -0.7806  0.4470
  182SOPE   O2120772   6.091   3.068   6.577 -0.5326 -0.4679 -0.1323
  182SOPE   C2120773   6.223   3.080   6.575  0.4980  0.0064 -0.1414
  182SOPE   O2220774   6.282   3.161   6.509 -0.1506  0.1560  0.5224
  182SOPE   C2220775   6.285   2.972   6.662  0.0435  0.6504 -0.6653
  182SOPE   H2R20776   6.366   2.917   6.609  0.6456 -0.2152  1.0905
  182SOPE   H2S20777   6.211   2.894   6.690  0.3766  0.5903  0.0621
  182SOPE    C320778   5.941   3.260   6.525  0.2430  0.2072  0.2125
  182SOPE    HX20779   5.881   3.229   6.613  0.1210  2.9212  1.1561
  182SOPE    HY20780   5.872   3.297   6.446  0.7867  0.4061 -0.1722
  182SOPE   O3120781   6.032   3.360   6.566 -0.4420 -0.3134  0.3991
  182SOPE   C3120782   5.970   3.476   6.590 -0.2900 -0.3407 -0.2977
  182SOPE   O3220783   5.871   3.516   6.532  0.3893  0.8065  1.0193
  182SOPE   C3220784   6.059   3.561   6.678 -0.2616 -0.4364 -0.1257
  182SOPE   H2X20785   6.112   3.637   6.616  0.7655 -0.2270  0.9883
  182SOPE   H2Y20786   6.132   3.498   6.733 -1.3288 -0.3329  1.4300
  182SOPE   C2320787   6.345   3.043   6.782  0.4395 -0.4458 -0.1476
  182SOPE   H3R20788   6.400   3.136   6.759 -0.1902  0.2672  1.2023
  182SOPE   H3S20789   6.414   2.969   6.829 -2.0149 -3.6289 -1.3468
  182SOPE   C2420790   6.237   3.072   6.889 -0.0711 -0.4866 -0.2181
  182SOPE   H4R20791   6.151   3.126   6.842 -0.5728  1.9083  3.2952
  182SOPE   H4S20792   6.200   2.971   6.916  3.5027 -1.0165  3.0037
  182SOPE   C2520793   6.289   3.144   7.015 -0.7862  0.2885 -0.2117
  182SOPE   H5R20794   6.391   3.180   6.989 -1.1270  2.9282  1.9427
  182SOPE   H5S20795   6.218   3.227   7.034 -0.6508  0.5550 -0.8389
  182SOPE   C2620796   6.291   3.063   7.144 -0.2167  1.3664 -0.1009
  182SOPE   H6R20797   6.190   3.019   7.138 -0.5791  2.2981 -0.9618
  182SOPE   H6S20798   6.369   2.985   7.132 -0.0189  1.6793 -0.9006
  182SOPE   C2720799   6.303   3.144   7.267  0.2684 -0.2358 -0.1148
  182SOPE   H7R20800   6.398   3.200   7.253  0.8930 -0.8975  1.4263
  182SOPE   H7S20801   6.219   3.217   7.272  0.2823 -0.1970 -0.4248
  182SOPE   C2820802   6.301   3.062   7.404  0.5347 -0.4479 -0.9936
  182SOPE   H8R20803   6.214   2.994   7.398  0.5621 -0.7380  1.4724
  182SOPE   H8S20804   6.394   3.002   7.416  0.0949 -0.7740  0.8923
  182SOPE   C2920805   6.276   3.147   7.530  0.6473  0.2237  0.2220
  182SOPE   H9120806   6.217   3.237   7.508  1.7883  1.0918  0.6761
  182SOPE  C21020807   6.322   3.117   7.655 -0.2954 -0.6603 -0.1289
  182SOPE  H10120808   6.283   3.180   7.737 -0.8503  0.5503 -1.2970
  182SOPE  C21120809   6.402   2.991   7.690 -0.0439  0.8593 -0.1031
  182SOPE  H11R20810   6.500   3.017   7.735  0.2279 -0.7584  0.2750
  182SOPE  H11S20811   6.425   2.924   7.604 -1.0866 -2.3557  2.0386
  182SOPE  C21220812   6.323   2.876   7.765  0.2490 -0.0798  1.2634
  182SOPE  H12R20813   6.387   2.786   7.757  1.4195  0.7111  1.6630
  182SOPE  H12S20814   6.227   2.845   7.719  0.4966 -1.0528  1.3843
  182SOPE  C21320815   6.316   2.893   7.918  0.2873 -0.0682  0.2527
  182SOPE  H13R20816   6.232   2.963   7.937  1.9952  1.8967  0.7294
  182SOPE  H13S20817   6.412   2.944   7.938  0.1969 -0.5612  1.9895
  182SOPE  C21420818   6.304   2.759   7.986  0.3230 -0.3559  0.2381
  182SOPE  H14R20819   6.389   2.695   7.954 -0.6138 -0.9827 -1.0802
  182SOPE  H14S20820   6.203   2.720   7.960 -0.7662  0.5283  2.9502
  182SOPE  C21520821   6.297   2.767   8.135  0.0027  0.4235  0.0837
  182SOPE  H15R20822   6.392   2.804   8.178 -0.5540  0.0956  1.6521
  182SOPE  H15S20823   6.289   2.662   8.172 -2.1080  0.6868  0.4739
  182SOPE  C21620824   6.182   2.857   8.200  0.8237 -0.3047 -0.6501
  182SOPE  H16R20825   6.092   2.800   8.230 -0.3683  0.9595 -1.7315
  182SOPE  H16S20826   6.150   2.919   8.114  0.6862  1.6319  0.7571
  182SOPE  C21720827   6.243   2.943   8.317  0.0189  0.0358 -0.5198
  182SOPE  H17R20828   6.176   3.027   8.346  0.5736  0.5204 -0.6386
  182SOPE  H17S20829   6.338   2.989   8.285 -0.0228  1.8533  1.8615
  182SOPE  C21820830   6.262   2.844   8.440  0.3232 -0.2391  0.4927
  182SOPE  H18R20831   6.342   2.769   8.426 -1.0909 -1.2610 -2.4405
  182SOPE  H18S20832   6.177   2.774   8.456 -0.1496  0.6088  1.8057
  182SOPE  H18T20833   6.288   2.900   8.533 -1.5372  2.7741 -0.7040
  182SOPE   C3320834   5.971   3.630   6.786  0.5529  0.1673 -0.2105
  182SOPE   H3X20835   5.898   3.559   6.830  1.7792 -0.9132  0.1017
  182SOPE   H3Y20836   5.917   3.721   6.753  0.0159  0.0318  0.2824
  182SOPE   C3420837   6.050   3.680   6.912 -0.5198  0.7621 -0.1279
  182SOPE   H4X20838   6.012   3.784   6.923 -0.0017  0.8639  0.7404
  182SOPE   H4Y20839   6.154   3.691   6.875  0.7830  1.3381  3.4608
  182SOPE   C3520840   6.019   3.605   7.044 -0.7710  0.0292 -0.5596
  182SOPE   H5X20841   6.011   3.496   7.024  0.5588 -0.4512  1.3634
  182SOPE   H5Y20842   5.928   3.645   7.095 -0.1312  0.2575  0.4275
  182SOPE   C3620843   6.152   3.623   7.138  0.6095  0.2624  0.3558
  182SOPE   H6X20844   6.153   3.732   7.163 -1.1451  0.7219 -1.3995
  182SOPE   H6Y20845   6.239   3.597   7.074 -0.1059  2.2444 -1.4822
  182SOPE   C3720846   6.141   3.555   7.279 -0.9372 -0.0208 -0.1713
  182SOPE   H7X20847   6.193   3.612   7.359 -1.3152  1.3395 -0.8833
  182SOPE   H7Y20848   6.190   3.456   7.268 -1.3280 -0.0944 -1.3821
  182SOPE   C3820849   5.999   3.547   7.337 -0.5147 -0.2128  0.0658
  182SOPE   H8X20850   5.956   3.482   7.257 -0.7251  0.8117 -0.6578
  182SOPE   H8Y20851   5.952   3.647   7.333 -1.2504 -0.5487  0.2862
  182SOPE   C3920852   5.990   3.467   7.471 -0.2882 -0.6086 -0.8277
  182SOPE   H9X20853   6.039   3.368   7.455  0.2482 -0.2757 -1.2186
  182SOPE   H9Y20854   5.881   3.446   7.481 -0.7717  1.2139 -2.0894
  182SOPE  C31020855   6.055   3.535   7.598  0.6834 -0.3725 -0.5047
  182SOPE  H10X20856   5.990   3.618   7.633  0.1814 -1.0732  0.2410
  182SOPE  H10Y20857   6.155   3.579   7.579  0.4796 -0.6866 -2.3882
  182SOPE  C31120858   6.044   3.430   7.709 -0.5734  0.1947  0.8384
  182SOPE  H11X20859   6.079   3.334   7.665  2.5866  1.7820 -0.2379
  182SOPE  H11Y20860   5.938   3.419   7.740 -0.3747  1.8887  2.1503
  182SOPE  C31220861   6.103   3.470   7.844 -0.6911  0.5106 -0.0601
  182SOPE  H12X20862   6.022   3.518   7.902 -0.9714 -3.2661  2.8716
  182SOPE  H12Y20863   6.170   3.559   7.837 -0.4228  0.2859 -0.4250
  182SOPE  C31320864   6.182   3.354   7.906 -0.1824 -0.1785  0.7269
  182SOPE  H13X20865   6.290   3.353   7.881 -0.0196 -0.8182  1.4416
  182SOPE  H13Y20866   6.130   3.256   7.896  1.2544 -0.6768 -2.1814
  182SOPE  C31420867   6.175   3.375   8.058 -0.0965 -0.8973  0.1201
  182SOPE  H14X20868   6.069   3.371   8.088 -0.1055  1.4844  0.4847
  182SOPE  H14Y20869   6.221   3.473   8.083 -1.1250 -0.5211  0.5546
  182SOPE  C31520870   6.248   3.272   8.147  0.6729  0.1468  0.7499
  182SOPE  H15X20871   6.337   3.228   8.098  0.7221  1.1210 -0.0621
  182SOPE  H15Y20872   6.181   3.184   8.148  1.3381 -0.3992 -0.9119
  182SOPE  C31620873   6.272   3.323   8.292  1.0475  0.0722  0.0043
  182SOPE  H16X20874   6.361   3.389   8.300 -0.5997  2.1397  1.9052
  182SOPE  H16Y20875   6.283   3.233   8.356 -1.5635 -0.8345 -0.7610
  182SOPE  C31720876   6.160   3.404   8.358 -0.1587 -0.1781 -0.6445
  182SOPE  H17X20877   6.067   3.347   8.335 -0.9347  0.0872  1.6897
  182SOPE  H17Y20878   6.162   3.499   8.301 -1.0387 -0.3456 -0.9635
  182SOPE  C31820879   6.169   3.432   8.510 -0.1179  0.0502  0.3311
  182SOPE  H18X20880   6.158   3.340   8.572 -0.2011 -1.5998 -2.0487
  182SOPE  H18Y20881   6.087   3.505   8.525 -1.9296 -1.9762  0.7191
  182SOPE  H18Z20882   6.266   3.477   8.538  0.4367 -1.6384  1.2133
  183SOPE     N20883   1.744   0.865   6.277  0.5275 -0.3964 -0.4133
  183SOPE   HN120884   1.826   0.812   6.313 -0.5434 -0.1356  2.5594
  183SOPE   HN220885   1.701   0.911   6.359 -0.8297 -0.4531 -1.0789
  183SOPE   HN320886   1.684   0.790   6.237  0.2758  0.3602 -1.4691
  183SOPE   C1220887   1.772   0.970   6.174 -0.3603 -0.6115  0.3344
  183SOPE  H12A20888   1.672   0.982   6.127  0.2708  5.2479  0.1196
  183SOPE  H12B20889   1.847   0.936   6.099  0.5096  1.0219  0.4378
  183SOPE   C1120890   1.826   1.101   6.238 -0.3368  0.3352 -0.2723
  183SOPE  H11A20891   1.766   1.111   6.331  1.3324 -1.0454  0.9844
  183SOPE  H11B20892   1.805   1.193   6.179  0.1577 -0.3527 -1.5376
  183SOPE     P20893   2.036   1.185   6.362  0.2993 -0.0434 -0.2386
  183SOPE   O1320894   1.984   1.320   6.322  0.0541  0.0732  0.0250
  183SOPE   O1420895   2.183   1.175   6.357 -0.6565  0.6378  0.1531
  183SOPE   O1220896   1.967   1.080   6.267 -0.0071  0.0800  0.0703
  183SOPE   O1120897   1.980   1.153   6.506  0.2139 -0.1650 -0.0585
  183SOPE    C120898   1.979   1.019   6.552 -0.2205 -0.3499 -0.3324
  183SOPE    HA20899   2.035   0.947   6.487 -0.3403 -1.0398  0.3177
  183SOPE    HB20900   1.873   0.988   6.544 -1.3260  3.0222  0.8142
  183SOPE    C220901   2.017   1.008   6.702  0.4328  0.2172 -0.5746
  183SOPE    HS20902   1.949   1.070   6.764  0.4203 -1.4017  1.0645
  183SOPE   O2120903   2.165   1.022   6.715  0.1361 -0.1364  0.2541
  183SOPE   C2120904   2.210   1.139   6.746 -1.0612 -0.6025 -0.1905
  183SOPE   O2220905   2.134   1.236   6.760 -0.0015  0.0217  0.5386
  183SOPE   C2220906   2.358   1.147   6.717 -0.2103 -0.3099 -0.0880
  183SOPE   H2R20907   2.378   1.150   6.608 -0.4510 -0.8463 -0.1473
  183SOPE   H2S20908   2.391   1.049   6.758  1.1950 -0.4143 -1.4522
  183SOPE    C320909   1.984   0.861   6.747 -0.2793 -0.2849 -0.1516
  183SOPE    HX20910   2.062   0.789   6.714  0.2294 -0.2932  1.0396
  183SOPE    HY20911   1.885   0.839   6.701 -1.1596  1.9318  0.5997
  183SOPE   O3120912   1.961   0.864   6.886 -0.3994 -0.4427 -0.1821
  183SOPE   C3120913   2.055   0.823   6.965 -0.5455 -0.0261  0.0723
  183SOPE   O3220914   2.158   0.765   6.926 -0.6654 -0.2390 -0.6064
  183SOPE   C3220915   2.026   0.856   7.115 -0.5089  0.4288 -0.1824
  183SOPE   H2X20916   1.934   0.805   7.149  0.4950 -1.4646 -0.2828
  183SOPE   H2Y20917   2.033   0.966   7.132 -0.5656  0.1572  1.6886
  183SOPE   C2320918   2.427   1.260   6.794  0.8026  0.0346 -0.2019
  183SOPE   H3R20919   2.389   1.364   6.778  0.6997  0.2260  1.1973
  183SOPE   H3S20920   2.534   1.277   6.769  1.7117 -0.4822  3.1457
  183SOPE   C2420921   2.445   1.240   6.948  0.7083 -0.4654  0.2556
  183SOPE   H4R20922   2.442   1.131   6.967 -0.9315 -0.5102 -0.1697
  183SOPE   H4S20923   2.540   1.286   6.982  0.1498 -0.9619  2.5721
  183SOPE   C2520924   2.335   1.310   7.031  0.3904 -0.1179 -0.5647
  183SOPE   H5R20925   2.344   1.418   7.007 -0.4370 -0.2176 -1.3997
  183SOPE   H5S20926   2.233   1.283   6.995 -0.0385  0.3998  0.2742
  183SOPE   C2620927   2.340   1.279   7.184 -0.2367  0.3759 -0.5370
  183SOPE   H6R20928   2.257   1.333   7.235  0.9874  0.4264  1.4600
  183SOPE   H6S20929   2.339   1.168   7.193  1.0146  0.2857 -1.5228
  183SOPE   C2720930   2.472   1.333   7.241 -0.0381  0.1852  0.0876
  183SOPE   H7R20931   2.561   1.274   7.209  1.1801  0.7993  2.2964
  183SOPE   H7S20932   2.489   1.440   7.216 -1.5531  0.5628  0.6186
  183SOPE   C2820933   2.470   1.329   7.392  0.1153  0.4033  0.0468
  183SOPE   H8R20934   2.566   1.361   7.437  0.7781 -0.2441 -0.8905
  183SOPE   H8S20935   2.404   1.410   7.430  1.3068  1.0627  0.7367
  183SOPE   C2920936   2.427   1.196   7.454  0.3326  0.5629 -0.0526
  183SOPE   H9120937   2.327   1.167   7.416 -1.6105 -0.4581  5.3256
  183SOPE  C21020938   2.484   1.122   7.554  0.1234  0.4153 -0.8987
  183SOPE  H10120939   2.433   1.032   7.590  0.7169  0.3320 -0.2621
  183SOPE  C21120940   2.608   1.164   7.628 -0.6787  0.4275 -0.7755
  183SOPE  H11R20941   2.684   1.218   7.568 -0.2978 -0.5611 -1.1939
  183SOPE  H11S20942   2.661   1.076   7.671 -0.1516  1.3800  0.5706
  183SOPE  C21220943   2.577   1.243   7.758  0.6588  0.0424  0.3578
  183SOPE  H12R20944   2.545   1.346   7.732  1.0564 -0.1876 -1.0584
  183SOPE  H12S20945   2.673   1.241   7.814  0.8274 -0.9283  0.0544
  183SOPE  C21320946   2.476   1.153   7.842 -0.3038  0.4462 -0.3095
  183SOPE  H13R20947   2.490   1.043   7.833 -4.1592 -0.0278 -1.3418
  183SOPE  H13S20948   2.376   1.171   7.797  0.4187  1.4347 -1.5318
  183SOPE  C21420949   2.470   1.197   7.986  0.3076  0.2000 -0.5305
  183SOPE  H14R20950   2.458   1.308   7.987  0.7314  0.2384  1.3351
  183SOPE  H14S20951   2.570   1.171   8.027  0.4977  1.4846 -0.1515
  183SOPE  C21520952   2.357   1.150   8.076  0.3567  0.0144  0.1086
  183SOPE  H15R20953   2.353   1.039   8.069 -1.1096  0.2259 -3.8504
  183SOPE  H15S20954   2.266   1.181   8.021  0.4836  0.4116  0.1212
  183SOPE  C21620955   2.360   1.215   8.213  0.2869  0.7181 -0.0451
  183SOPE  H16R20956   2.365   1.325   8.197  1.3381  0.7160  0.2084
  183SOPE  H16S20957   2.454   1.178   8.259 -0.4303 -1.4194 -0.2506
  183SOPE  C21720958   2.250   1.165   8.315  0.7873 -0.4020  0.1175
  183SOPE  H17R20959   2.260   1.055   8.303 -1.4386 -0.8270  1.9231
  183SOPE  H17S20960   2.146   1.196   8.294  1.0189 -0.1568 -0.6841
  183SOPE  C21820961   2.265   1.202   8.461  0.2037 -0.2907 -0.7258
  183SOPE  H18R20962   2.253   1.312   8.474 -0.1890 -0.3205 -0.8228
  183SOPE  H18S20963   2.368   1.178   8.495  0.5362  1.4934 -0.4225
  183SOPE  H18T20964   2.197   1.151   8.532  1.5430 -1.9793 -0.6428
  183SOPE   C3320965   2.143   0.807   7.212 -0.4600  0.9151  0.0240
  183SOPE   H3X20966   2.236   0.854   7.176 -0.5158  1.5556  0.7139
  183SOPE   H3Y20967   2.143   0.697   7.229 -2.1048  1.0688  1.1588
  183SOPE   C3420968   2.124   0.873   7.349 -0.0129  0.1389 -0.4140
  183SOPE   H4X20969   2.035   0.823   7.393  0.1314 -0.2612 -0.5722
  183SOPE   H4Y20970   2.087   0.978   7.344  0.8019  0.4715  0.3602
  183SOPE   C3520971   2.236   0.832   7.447 -0.4282 -0.4855 -0.6418
  183SOPE   H5X20972   2.335   0.861   7.407  0.8528  1.0482  3.3662
  183SOPE   H5Y20973   2.224   0.722   7.452 -1.6618 -0.4386 -2.0630
  183SOPE   C3620974   2.207   0.885   7.589 -0.0329 -0.0725  0.5076
  183SOPE   H6X20975   2.101   0.854   7.602 -0.3131  0.3569 -0.6966
  183SOPE   H6Y20976   2.205   0.994   7.608 -0.3976 -0.3663  2.2291
  183SOPE   C3720977   2.267   0.795   7.694  0.8171  0.7580 -0.5937
  183SOPE   H7X20978   2.377   0.794   7.680  0.7831  0.2585 -0.8327
  183SOPE   H7Y20979   2.214   0.697   7.685 -0.0809  0.8668  2.8789
  183SOPE   C3820980   2.250   0.845   7.840  0.3028  0.3574  0.5863
  183SOPE   H8X20981   2.298   0.945   7.852  0.7063  0.6547 -2.9585
  183SOPE   H8Y20982   2.309   0.784   7.911 -2.8392 -0.7044  2.3675
  183SOPE   C3920983   2.098   0.843   7.877  0.5343  0.7942 -0.3662
  183SOPE   H9X20984   2.041   0.751   7.851 -0.6032  1.0839  1.0572
  183SOPE   H9Y20985   2.050   0.921   7.815 -0.7181  1.0311  0.8785
  183SOPE  C31020986   2.077   0.871   8.024  0.1976  0.5655 -0.6134
  183SOPE  H10X20987   1.970   0.895   8.042 -0.2296 -0.7703 -1.3432
  183SOPE  H10Y20988   2.136   0.961   8.052 -0.5492  0.4458  1.3834
  183SOPE  C31120989   2.138   0.753   8.105  0.5017  1.2099 -0.0828
  183SOPE  H11X20990   2.242   0.776   8.137  0.3402 -2.0183  3.0059
  183SOPE  H11Y20991   2.116   0.660   8.048 -1.6931  1.3785  0.4475
  183SOPE  C31220992   2.054   0.732   8.228 -0.5301 -0.3883 -0.5926
  183SOPE  H12X20993   1.946   0.724   8.204 -1.1300  3.3948  0.5208
  183SOPE  H12Y20994   2.068   0.822   8.293 -1.0350  0.5427 -1.7473
  183SOPE  C31320995   2.091   0.597   8.303  0.2333  0.1738  0.0866
  183SOPE  H13X20996   2.126   0.513   8.239 -2.0900 -0.0890 -0.9121
  183SOPE  H13Y20997   1.992   0.556   8.335 -0.3430  1.7232  0.3349
  183SOPE  C31420998   2.178   0.615   8.430  0.2193  0.3867 -0.0517
  183SOPE  H14X20999   2.155   0.707   8.487 -0.0922 -0.4056  1.1153
  183SOPE  H14Y21000   2.285   0.603   8.402  0.5749  1.1758  0.9564
  183SOPE  C31521001   2.156   0.495   8.528  0.5739 -0.3246 -0.2180
  183SOPE  H15X21002   2.163   0.401   8.471  0.0873 -0.3695 -0.2084
  183SOPE  H15Y21003   2.052   0.494   8.568  0.4338  1.7818 -0.4360
  183SOPE  C31621004   2.257   0.505   8.650  0.1602 -0.1139  0.1026
  183SOPE  H16X21005   2.218   0.431   8.723  0.4412 -1.4338 -1.0841
  183SOPE  H16Y21006   2.250   0.604   8.701 -1.7952  0.7601 -1.8134
  183SOPE  C31721007   2.407   0.475   8.632 -0.4009  0.0136  0.6183
  183SOPE  H17X21008   2.455   0.477   8.732 -0.8409 -0.7800  0.8478
  183SOPE  H17Y21009   2.458   0.560   8.583  1.6956 -2.2816 -1.3046
  183SOPE  C31821010   2.443   0.348   8.560  0.3228 -0.1447  0.2524
  183SOPE  H18X21011   2.371   0.273   8.597 -1.0250  0.3958 -1.1887
  183SOPE  H18Y21012   2.548   0.321   8.584  0.8427  2.3713  0.9998
  183SOPE  H18Z21013   2.426   0.355   8.450 -1.9770 -1.7731  0.4607
  184SOPE     N21014   1.443   0.515   6.338 -0.6438 -0.4288  0.2251
  184SOPE   HN121015   1.526   0.452   6.349  0.0013  0.0894 -1.5986
  184SOPE   HN221016   1.368   0.466   6.285 -0.6516 -0.6205  0.4091
  184SOPE   HN321017   1.484   0.587   6.275 -1.7759 -0.1537 -0.2089
  184SOPE   C1221018   1.393   0.571   6.471  0.3185  0.0462 -0.2907
  184SOPE  H12A21019   1.478   0.616   6.527 -0.7094 -0.3699  1.6303
  184SOPE  H12B21020   1.342   0.488   6.524  2.0702 -0.3410  0.8445
  184SOPE   C1121021   1.284   0.681   6.452  0.5010  0.0682 -0.2287
  184SOPE  H11A21022   1.234   0.679   6.551 -0.2978  2.9575 -0.5157
  184SOPE  H11B21023   1.211   0.649   6.374  0.2872  1.2344 -0.5221
  184SOPE     P21024   1.374   0.837   6.273 -0.1907 -0.4132 -0.5891
  184SOPE   O1321025   1.247   0.840   6.189  0.2448  0.5527  0.8351
  184SOPE   O1421026   1.480   0.748   6.228 -0.6227  0.6877  0.2613
  184SOPE   O1221027   1.334   0.806   6.425 -0.1586  0.2973 -0.2336
  184SOPE   O1121028   1.430   0.978   6.274  0.0358 -0.4509 -0.0251
  184SOPE    C121029   1.365   1.093   6.331  0.9170  0.6284  0.0993
  184SOPE    HA21030   1.274   1.060   6.387  1.5262 -1.9719 -0.3703
  184SOPE    HB21031   1.335   1.163   6.251  0.1639 -1.1217 -1.1728
  184SOPE    C221032   1.458   1.173   6.418  0.0611 -0.2075 -0.5141
  184SOPE    HS21033   1.552   1.162   6.359  1.6655 -0.3899  1.9924
  184SOPE   O2121034   1.460   1.113   6.551  0.2258 -0.5652  0.3242
  184SOPE   C2121035   1.543   1.012   6.568 -0.4135  0.4376 -0.2543
  184SOPE   O2221036   1.623   0.970   6.487  0.7163  0.7022  0.0059
  184SOPE   C2221037   1.523   0.943   6.703 -0.3194 -0.1125  0.1541
  184SOPE   H2R21038   1.558   0.838   6.689 -1.5881 -0.7655  1.6402
  184SOPE   H2S21039   1.415   0.938   6.731 -0.3905  1.4644  0.2166
  184SOPE    C321040   1.417   1.323   6.426  0.3053  0.0774  0.1705
  184SOPE    HX21041   1.310   1.324   6.453  0.8211 -0.4098  2.3034
  184SOPE    HY21042   1.423   1.366   6.323  1.1227  2.2942  1.1214
  184SOPE   O3121043   1.489   1.394   6.527  0.3230 -0.6833  0.4760
  184SOPE   C3121044   1.435   1.512   6.564  0.4178 -0.2831  1.1777
  184SOPE   O3221045   1.350   1.570   6.501  0.5198 -0.2639 -0.4134
  184SOPE   C3221046   1.500   1.554   6.686 -1.0237  0.3040  0.4632
  184SOPE   H2X21047   1.591   1.610   6.655 -0.7834  0.4614  1.4407
  184SOPE   H2Y21048   1.531   1.466   6.747  0.1726 -0.0396 -0.6092
  184SOPE   C2321049   1.603   1.004   6.821  0.4381 -0.4081 -0.1183
  184SOPE   H3R21050   1.567   1.106   6.845  0.0553 -0.6937  0.5650
  184SOPE   H3S21051   1.709   1.021   6.793 -0.0790  1.6708 -0.9093
  184SOPE   C2421052   1.595   0.919   6.947 -0.2947 -0.4874 -0.5521
  184SOPE   H4R21053   1.487   0.907   6.969 -0.0084 -2.0639  0.0720
  184SOPE   H4S21054   1.638   0.819   6.923 -0.6436 -1.3130  2.1589
  184SOPE   C2521055   1.663   0.989   7.060  0.2855  0.3599 -0.6210
  184SOPE   H5R21056   1.771   1.011   7.047  0.6443 -1.6914 -1.4144
  184SOPE   H5S21057   1.619   1.089   7.077  0.5003  0.3674 -0.1017
  184SOPE   C2621058   1.645   0.904   7.185  0.1725 -0.3352  0.1100
  184SOPE   H6R21059   1.537   0.909   7.208  0.1668  3.0932 -0.2980
  184SOPE   H6S21060   1.675   0.803   7.153  4.1418  0.6878  0.2489
  184SOPE   C2721061   1.725   0.950   7.306  0.3927  0.3926 -0.8796
  184SOPE   H7R21062   1.835   0.946   7.291  0.3775  1.3055 -1.3183
  184SOPE   H7S21063   1.704   1.057   7.330  0.6984  0.2436  0.0887
  184SOPE   C2821064   1.684   0.859   7.425 -0.0092  0.1587 -0.1260
  184SOPE   H8R21065   1.574   0.854   7.440 -0.1170  0.6134 -0.7560
  184SOPE   H8S21066   1.719   0.754   7.418  1.7013  0.6134  1.1793
  184SOPE   C2921067   1.759   0.910   7.546 -0.5283  0.0783  0.4818
  184SOPE   H9121068   1.869   0.913   7.536 -0.6595  0.4162 -0.8827
  184SOPE  C21021069   1.714   0.953   7.665  0.4503 -0.3994 -0.2130
  184SOPE  H10121070   1.782   1.006   7.734 -0.3201 -0.6318  0.7548
  184SOPE  C21121071   1.569   0.975   7.705  0.6912  0.4071 -1.0420
  184SOPE  H11R21072   1.516   0.879   7.690  0.1669  0.7147 -1.1474
  184SOPE  H11S21073   1.514   1.034   7.629 -0.8684 -0.5435 -0.6695
  184SOPE  C21221074   1.552   1.048   7.840 -0.8162 -0.6081 -0.2656
  184SOPE  H12R21075   1.444   1.072   7.855 -1.2746 -1.1531 -2.5773
  184SOPE  H12S21076   1.606   1.145   7.841 -1.3005 -0.3119  3.1710
  184SOPE  C21321077   1.605   0.959   7.953 -0.1153 -0.3061  0.3723
  184SOPE  H13R21078   1.709   0.933   7.925 -0.6268 -0.6904 -1.2365
  184SOPE  H13S21079   1.543   0.867   7.956 -1.0293  0.2681 -0.4989
  184SOPE  C21421080   1.583   1.019   8.093  0.3295  0.0241  0.8017
  184SOPE  H14R21081   1.475   1.012   8.117  0.1860  3.8957  1.6494
  184SOPE  H14S21082   1.617   1.125   8.104 -0.1536  0.1078  1.5241
  184SOPE  C21521083   1.667   0.941   8.201 -0.7371 -0.6698  0.2089
  184SOPE  H15R21084   1.774   0.959   8.178 -0.3772 -1.9760  0.8450
  184SOPE  H15S21085   1.651   0.831   8.202  2.2761 -1.1705 -1.5642
  184SOPE  C21621086   1.659   0.983   8.347 -0.1171  0.0444 -0.1561
  184SOPE  H16R21087   1.709   0.909   8.413  1.3048  1.5975  0.5605
  184SOPE  H16S21088   1.548   0.980   8.351 -0.2524 -0.0891 -2.8027
  184SOPE  C21721089   1.725   1.120   8.373  0.1778 -0.6415  0.5989
  184SOPE  H17R21090   1.676   1.209   8.329  0.8025 -0.0317  1.1201
  184SOPE  H17S21091   1.829   1.115   8.333  1.1339 -1.2014  3.0313
  184SOPE  C21821092   1.724   1.146   8.525 -0.5430 -0.4389 -0.6597
  184SOPE  H18R21093   1.776   1.063   8.576 -1.7204 -0.3265  0.7669
  184SOPE  H18S21094   1.618   1.152   8.559 -0.0471  0.7485  0.7247
  184SOPE  H18T21095   1.772   1.245   8.544 -1.9174  0.5962 -2.3757
  184SOPE   C3321096   1.435   1.665   6.764  0.3954 -0.5832 -0.1397
  184SOPE   H3X21097   1.332   1.633   6.792 -0.3354  2.1110  0.4170
  184SOPE   H3Y21098   1.427   1.756   6.700 -0.4963  0.7711  1.8232
  184SOPE   C3421099   1.506   1.718   6.886  0.0932 -1.0510  0.0695
  184SOPE   H4X21100   1.478   1.825   6.900  0.4317 -1.0369  0.6324
  184SOPE   H4Y21101   1.616   1.707   6.884  0.4697  2.4718 -1.1504
  184SOPE   C3521102   1.473   1.647   7.020  0.5446  0.5435  0.4060
  184SOPE   H5X21103   1.491   1.537   7.023  1.7779  0.6993 -0.6017
  184SOPE   H5Y21104   1.368   1.667   7.051  1.3346  1.8044  2.3036
  184SOPE   C3621105   1.541   1.714   7.145  0.1196 -0.9180 -0.3860
  184SOPE   H6X21106   1.514   1.821   7.155  2.2982 -0.3807 -0.0753
  184SOPE   H6Y21107   1.652   1.708   7.139  0.2613 -0.3261  1.3293
  184SOPE   C3721108   1.483   1.645   7.265  0.0572  0.6169 -0.5301
  184SOPE   H7X21109   1.496   1.537   7.241  2.2679  0.6278  0.5361
  184SOPE   H7Y21110   1.374   1.656   7.287  0.1404 -0.4970  0.4989
  184SOPE   C3821111   1.547   1.677   7.409 -0.7561  0.8809 -0.6738
  184SOPE   H8X21112   1.522   1.783   7.431  1.9972  1.5153 -0.4858
  184SOPE   H8Y21113   1.657   1.669   7.398 -0.7953  0.5999 -0.8637
  184SOPE   C3921114   1.497   1.582   7.519  0.0234 -0.2364 -0.2308
  184SOPE   H9X21115   1.523   1.481   7.482  2.8623  0.2835  0.2149
  184SOPE   H9Y21116   1.390   1.612   7.525  0.6903  2.1286  0.4927
  184SOPE  C31021117   1.556   1.612   7.662 -0.5414  0.2794  0.1319
  184SOPE  H10X21118   1.533   1.713   7.703  2.7202  0.0846  2.6172
  184SOPE  H10Y21119   1.667   1.614   7.660 -0.4900  1.4941  2.5500
  184SOPE  C31121120   1.514   1.504   7.769  0.5450  0.5476  0.8265
  184SOPE  H11X21121   1.547   1.403   7.738  0.9947  0.4579  1.5713
  184SOPE  H11Y21122   1.404   1.514   7.768  0.6110  1.5560  2.2741
  184SOPE  C31221123   1.561   1.534   7.912 -0.1944  0.1149  0.7132
  184SOPE  H12X21124   1.549   1.644   7.927  1.4638  0.5344 -0.8509
  184SOPE  H12Y21125   1.670   1.516   7.922 -0.9590 -4.5300  1.5876
  184SOPE  C31321126   1.485   1.459   8.022  0.5812 -0.1707 -0.8277
  184SOPE  H13X21127   1.464   1.351   8.012 -0.0473 -0.0300 -1.0541
  184SOPE  H13Y21128   1.383   1.502   8.017 -2.1509 -6.1067  0.0194
  184SOPE  C31421129   1.541   1.496   8.162  0.1744 -0.3013  0.1694
  184SOPE  H14X21130   1.536   1.607   8.167 -2.6547 -0.5069  3.7063
  184SOPE  H14Y21131   1.643   1.451   8.159  0.7963  1.1055  0.1166
  184SOPE  C31521132   1.461   1.419   8.274  0.0155  0.0423  0.1468
  184SOPE  H15X21133   1.468   1.309   8.258  0.1111  0.2136 -0.9979
  184SOPE  H15Y21134   1.354   1.447   8.284 -0.5948 -1.8459 -0.8202
  184SOPE  C31621135   1.502   1.457   8.421  0.4763  0.1995 -0.0865
  184SOPE  H16X21136   1.603   1.416   8.441  0.0083 -1.1708 -0.5129
  184SOPE  H16Y21137   1.442   1.400   8.495 -0.1983  1.2696  0.2047
  184SOPE  C31721138   1.496   1.605   8.449  0.3144 -0.0212 -0.2457
  184SOPE  H17X21139   1.397   1.648   8.424  0.3148  0.0284 -0.1663
  184SOPE  H17Y21140   1.556   1.662   8.375  0.5565 -0.8265 -0.6715
  184SOPE  C31821141   1.541   1.656   8.586 -0.4896  0.0734  0.0758
  184SOPE  H18X21142   1.652   1.656   8.588 -0.5196 -0.9141  2.2719
  184SOPE  H18Y21143   1.502   1.597   8.671  0.5378  0.2989  0.7110
  184SOPE  H18Z21144   1.507   1.761   8.605  0.7248  0.4553  0.1775
  185SAPI   C1221145   3.763   5.548  11.185 -0.3263  0.2546  0.1118
  185SAPI    H221146   3.830   5.469  11.224 -0.9636  0.5951  1.9295
  185SAPI    O221147   3.706   5.500  11.069  0.8447  0.4275  0.0634
  185SAPI   HO221148   3.770   5.432  11.045 -0.2139 -0.0030 -1.6634
  185SAPI   C1321149   3.658   5.593  11.287  0.4429  0.0350 -0.9178
  185SAPI    H321150   3.715   5.623  11.378  1.5658 -0.6113 -1.3985
  185SAPI    O321151   3.577   5.485  11.335 -0.4608  0.0106 -0.2211
  185SAPI   HO321152   3.543   5.498  11.424  1.7772 -1.0059  0.8318
  185SAPI   C1421153   3.568   5.706  11.230 -0.2884 -0.1877 -0.1737
  185SAPI    H421154   3.511   5.661  11.145  0.2409  0.9189 -1.1304
  185SAPI    O421155   3.475   5.759  11.326 -0.0034 -0.0503  0.0816
  185SAPI   HO421156   3.391   5.734  11.288 -1.5067  2.2470  1.7338
  185SAPI   C1521157   3.655   5.824  11.183 -0.2382 -0.1175  0.0437
  185SAPI    H521158   3.713   5.860  11.271 -1.0124  0.7531  0.2072
  185SAPI    O521159   3.573   5.924  11.124 -0.5692  0.1237 -0.4405
  185SAPI   HO521160   3.505   5.927  11.191 -1.1422 -0.2601 -0.9989
  185SAPI   C1621161   3.762   5.773  11.082  0.0348  0.1775 -0.3932
  185SAPI    H621162   3.713   5.732  10.991 -1.9378  0.1538  0.6596
  185SAPI    O621163   3.844   5.877  11.042 -0.3962  0.4199  0.1024
  185SAPI   HO621164   3.937   5.858  11.053 -0.1652  1.3349 -0.2627
  185SAPI   C1121165   3.850   5.666  11.148 -0.4103  0.0466 -0.4008
  185SAPI    H121166   3.888   5.692  11.249 -2.6960  2.1256 -0.0413
  185SAPI     P21167   4.107   5.678  11.060  0.2593  0.2365 -0.1442
  185SAPI   O1321168   4.182   5.619  11.171 -0.4351 -0.5278 -0.2885
  185SAPI   O1421169   4.093   5.826  11.057 -0.6308  0.2998  0.3778
  185SAPI   O1221170   3.958   5.613  11.075  0.6498 -0.4149  0.0647
  185SAPI   O1121171   4.177   5.628  10.923  0.3515 -0.0238  0.2634
  185SAPI    C121172   4.113   5.533  10.837 -0.4188  0.3808 -0.0009
  185SAPI    HA21173   4.182   5.445  10.832 -0.9236 -0.0247  0.1514
  185SAPI    HB21174   4.019   5.490  10.876 -0.2743 -0.1691 -0.2479
  185SAPI    C221175   4.074   5.594  10.697 -0.5342  0.5096 -0.0341
  185SAPI    HS21176   4.022   5.509  10.648  0.1156 -0.1409  0.3833
  185SAPI   O2121177   4.186   5.642  10.616  0.3495  0.3769 -0.5577
  185SAPI   C2121178   4.261   5.547  10.558  0.2495  0.2443 -0.1694
  185SAPI   O2221179   4.263   5.429  10.582 -0.5085 -0.4067 -0.4085
  185SAPI   C2221180   4.354   5.606  10.440  0.7498 -0.5849  0.4404
  185SAPI   H2R21181   4.289   5.672  10.379  0.3543  3.0957  4.5543
  185SAPI   H2S21182   4.431   5.675  10.480  1.0290 -0.1522 -0.8248
  185SAPI    C321183   3.984   5.715  10.718 -0.0220 -0.0556  0.0385
  185SAPI    HX21184   4.047   5.799  10.754  1.9237 -1.9721  1.1590
  185SAPI    HY21185   3.899   5.690  10.785  1.3285  0.1596  1.8548
  185SAPI   O3121186   3.931   5.740  10.587 -0.0620  0.0800 -0.3028
  185SAPI   C3121187   3.838   5.838  10.583 -0.1639  0.6711 -0.2480
  185SAPI   O3221188   3.784   5.892  10.673 -0.2640  0.3494  0.0028
  185SAPI   C3221189   3.795   5.850  10.437 -0.0106  0.0072 -0.2188
  185SAPI   H2X21190   3.762   5.751  10.399 -0.8544 -0.4900  1.7343
  185SAPI   H2Y21191   3.877   5.880  10.370 -0.7158  2.8688  0.1421
  185SAPI   C2321192   4.428   5.509  10.348 -0.2080  0.6916 -0.5937
  185SAPI   H3R21193   4.489   5.449  10.419  0.3110  2.3052  0.3506
  185SAPI   H3S21194   4.491   5.576  10.285 -3.5109  3.6949 -0.8806
  185SAPI   C2421195   4.350   5.423  10.260 -0.5717  0.0396  0.6326
  185SAPI   H4R21196   4.312   5.484  10.175  0.0664 -1.7096 -0.9393
  185SAPI   H4S21197   4.265   5.376  10.314 -1.7599  0.1968 -1.0615
  185SAPI   C2521198   4.436   5.311  10.202  0.0366  0.3037  0.2534
  185SAPI   H5R21199   4.473   5.243  10.280  0.3033  0.9270  0.6780
  185SAPI   C2621200   4.477   5.301  10.073  0.9076  0.5702 -0.2775
  185SAPI   H6R21201   4.549   5.224  10.043 -0.2388 -0.8265  0.4941
  185SAPI   C2721202   4.431   5.389   9.951 -0.6662  0.8954  0.0078
  185SAPI   H7R21203   4.474   5.491   9.947  0.9625  0.1574 -1.9604
  185SAPI   H7S21204   4.320   5.400   9.953 -0.7105  0.3304  1.8570
  185SAPI   C2821205   4.465   5.299   9.835  0.4731  0.1788  0.9856
  185SAPI   H8R21206   4.499   5.196   9.857  1.3814  0.0689 -0.8327
  185SAPI   C2921207   4.449   5.338   9.705 -1.0127  0.8931  0.2057
  185SAPI   H9R21208   4.468   5.258   9.632  3.6167  1.3277  0.7676
  185SAPI  C21021209   4.402   5.466   9.649  0.1146 -0.7336  1.0236
  185SAPI  H10R21210   4.478   5.485   9.571 -1.3098 -2.1035 -0.7471
  185SAPI  H10S21211   4.409   5.557   9.712  1.6365  0.2661 -0.5356
  185SAPI  C21121212   4.267   5.447   9.578  0.9875  0.7721 -0.6498
  185SAPI  H11R21213   4.187   5.433   9.652  2.8157 -1.8969  0.9033
  185SAPI  C21221214   4.236   5.430   9.447 -0.0794 -0.0584  0.2724
  185SAPI  H12R21215   4.130   5.433   9.418 -0.0004 -1.1952 -0.1396
  185SAPI  C21321216   4.326   5.415   9.334  0.4936  0.7890  0.2993
  185SAPI  H13R21217   4.282   5.357   9.250 -1.4538 -0.0467  1.8444
  185SAPI  H13S21218   4.414   5.353   9.360 -0.3171 -0.4325  0.2035
  185SAPI  C21421219   4.362   5.547   9.274 -0.3948  0.2334 -0.2828
  185SAPI  H14R21220   4.382   5.625   9.350  0.3830 -1.3252  1.1504
  185SAPI  C21521221   4.371   5.578   9.144  0.1317 -0.5412 -0.0649
  185SAPI  H15R21222   4.382   5.685   9.123 -0.8342 -0.6676 -1.3018
  185SAPI  C21621223   4.335   5.492   9.027  0.4535  0.0454 -0.5656
  185SAPI  H16R21224   4.242   5.447   9.068  1.5322 -2.1863 -0.5166
  185SAPI  H16S21225   4.405   5.410   9.002 -0.9957 -2.0177  1.8835
  185SAPI  C21721226   4.295   5.574   8.900  0.6658 -0.0894 -0.3336
  185SAPI  H17R21227   4.218   5.651   8.923 -0.4602 -1.3278  0.1235
  185SAPI  H17S21228   4.236   5.503   8.837 -0.2409 -0.0960  0.5036
  185SAPI  C21821229   4.416   5.615   8.805  0.6103 -0.0172 -0.1068
  185SAPI  H18R21230   4.464   5.519   8.777 -0.8735 -0.5564 -0.8956
  185SAPI  H18S21231   4.484   5.677   8.867  1.7986  0.7129 -2.0801
  185SAPI  C21921232   4.374   5.687   8.678 -0.3223 -0.1444  0.1582
  185SAPI  H19R21233   4.461   5.744   8.640  0.4204 -1.8965 -0.8183
  185SAPI  H19S21234   4.287   5.753   8.699  1.1149  1.7421  0.3125
  185SAPI  C22021235   4.340   5.578   8.572  0.3006  0.1250 -0.6285
  185SAPI  H20R21236   4.310   5.623   8.475  0.3445 -0.1971 -0.7906
  185SAPI  H20S21237   4.253   5.517   8.603  0.0887  1.6918  2.0084
  185SAPI  H20T21238   4.425   5.510   8.551  0.1494 -0.7335  1.4344
  185SAPI   C3321239   3.667   5.935  10.425 -0.1924 -0.2841  0.0926
  185SAPI   H3X21240   3.682   6.036  10.469  1.9799 -0.7678  0.5134
  185SAPI   H3Y21241   3.588   5.885  10.484 -1.1156  3.2682  2.0000
  185SAPI   C3421242   3.625   5.957  10.278  0.3408 -0.2804  0.6919
  185SAPI   H4X21243   3.692   6.031  10.229 -1.6145  0.5583 -0.7554
  185SAPI   H4Y21244   3.531   6.015  10.286 -1.6535 -3.5460  2.1038
  185SAPI   C3521245   3.603   5.833  10.196  0.0007 -0.4326  0.5900
  185SAPI   H5X21246   3.543   5.766  10.262 -2.1707  2.0549  1.2212
  185SAPI   H5Y21247   3.700   5.786  10.168 -0.2244 -1.0723  0.8695
  185SAPI   C3621248   3.539   5.855  10.063 -0.7653  0.0011  0.3448
  185SAPI   H6X21249   3.583   5.933   9.998 -0.4394 -0.6094 -0.1604
  185SAPI   H6Y21250   3.445   5.913  10.080 -1.3675 -1.0064  0.5275
  185SAPI   C3721251   3.515   5.718   9.996  0.9909 -0.9024  0.2030
  185SAPI   H7X21252   3.501   5.643  10.077 -2.1893  0.2086  0.7410
  185SAPI   H7Y21253   3.606   5.683   9.943  2.6043  1.6191  1.2505
  185SAPI   C3821254   3.401   5.726   9.898  0.2073  0.9474  0.1749
  185SAPI   H8X21255   3.314   5.765   9.955  0.2848 -1.1719  1.8033
  185SAPI   H8Y21256   3.375   5.623   9.864 -1.1708  1.1718  0.5527
  185SAPI   C3921257   3.434   5.813   9.775 -1.0409  0.2399  0.3343
  185SAPI   H9X21258   3.534   5.777   9.743 -1.4122 -0.9263  0.4771
  185SAPI   H9Y21259   3.450   5.922   9.792  0.5670  0.3786 -1.8913
  185SAPI  C31021260   3.352   5.786   9.645  0.0202  0.0476 -0.9108
  185SAPI  H10X21261   3.336   5.677   9.628  1.3901  0.0229 -2.0989
  185SAPI  H10Y21262   3.413   5.807   9.555  0.9828  0.5091 -0.1617
  185SAPI  C31121263   3.213   5.851   9.646 -0.6148 -0.2315  0.9605
  185SAPI  H11X21264   3.233   5.956   9.678 -0.5845 -0.6854  2.4918
  185SAPI  H11Y21265   3.157   5.790   9.720 -1.1459 -0.8766  0.0358
  185SAPI  C31221266   3.141   5.845   9.513 -0.2644 -0.4244  0.9330
  185SAPI  H12X21267   3.041   5.894   9.519  0.0254  0.4228 -0.8598
  185SAPI  H12Y21268   3.138   5.742   9.472 -1.1085 -0.6002  1.4363
  185SAPI  C31321269   3.215   5.929   9.410  0.1876  0.1759 -0.5147
  185SAPI  H13X21270   3.306   5.871   9.383 -1.0249 -1.8638 -0.3433
  185SAPI  H13Y21271   3.259   6.022   9.451 -1.9262  0.9753 -0.0003
  185SAPI  C31421272   3.138   5.955   9.283  0.0414 -0.2057 -0.1787
  185SAPI  H14X21273   3.060   6.032   9.304  1.9905  2.2512 -1.6387
  185SAPI  H14Y21274   3.099   5.856   9.250 -2.5192  0.6816  0.0411
  185SAPI  C31521275   3.230   6.002   9.170  0.0555 -0.0837  0.0504
  185SAPI  H15X21276   3.337   5.971   9.177  0.0075 -0.9216 -2.6941
  185SAPI  H15Y21277   3.235   6.113   9.165  0.8472 -0.0715  0.8530
  185SAPI  C31621278   3.166   5.954   9.041 -0.3554  0.0690  0.1003
  185SAPI  H16X21279   3.068   6.007   9.044 -0.6434 -0.4838  0.8707
  185SAPI  H16Y21280   3.154   5.845   9.058  0.9934  0.3446  3.1588
  185SAPI  C31721281   3.238   5.998   8.912  0.3885 -0.0153  0.1569
  185SAPI  H17X21282   3.209   5.938   8.823 -1.0922 -0.6930  1.0600
  185SAPI  H17Y21283   3.343   5.979   8.941 -0.1134 -1.4865  1.0646
  185SAPI  C31821284   3.221   6.151   8.879 -0.2655 -0.4122  0.2465
  185SAPI  H18X21285   3.117   6.167   8.844 -0.6862 -1.9399  0.7683
  185SAPI  H18Y21286   3.297   6.174   8.802 -0.0533 -0.6434  0.3854
  185SAPI  H18Z21287   3.258   6.223   8.956 -0.4889  0.4064 -0.4005
  186SAPI   C1221288   5.152   4.088  11.156 -0.8940 -0.1184 -0.3570
  186SAPI    H221289   5.237   4.055  11.093 -0.3245  1.5850 -0.5061
  186SAPI    O221290   5.159   4.003  11.271  0.0607 -0.0319  0.2186
  186SAPI   HO221291   5.169   3.912  11.242 -0.4142  0.0835 -0.3304
  186SAPI   C1321292   5.180   4.233  11.191  0.4852  0.3946  0.1632
  186SAPI    H321293   5.175   4.283  11.092 -1.5408  1.3607  0.7280
  186SAPI    O321294   5.314   4.244  11.237  0.1701 -0.6052 -0.2468
  186SAPI   HO321295   5.345   4.166  11.284  3.6236  1.7639  1.6862
  186SAPI   C1421296   5.075   4.288  11.285  0.7140 -0.7317  0.4183
  186SAPI    H421297   5.077   4.244  11.387 -0.1997  2.9106  2.1028
  186SAPI    O421298   5.100   4.421  11.317 -0.0101  0.3379  0.5024
  186SAPI   HO421299   5.028   4.475  11.286 -1.6155 -1.2609  1.3462
  186SAPI   C1521300   4.939   4.263  11.214 -0.3769 -0.8152  0.0459
  186SAPI    H521301   4.942   4.312  11.114 -1.3243  2.0506  1.3784
  186SAPI    O521302   4.831   4.330  11.278  0.1640  0.2911  0.3390
  186SAPI   HO521303   4.827   4.298  11.368  0.8661 -0.0440  0.2511
  186SAPI   C1621304   4.911   4.121  11.178 -1.1092 -0.2404  1.2110
  186SAPI    H621305   4.916   4.060  11.271  0.7667 -0.0913  1.2338
  186SAPI    O621306   4.790   4.098  11.117 -0.2308 -0.3544 -0.5955
  186SAPI   HO621307   4.779   4.003  11.110  2.4072 -0.7068 -0.5712
  186SAPI   C1121308   5.021   4.071  11.084 -0.1895 -0.3718  0.3828
  186SAPI    H121309   5.026   4.143  10.999  1.6752 -0.2088  0.5950
  186SAPI     P21310   4.997   3.910  10.879  0.2818 -0.1390  0.1337
  186SAPI   O1321311   4.906   4.009  10.819  0.1118 -0.2499  0.5957
  186SAPI   O1421312   4.969   3.764  10.854  0.0480 -0.0740 -0.0740
  186SAPI   O1221313   4.998   3.934  11.049  0.2243  0.0672  0.1251
  186SAPI   O1121314   5.137   3.950  10.841  0.0764 -0.7166  0.4107
  186SAPI    C121315   5.181   4.045  10.743 -0.1273 -0.7460  0.0604
  186SAPI    HA21316   5.124   4.139  10.733  1.8605  0.4628 -0.1074
  186SAPI    HB21317   5.275   4.087  10.784 -0.2300  1.0467 -1.4588
  186SAPI    C221318   5.205   3.976  10.606 -0.8662  0.2463 -0.0480
  186SAPI    HS21319   5.245   4.039  10.524  1.4847  1.3343  1.8436
  186SAPI   O2121320   5.076   3.929  10.561 -0.6937  0.0356  0.2522
  186SAPI   C2121321   4.995   4.021  10.521 -0.2472  0.4534  0.2520
  186SAPI   O2221322   5.018   4.140  10.513  0.3916 -0.4528 -0.6600
  186SAPI   C2221323   4.865   3.950  10.484  0.0547 -0.1810 -0.3020
  186SAPI   H2R21324   4.824   3.912  10.580 -1.3521  2.0933  0.0384
  186SAPI   H2S21325   4.790   4.025  10.452  1.1711 -0.1220 -2.8367
  186SAPI    C321326   5.310   3.859  10.607  0.8061 -0.0520  0.1114
  186SAPI    HX21327   5.277   3.784  10.682 -0.0209  0.6938  0.4823
  186SAPI    HY21328   5.413   3.886  10.638  0.3441  0.3826  1.2844
  186SAPI   O3121329   5.313   3.811  10.473 -0.3006  0.0985 -0.0864
  186SAPI   C3121330   5.268   3.688  10.445  0.5009 -0.5677 -0.4905
  186SAPI   O3221331   5.235   3.605  10.528 -0.0115 -0.2345  0.1848
  186SAPI   C3221332   5.269   3.662  10.289 -0.0418 -0.1415 -0.7058
  186SAPI   H2X21333   5.373   3.656  10.249 -0.5971  0.4325 -2.2703
  186SAPI   H2Y21334   5.222   3.747  10.235  0.8849  0.1917 -1.0097
  186SAPI   C2321335   4.878   3.834  10.380  0.1842 -1.1067 -0.1179
  186SAPI   H3R21336   4.776   3.789  10.379 -1.8300  3.0832  2.0670
  186SAPI   H3S21337   4.956   3.765  10.418 -0.1395 -1.1047  0.5541
  186SAPI   C2421338   4.926   3.892  10.245 -0.6406  0.2504  0.3396
  186SAPI   H4R21339   5.030   3.925  10.267 -0.8852  3.8679 -3.4179
  186SAPI   H4S21340   4.857   3.974  10.217 -1.9736 -0.5429  1.2716
  186SAPI   C2521341   4.923   3.776  10.148 -0.4801 -0.8540  0.1555
  186SAPI   H5R21342   4.852   3.693  10.158 -1.5015  0.0038  0.0018
  186SAPI   C2621343   5.000   3.786  10.039 -0.2848 -0.2742  0.1190
  186SAPI   H6R21344   5.004   3.707   9.963  0.7510  0.2939 -0.4366
  186SAPI   C2721345   5.097   3.898   9.997 -0.0156  0.3429  0.2134
  186SAPI   H7R21346   5.099   3.977  10.074  0.1636 -1.5502  2.1981
  186SAPI   H7S21347   5.046   3.929   9.903 -2.0461  1.9527  1.8143
  186SAPI   C2821348   5.236   3.836   9.968 -0.3322 -0.2522 -0.9694
  186SAPI   H8R21349   5.296   3.828  10.060 -2.3235 -0.0204  0.3906
  186SAPI   C2921350   5.288   3.793   9.846  0.0883 -0.8275 -0.0183
  186SAPI   H9R21351   5.390   3.754   9.850  0.0878 -0.6116  3.5177
  186SAPI  C21021352   5.228   3.797   9.716  0.8446  0.4069 -0.1209
  186SAPI  H10R21353   5.288   3.861   9.648  1.5650  0.7040  0.7845
  186SAPI  H10S21354   5.129   3.849   9.715  0.1007 -0.9878 -0.2976
  186SAPI  C21121355   5.216   3.651   9.664 -0.6420  0.8158 -1.0135
  186SAPI  H11R21356   5.228   3.572   9.740 -2.9925 -1.6018 -3.0771
  186SAPI  C21221357   5.209   3.614   9.538 -0.1364  0.1439 -0.8901
  186SAPI  H12R21358   5.192   3.507   9.516  1.8400  0.3079 -3.4004
  186SAPI  C21321359   5.199   3.704   9.419 -0.6858 -0.5260 -0.0326
  186SAPI  H13R21360   5.262   3.663   9.337  0.0987 -0.4320  0.5118
  186SAPI  H13S21361   5.239   3.806   9.435  1.0070 -1.1676 -0.0129
  186SAPI  C21421362   5.065   3.711   9.371 -0.0871  0.5198  0.1182
  186SAPI  H14R21363   4.995   3.678   9.449  1.2914 -2.8492  0.0068
  186SAPI  C21521364   5.007   3.748   9.252 -0.3099  0.1645 -0.2482
  186SAPI  H15R21365   4.897   3.754   9.257 -0.4288  0.5642 -2.7726
  186SAPI  C21621366   5.078   3.808   9.129  0.2825  0.2625  0.2323
  186SAPI  H16R21367   5.184   3.774   9.121  2.0500  5.2356  0.3517
  186SAPI  H16S21368   5.096   3.915   9.155 -1.4408  0.4749  0.5692
  186SAPI  C21721369   5.012   3.795   8.988 -0.2728  0.3595  0.5194
  186SAPI  H17R21370   4.904   3.804   9.012 -0.4620 -0.8227  0.1369
  186SAPI  H17S21371   5.027   3.695   8.942  2.0002  0.3119  1.2777
  186SAPI  C21821372   5.028   3.919   8.896  0.7186 -0.3456  0.2499
  186SAPI  H18R21373   5.130   3.920   8.854  0.3158  0.5040 -0.7315
  186SAPI  H18S21374   5.002   4.010   8.956  1.1411  0.0875 -0.2189
  186SAPI  C21921375   4.934   3.901   8.778  0.2518 -0.0979  0.3507
  186SAPI  H19R21376   4.833   3.937   8.809  0.1568 -0.2769  0.2484
  186SAPI  H19S21377   4.917   3.795   8.749 -0.4226  0.6284 -2.0908
  186SAPI  C22021378   4.981   3.977   8.647  0.0114 -0.3503  0.2382
  186SAPI  H20R21379   4.915   3.971   8.558 -0.7010 -1.5547  0.8350
  186SAPI  H20S21380   5.075   3.932   8.610 -0.8576  0.0352 -2.4917
  186SAPI  H20T21381   5.004   4.085   8.659  2.7022 -0.5696 -2.3342
  186SAPI   C3321382   5.202   3.525  10.248 -0.2631  0.0326  0.4775
  186SAPI   H3X21383   5.092   3.516  10.249 -0.2864  0.3030  0.3489
  186SAPI   H3Y21384   5.257   3.450  10.309  0.5858  0.1565 -0.1153
  186SAPI   C3421385   5.241   3.493  10.099  0.8226  0.7287  0.0262
  186SAPI   H4X21386   5.352   3.496  10.085  0.7172 -1.3796 -1.3135
  186SAPI   H4Y21387   5.197   3.574  10.037 -0.4479 -0.4270 -0.6048
  186SAPI   C3521388   5.208   3.354  10.040 -0.5296  0.3174  0.1761
  186SAPI   H5X21389   5.109   3.326  10.082 -0.0219  1.1337  1.9952
  186SAPI   H5Y21390   5.277   3.278  10.082 -1.2393 -0.6556 -0.4145
  186SAPI   C3621391   5.220   3.335   9.886  0.1334 -0.1980 -0.5305
  186SAPI   H6X21392   5.308   3.388   9.843 -0.3810  1.7097  0.7065
  186SAPI   H6Y21393   5.134   3.388   9.839  0.3149  1.0667  0.5287
  186SAPI   C3721394   5.223   3.186   9.852 -0.2911 -0.1517 -0.0370
  186SAPI   H7X21395   5.127   3.137   9.875  0.1201 -1.7444 -1.6384
  186SAPI   H7Y21396   5.301   3.137   9.914 -1.4551 -1.5709  0.3123
  186SAPI   C3821397   5.265   3.165   9.713 -0.6664 -0.3190  0.6564
  186SAPI   H8X21398   5.289   3.060   9.684 -0.5059 -0.2235  0.4448
  186SAPI   H8Y21399   5.347   3.234   9.686  0.8255 -2.6844 -1.0549
  186SAPI   C3921400   5.156   3.208   9.614  0.3743  0.2724  0.3820
  186SAPI   H9X21401   5.123   3.314   9.619  2.7096  1.1068 -0.9808
  186SAPI   H9Y21402   5.068   3.142   9.627  1.1374 -0.4820  1.8542
  186SAPI  C31021403   5.212   3.182   9.471  0.1635 -1.0642 -0.0940
  186SAPI  H10X21404   5.266   3.085   9.476 -1.2666 -1.8821 -0.1513
  186SAPI  H10Y21405   5.290   3.256   9.442 -0.0295 -1.4716 -1.7416
  186SAPI  C31121406   5.105   3.177   9.355 -1.4860 -0.5603  0.0643
  186SAPI  H11X21407   5.079   3.283   9.338  1.1164  0.0857 -0.0677
  186SAPI  H11Y21408   5.014   3.123   9.391 -2.1117  0.4834  0.0863
  186SAPI  C31221409   5.154   3.121   9.220  0.1988  0.1410  0.6297
  186SAPI  H12X21410   5.170   3.011   9.228  2.5443  0.4164  0.1123
  186SAPI  H12Y21411   5.252   3.162   9.186 -0.0021  0.2572  0.1837
  186SAPI  C31321412   5.046   3.148   9.116  0.2088  0.6191 -0.6092
  186SAPI  H13X21413   5.041   3.257   9.100  1.1398  0.8221  0.4154
  186SAPI  H13Y21414   4.950   3.115   9.161  0.0776  1.2803 -0.4112
  186SAPI  C31421415   5.078   3.081   8.979  0.4883 -0.1468  0.1454
  186SAPI  H14X21416   5.086   2.971   8.990  2.0932  0.0085  0.7015
  186SAPI  H14Y21417   5.170   3.130   8.938  0.3996 -1.2509 -1.4054
  186SAPI  C31521418   4.958   3.104   8.883  0.2749 -0.2006 -0.1612
  186SAPI  H15X21419   4.927   3.210   8.882 -2.3131 -0.9307 -1.6212
  186SAPI  H15Y21420   4.867   3.052   8.920  0.6669  0.9317  2.5654
  186SAPI  C31621421   4.991   3.063   8.739 -0.1266  0.3345  0.2751
  186SAPI  H16X21422   5.079   3.126   8.713  0.6395 -1.0119 -0.4928
  186SAPI  H16Y21423   4.903   3.086   8.676  0.4084  1.1868 -0.1789
  186SAPI  C31721424   5.024   2.915   8.721 -0.0699 -0.9361  0.5603
  186SAPI  H17X21425   4.932   2.854   8.721 -0.4206 -0.4696 -2.1515
  186SAPI  H17Y21426   5.087   2.879   8.805  1.7026  1.3432  0.2760
  186SAPI  C31821427   5.096   2.898   8.583  0.3224 -0.6518  0.3504
  186SAPI  H18X21428   5.104   2.789   8.561  0.0500 -0.6388  0.1836
  186SAPI  H18Y21429   5.200   2.936   8.592 -0.1652  0.8592 -0.2980
  186SAPI  H18Z21430   5.035   2.955   8.509 -0.5203 -1.4514  0.4230
  187SAPI   C1221431   1.950   3.980   6.065  0.3355 -0.8629 -0.7026
  187SAPI    H221432   1.909   3.878   6.052 -2.8114 -0.3969  4.3377
  187SAPI    O221433   2.083   3.957   6.078 -0.6147  0.1123  0.6361
  187SAPI   HO221434   2.112   3.939   5.988  3.8852 -0.2070  2.0355
  187SAPI   C1321435   1.912   4.068   5.953 -0.0824  0.1281  0.5123
  187SAPI    H321436   1.802   4.076   5.959 -0.0546  0.4099  0.7079
  187SAPI    O321437   1.952   4.006   5.833  0.0948  0.6675  0.7693
  187SAPI   HO321438   1.907   4.039   5.755  0.4797  0.9024  0.6456
  187SAPI   C1421439   1.970   4.209   5.962 -0.5481 -0.8216 -0.3405
  187SAPI    H421440   2.079   4.209   5.941 -0.3691  0.3908  0.5449
  187SAPI    O421441   1.908   4.302   5.872 -0.5752  0.3827 -0.2071
  187SAPI   HO421442   1.955   4.293   5.789  2.1140  0.9547  1.1845
  187SAPI   C1521443   1.940   4.270   6.106  0.4803  0.7051  0.0496
  187SAPI    H521444   1.837   4.311   6.102  1.0489  2.1498 -0.1484
  187SAPI    O521445   2.020   4.385   6.124 -0.0207  0.7057  0.6350
  187SAPI   HO521446   2.114   4.365   6.122 -0.2032 -0.1095 -0.7665
  187SAPI   C1621447   1.966   4.171   6.218 -0.3066  0.9678  0.5488
  187SAPI    H621448   2.073   4.146   6.234 -0.7083 -1.0701  0.1634
  187SAPI    O621449   1.928   4.228   6.341  0.1404  0.2321 -0.3484
  187SAPI   HO621450   1.834   4.247   6.338 -0.2077  0.2480  5.6764
  187SAPI   C1121451   1.899   4.032   6.201 -0.5258  0.0805 -0.2420
  187SAPI    H121452   1.789   4.051   6.193 -0.9241 -1.4623  1.3369
  187SAPI     P21453   1.838   3.798   6.330  0.0019 -0.1899 -0.3249
  187SAPI   O1321454   1.918   3.677   6.310 -0.1286  0.3792 -0.1204
  187SAPI   O1421455   1.717   3.819   6.249 -0.1521  0.0738 -0.2526
  187SAPI   O1221456   1.923   3.941   6.307 -0.4048  0.1680  0.2176
  187SAPI   O1121457   1.784   3.808   6.483 -0.3965  0.1063 -0.4556
  187SAPI    C121458   1.862   3.879   6.584  0.0256 -0.0039 -0.6639
  187SAPI    HA21459   1.904   3.807   6.657 -0.1809 -2.1120 -2.5862
  187SAPI    HB21460   1.956   3.927   6.549  0.8251  0.1973  1.6798
  187SAPI    C221461   1.775   3.985   6.660  0.3610  0.0800 -0.0759
  187SAPI    HS21462   1.841   4.046   6.725  3.8490 -2.8593 -0.7131
  187SAPI   O2121463   1.687   3.923   6.754 -0.2129  0.0688 -0.0843
  187SAPI   C2121464   1.740   3.879   6.865  0.1016  0.1578  0.6919
  187SAPI   O2221465   1.855   3.890   6.897 -0.1205 -0.9334 -0.1528
  187SAPI   C2221466   1.627   3.805   6.955 -0.3297  0.3037 -0.5565
  187SAPI   H2R21467   1.532   3.862   6.960 -0.1828  0.4847  0.1987
  187SAPI   H2S21468   1.616   3.701   6.917 -1.0180  0.2484 -0.2039
  187SAPI    C321469   1.702   4.076   6.559 -0.2894  0.3288 -0.1291
  187SAPI    HX21470   1.635   4.007   6.503  0.5567 -0.6781  0.0852
  187SAPI    HY21471   1.788   4.122   6.507 -0.6471 -2.5165 -3.4069
  187SAPI   O3121472   1.641   4.191   6.616 -0.1355 -0.0986  0.3119
  187SAPI   C3121473   1.509   4.195   6.608  0.1019  0.6034 -0.3410
  187SAPI   O3221474   1.437   4.126   6.533  0.2717 -0.0619  0.4073
  187SAPI   C3221475   1.458   4.304   6.699  0.7279 -0.4465 -0.1751
  187SAPI   H2X21476   1.385   4.365   6.642  0.5558 -0.1351  0.3695
  187SAPI   H2Y21477   1.542   4.368   6.734 -0.9560  0.8556  1.5761
  187SAPI   C2321478   1.676   3.791   7.103  0.2153  0.4259 -0.9497
  187SAPI   H3R21479   1.778   3.746   7.109 -0.2043 -0.5159 -0.7037
  187SAPI   H3S21480   1.596   3.723   7.139 -0.4442  2.0213  0.6774
  187SAPI   C2421481   1.674   3.922   7.182 -0.6428 -0.6688 -0.5560
  187SAPI   H4R21482   1.569   3.941   7.210 -1.0502 -0.0753 -2.4446
  187SAPI   H4S21483   1.704   4.005   7.115 -0.9425 -1.0151 -1.1120
  187SAPI   C2521484   1.765   3.917   7.302 -0.0429 -0.6402  0.1760
  187SAPI   H5R21485   1.871   3.928   7.272  0.1276 -1.2461  0.5572
  187SAPI   C2621486   1.729   3.917   7.433  0.0204 -0.2256 -0.4810
  187SAPI   H6R21487   1.809   3.886   7.502 -0.3786  2.5054  1.2796
  187SAPI   C2721488   1.598   3.910   7.502  0.1457 -0.0184  0.0164
  187SAPI   H7R21489   1.530   3.928   7.415  0.8377 -2.8410 -1.1522
  187SAPI   H7S21490   1.592   3.995   7.573  2.6609  0.5844 -0.4591
  187SAPI   C2821491   1.582   3.780   7.572 -0.3906 -0.2769 -0.6683
  187SAPI   H8R21492   1.536   3.697   7.517 -0.2682 -0.6126 -0.2705
  187SAPI   C2921493   1.628   3.755   7.698  0.1903 -0.2276 -0.0130
  187SAPI   H9R21494   1.611   3.660   7.752 -0.4352 -0.1489 -0.0686
  187SAPI  C21021495   1.699   3.847   7.789  0.1973  0.1471 -0.7563
  187SAPI  H10R21496   1.737   3.939   7.741  3.1953 -1.2935 -1.2167
  187SAPI  H10S21497   1.781   3.786   7.833 -0.7456 -0.9833 -0.5273
  187SAPI  C21121498   1.600   3.890   7.901  0.5174  0.9185 -0.3416
  187SAPI  H11R21499   1.509   3.942   7.866 -1.9262 -0.5748  3.4585
  187SAPI  C21221500   1.600   3.862   8.032 -0.1550  0.6909 -0.9077
  187SAPI  H12R21501   1.517   3.906   8.090  0.2278 -0.2601  0.3865
  187SAPI  C21321502   1.692   3.770   8.103  0.6967 -0.2879  0.0938
  187SAPI  H13R21503   1.796   3.809   8.094  0.3132  1.4866  2.9054
  187SAPI  H13S21504   1.689   3.678   8.040 -0.0990  0.8262 -1.5486
  187SAPI  C21421505   1.662   3.740   8.250 -0.6446 -0.5057 -0.1599
  187SAPI  H14R21506   1.645   3.633   8.271 -0.0092 -0.5678  0.0486
  187SAPI  C21521507   1.657   3.826   8.354  0.3418  0.0034 -0.0536
  187SAPI  H15R21508   1.615   3.805   8.453  0.5196  1.5847  0.3760
  187SAPI  C21621509   1.691   3.976   8.339  0.1843 -0.4350  0.3883
  187SAPI  H16R21510   1.599   4.038   8.347  0.6895  0.2794  0.7535
  187SAPI  H16S21511   1.735   3.995   8.238 -1.4078 -0.4650 -0.3371
  187SAPI  C21721512   1.804   4.002   8.441  0.4696  0.4211 -0.6757
  187SAPI  H17R21513   1.904   3.981   8.398  0.1898 -0.7649 -0.7814
  187SAPI  H17S21514   1.789   3.941   8.533  2.3471  1.6003  0.4530
  187SAPI  C21821515   1.801   4.143   8.492 -0.0734 -0.1962 -0.2901
  187SAPI  H18R21516   1.709   4.151   8.555 -0.6258 -0.6336 -1.0254
  187SAPI  H18S21517   1.788   4.220   8.413  1.3021 -0.4149 -0.7315
  187SAPI  C21921518   1.924   4.189   8.574 -0.0260  1.2083 -1.0894
  187SAPI  H19R21519   1.896   4.288   8.617 -2.0474  0.1798  0.0319
  187SAPI  H19S21520   2.011   4.197   8.505  0.9727 -0.3729 -0.0408
  187SAPI  C22021521   1.973   4.100   8.690  0.0459 -0.1695  0.0687
  187SAPI  H20R21522   2.047   4.151   8.755 -0.6732 -0.2367  0.9449
  187SAPI  H20S21523   2.011   4.004   8.650 -2.5524  0.1665 -3.4268
  187SAPI  H20T21524   1.884   4.076   8.752 -0.6688  0.2482 -0.7769
  187SAPI   C3321525   1.377   4.252   6.810 -0.7087  0.1684  0.1692
  187SAPI   H3X21526   1.300   4.188   6.762 -1.7370  0.3801  1.5153
  187SAPI   H3Y21527   1.320   4.333   6.860 -0.3938  0.3709  0.2034
  187SAPI   C3421528   1.453   4.162   6.911 -0.1220  0.6944  0.4017
  187SAPI   H4X21529   1.523   4.087   6.867 -1.0920  0.5913 -1.0040
  187SAPI   H4Y21530   1.380   4.102   6.969 -1.8981  0.9176 -1.5534
  187SAPI   C3521531   1.526   4.242   7.019  0.3777  0.4295 -0.0974
  187SAPI   H5X21532   1.586   4.322   6.971  2.0410  0.0056  1.2032
  187SAPI   H5Y21533   1.593   4.175   7.077 -0.1788  0.0550  0.1109
  187SAPI   C3621534   1.431   4.290   7.128 -0.0688 -0.5886  0.0341
  187SAPI   H6X21535   1.375   4.199   7.161 -2.2109  0.0362 -1.7080
  187SAPI   H6Y21536   1.355   4.352   7.076  0.1030 -1.0489 -0.7626
  187SAPI   C3721537   1.505   4.361   7.242 -0.7442  0.0152 -0.5116
  187SAPI   H7X21538   1.592   4.421   7.209  0.2812 -0.9250  0.4074
  187SAPI   H7Y21539   1.549   4.277   7.300  0.9453  0.0184 -1.7344
  187SAPI   C3821540   1.407   4.445   7.324 -0.9028 -0.0916 -0.7445
  187SAPI   H8X21541   1.313   4.391   7.348  0.4191 -1.6419  1.0185
  187SAPI   H8Y21542   1.369   4.540   7.279 -1.7414  1.6005  3.3748
  187SAPI   C3921543   1.472   4.479   7.462 -0.1898 -0.2327  0.6827
  187SAPI   H9X21544   1.428   4.573   7.501  2.4375  1.1331  0.5001
  187SAPI   H9Y21545   1.576   4.514   7.444 -0.1619 -0.7187 -0.1236
  187SAPI  C31021546   1.463   4.359   7.553 -0.2525  0.2552  0.2011
  187SAPI  H10X21547   1.511   4.275   7.499  0.1566  1.9378 -2.1629
  187SAPI  H10Y21548   1.358   4.324   7.559 -0.3850  0.1774 -2.1380
  187SAPI  C31121549   1.516   4.381   7.688 -0.3217  0.2272 -0.4412
  187SAPI  H11X21550   1.470   4.470   7.737 -1.2675 -1.1905  1.2810
  187SAPI  H11Y21551   1.620   4.417   7.681 -0.0291  0.2564  3.3487
  187SAPI  C31221552   1.489   4.256   7.773 -0.3533 -0.5815 -0.0635
  187SAPI  H12X21553   1.571   4.186   7.746  1.2609  1.9521 -1.9541
  187SAPI  H12Y21554   1.397   4.203   7.740  0.7342 -2.3082 -0.4097
  187SAPI  C31321555   1.514   4.281   7.918 -0.4487  0.4522 -0.0778
  187SAPI  H13X21556   1.610   4.333   7.936 -0.7792  1.4251 -1.0581
  187SAPI  H13Y21557   1.533   4.182   7.966  0.1714  0.9559  0.7188
  187SAPI  C31421558   1.394   4.344   7.991 -0.8181 -0.0662 -0.1275
  187SAPI  H14X21559   1.313   4.269   7.986  0.5701 -1.5910 -0.2982
  187SAPI  H14Y21560   1.348   4.440   7.960 -2.2353 -1.0054 -0.9922
  187SAPI  C31521561   1.434   4.363   8.136 -0.2387 -0.5555 -0.1286
  187SAPI  H15X21562   1.504   4.449   8.148 -2.8350  1.5241  0.5141
  187SAPI  H15Y21563   1.480   4.268   8.173  0.8242  0.0147  0.0194
  187SAPI  C31621564   1.311   4.383   8.231  1.0761 -0.0872  0.3196
  187SAPI  H16X21565   1.228   4.313   8.211 -0.1622  1.6081 -0.6613
  187SAPI  H16Y21566   1.266   4.480   8.199  0.4146 -1.2263 -2.2941
  187SAPI  C31721567   1.345   4.373   8.381 -0.5015  0.6234  0.0589
  187SAPI  H17X21568   1.438   4.434   8.382  0.3168 -0.5548 -1.7398
  187SAPI  H17Y21569   1.383   4.271   8.403  2.8678  1.9326  0.6235
  187SAPI  C31821570   1.241   4.415   8.486 -0.2116 -0.0317  0.3311
  187SAPI  H18X21571   1.191   4.508   8.452 -2.6406 -1.5878 -0.4195
  187SAPI  H18Y21572   1.281   4.423   8.590 -0.4055  2.9494  0.2318
  187SAPI  H18Z21573   1.167   4.333   8.484  1.1057 -1.2235 -1.7051
  188SAPI   C1221574   3.261   1.107   6.591 -0.1477  0.4221  0.2659
  188SAPI    H221575   3.237   1.062   6.689 -0.9506 -0.8567 -0.5052
  188SAPI    O221576   3.133   1.141   6.531  0.3344 -0.5123 -0.7127
  188SAPI   HO221577   3.108   1.062   6.483 -0.8987 -0.7077  0.2125
  188SAPI   C1321578   3.335   1.235   6.611  0.0326  1.0036 -0.4371
  188SAPI    H321579   3.424   1.210   6.673  0.5742 -0.0681 -1.6300
  188SAPI    O321580   3.248   1.319   6.693  0.1855  0.4336  0.7730
  188SAPI   HO321581   3.160   1.306   6.656  0.8406  1.0533 -1.0793
  188SAPI   C1421582   3.384   1.303   6.484 -0.0175 -0.0532  0.1101
  188SAPI    H421583   3.297   1.335   6.423 -1.0515  0.0482  1.6071
  188SAPI    O421584   3.470   1.412   6.513 -0.2092 -0.2997  0.0642
  188SAPI   HO421585   3.429   1.494   6.484 -1.6318 -0.5035  1.3942
  188SAPI   C1521586   3.462   1.201   6.407  0.6429  0.2560  0.8788
  188SAPI    H521587   3.549   1.163   6.464  2.7714  4.0147  0.3229
  188SAPI    O521588   3.494   1.254   6.277  0.3728  0.2101  0.1907
  188SAPI   HO521589   3.458   1.343   6.274  0.3746  0.2059  0.0298
  188SAPI   C1621590   3.386   1.072   6.383  0.0432  0.3893  0.0453
  188SAPI    H621591   3.306   1.086   6.308  2.5810  3.3864 -2.2428
  188SAPI    O621592   3.466   0.977   6.317 -0.2270  0.6061 -0.8851
  188SAPI   HO621593   3.488   0.921   6.392  0.0931  2.7090  0.6420
  188SAPI   C1121594   3.335   1.011   6.511 -0.2208 -0.7203 -0.6406
  188SAPI    H121595   3.419   0.981   6.577 -0.5283 -1.7895 -0.7189
  188SAPI     P21596   3.291   0.744   6.527 -0.1354  0.0626 -0.5848
  188SAPI   O1321597   3.440   0.731   6.525 -0.6153 -0.3900  0.3690
  188SAPI   O1421598   3.203   0.651   6.452  0.1566  1.0973 -0.1462
  188SAPI   O1221599   3.250   0.894   6.494  0.2850  0.0679  0.1412
  188SAPI   O1121600   3.250   0.729   6.684 -0.2424  0.5794  0.5332
  188SAPI    C121601   3.128   0.756   6.734 -0.8001 -0.5535  0.2966
  188SAPI    HA21602   3.105   0.864   6.723 -2.0727 -1.0108 -2.0225
  188SAPI    HB21603   3.055   0.693   6.677 -0.4059 -0.9362  0.2136
  188SAPI    C221604   3.127   0.711   6.881 -0.1370 -0.0721  0.2199
  188SAPI    HS21605   3.023   0.720   6.920 -0.2947  0.6221 -0.3491
  188SAPI   O2121606   3.217   0.797   6.955 -0.0953  0.0461 -0.1061
  188SAPI   C2121607   3.177   0.921   6.971  0.0647 -0.2215 -0.6904
  188SAPI   O2221608   3.066   0.964   6.948  0.3897 -0.2244 -0.4882
  188SAPI   C2221609   3.302   1.010   7.006  0.6954 -0.3225  0.3607
  188SAPI   H2R21610   3.397   0.955   6.996  0.7201 -0.3657  0.8401
  188SAPI   H2S21611   3.305   1.092   6.931  1.2407  0.5209  1.2885
  188SAPI    C321612   3.176   0.559   6.886 -0.2096  0.3011  1.3070
  188SAPI    HX21613   3.273   0.543   6.835 -0.0719  1.7237  1.0896
  188SAPI    HY21614   3.100   0.511   6.820  0.5907  1.3068 -0.3976
  188SAPI   O3121615   3.173   0.490   7.014  0.5297 -0.6598  0.4275
  188SAPI   C3121616   3.289   0.485   7.078 -0.6617 -0.1209 -0.0822
  188SAPI   O3221617   3.391   0.540   7.050  0.2651 -0.6813  0.5441
  188SAPI   C3221618   3.281   0.397   7.193  0.4483  0.8527 -0.2981
  188SAPI   H2X21619   3.371   0.332   7.200 -0.5375 -0.3748  1.2773
  188SAPI   H2Y21620   3.189   0.340   7.169  0.0261  0.7746  1.4544
  188SAPI   C2321621   3.287   1.054   7.151 -0.2566  0.3535 -0.5302
  188SAPI   H3R21622   3.200   1.124   7.147 -0.6622 -0.0592  1.0222
  188SAPI   H3S21623   3.378   1.114   7.170  1.2416 -1.9806 -0.1741
  188SAPI   C2421624   3.262   0.942   7.259 -0.9566 -0.1212  0.0348
  188SAPI   H4R21625   3.170   0.885   7.235 -1.0161 -0.0917  0.1938
  188SAPI   H4S21626   3.245   1.004   7.350  0.6679  0.9669 -0.3941
  188SAPI   C2521627   3.375   0.844   7.277 -0.3540 -0.1933 -0.2953
  188SAPI   H5R21628   3.390   0.780   7.190 -2.0495 -0.6521 -0.2534
  188SAPI   C2621629   3.453   0.825   7.387 -0.3847  0.0248 -0.3357
  188SAPI   H6R21630   3.541   0.759   7.381  0.0644  0.4685  1.3262
  188SAPI   C2721631   3.448   0.881   7.528  0.4083 -0.9063  0.1309
  188SAPI   H7R21632   3.430   0.991   7.524  0.2387 -0.9704 -0.9882
  188SAPI   H7S21633   3.544   0.872   7.583  0.7426 -1.6687 -0.5695
  188SAPI   C2821634   3.347   0.812   7.610  0.1785  0.0206  0.6397
  188SAPI   H8R21635   3.269   0.755   7.557  0.8594 -3.1750  2.9481
  188SAPI   C2921636   3.339   0.821   7.742  0.3756 -0.4834  0.2104
  188SAPI   H9R21637   3.261   0.769   7.799  2.0309 -2.0145  1.1089
  188SAPI  C21021638   3.430   0.907   7.829  1.2149  0.5186  0.2659
  188SAPI  H10R21639   3.487   0.978   7.767 -0.2567 -0.0170 -1.7461
  188SAPI  H10S21640   3.501   0.845   7.888 -0.1135 -0.7537  0.5817
  188SAPI  C21121641   3.352   0.981   7.934  0.2469 -0.0558 -0.1314
  188SAPI  H11R21642   3.243   0.985   7.920 -0.0254 -2.8065  1.0838
  188SAPI  C21221643   3.406   1.062   8.026  0.1489 -0.1564 -0.1533
  188SAPI  H12R21644   3.339   1.123   8.088  1.3340  0.4784  0.5048
  188SAPI  C21321645   3.551   1.083   8.050 -0.7538  0.2005  0.0171
  188SAPI  H13R21646   3.598   0.987   8.080  0.2785  1.2621  1.8088
  188SAPI  H13S21647   3.561   1.143   8.143  1.0827 -0.0316 -0.0123
  188SAPI  C21421648   3.642   1.143   7.947  0.5275  0.0451 -0.4597
  188SAPI  H14R21649   3.616   1.241   7.905 -0.3510  0.1866  0.3947
  188SAPI  C21521650   3.754   1.081   7.900  0.2723 -0.7999 -0.0460
  188SAPI  H15R21651   3.812   1.123   7.817 -1.2899  0.7171 -0.3870
  188SAPI  C21621652   3.824   0.952   7.944  0.0381 -1.0109 -0.0005
  188SAPI  H16R21653   3.848   0.903   7.848  0.7494  2.1108 -1.4940
  188SAPI  H16S21654   3.758   0.886   8.005 -1.2656 -1.0702 -1.4330
  188SAPI  C21721655   3.956   0.959   8.027  0.1117 -0.6134  0.9559
  188SAPI  H17R21656   4.001   0.863   7.995 -2.3436 -1.2865 -0.5980
  188SAPI  H17S21657   3.932   0.957   8.135 -1.9005 -0.6388  0.5379
  188SAPI  C21821658   4.054   1.070   7.983 -0.3176 -0.3416  0.2716
  188SAPI  H18R21659   4.012   1.167   8.016 -0.7576 -0.6783  0.6939
  188SAPI  H18S21660   4.047   1.073   7.872 -1.0978 -0.1524  0.3274
  188SAPI  C21921661   4.199   1.055   8.040 -0.0596  0.2209 -0.4131
  188SAPI  H19R21662   4.234   0.951   8.019 -0.9603 -0.3392  0.8404
  188SAPI  H19S21663   4.197   1.069   8.150 -0.3904 -2.9680  0.0533
  188SAPI  C22021664   4.302   1.156   7.978  0.4758  0.3940  0.1928
  188SAPI  H20R21665   4.301   1.143   7.868 -2.8458 -0.4852  0.2781
  188SAPI  H20S21666   4.400   1.136   8.027  1.1651 -1.1254 -1.7327
  188SAPI  H20T21667   4.278   1.261   8.004 -1.8919  1.0345 -4.1706
  188SAPI   C3321668   3.260   0.483   7.323  0.0536 -0.5322 -0.2763
  188SAPI   H3X21669   3.166   0.542   7.312  0.0683 -0.3807  0.4075
  188SAPI   H3Y21670   3.349   0.547   7.338  1.1919 -2.4214  1.2573
  188SAPI   C3421671   3.240   0.395   7.453  0.4083  0.4580 -0.7144
  188SAPI   H4X21672   3.332   0.334   7.462  0.5076  0.8039  0.6264
  188SAPI   H4Y21673   3.162   0.317   7.435 -1.5937  1.3872  3.3259
  188SAPI   C3521674   3.191   0.465   7.583 -0.8512  0.1480  0.2995
  188SAPI   H5X21675   3.092   0.513   7.571 -1.0187 -0.1021  0.6876
  188SAPI   H5Y21676   3.265   0.548   7.593 -1.2558  0.5253  0.1264
  188SAPI   C3621677   3.196   0.370   7.705 -0.6018 -0.4022 -0.0748
  188SAPI   H6X21678   3.293   0.316   7.691 -0.1168  0.5438 -0.4189
  188SAPI   H6Y21679   3.116   0.293   7.697  0.1435 -1.2144  0.1860
  188SAPI   C3721680   3.211   0.449   7.839 -0.0306 -0.0268 -0.3853
  188SAPI   H7X21681   3.160   0.548   7.839 -0.3144 -0.1739 -0.0237
  188SAPI   H7Y21682   3.317   0.480   7.853  0.3506 -0.2028 -2.6038
  188SAPI   C3821683   3.162   0.374   7.961 -0.3057 -0.0347  0.3321
  188SAPI   H8X21684   3.244   0.307   7.996  0.2990  0.9547  0.8160
  188SAPI   H8Y21685   3.066   0.319   7.950 -1.9257  2.6611  0.7356
  188SAPI   C3921686   3.133   0.473   8.082  0.1442 -0.6165  0.3886
  188SAPI   H9X21687   3.113   0.418   8.177 -2.2648 -0.4737 -0.0102
  188SAPI   H9Y21688   3.031   0.514   8.066  0.6858  0.0744 -1.4001
  188SAPI  C31021689   3.240   0.578   8.113  0.4611  0.1628  0.3959
  188SAPI  H10X21690   3.252   0.655   8.034 -0.2397  1.2050  1.2931
  188SAPI  H10Y21691   3.339   0.529   8.127 -0.9201 -2.2029  2.4086
  188SAPI  C31121692   3.208   0.642   8.249 -0.8258 -0.2990  0.2919
  188SAPI  H11X21693   3.215   0.572   8.335 -0.9861 -1.6250 -0.7558
  188SAPI  H11Y21694   3.100   0.669   8.244 -0.7731  0.7817  3.8590
  188SAPI  C31221695   3.281   0.779   8.272  0.4738  0.0837  0.1877
  188SAPI  H12X21696   3.254   0.824   8.370 -2.1202 -2.0927  0.5361
  188SAPI  H12Y21697   3.236   0.846   8.196 -1.3647 -0.2747  0.9183
  188SAPI  C31321698   3.430   0.765   8.262  0.3357  0.0003 -0.7276
  188SAPI  H13X21699   3.453   0.775   8.154 -1.0820 -0.2809 -1.0615
  188SAPI  H13Y21700   3.470   0.670   8.303 -3.9434 -1.9035 -0.7566
  188SAPI  C31421701   3.503   0.870   8.340  1.0954  0.7628 -0.0955
  188SAPI  H14X21702   3.452   0.873   8.439  1.2138  1.5273 -0.0529
  188SAPI  H14Y21703   3.495   0.972   8.295  0.0479  1.3120  1.2994
  188SAPI  C31521704   3.654   0.853   8.362 -0.0252  0.2197 -0.8808
  188SAPI  H15X21705   3.706   0.855   8.264  0.0690  2.8981 -0.8251
  188SAPI  H15Y21706   3.660   0.767   8.433  1.6761  1.5120  0.6002
  188SAPI  C31621707   3.722   0.961   8.445  0.1930  0.1813 -1.0573
  188SAPI  H16X21708   3.824   0.931   8.476  0.2598 -0.0294 -1.4716
  188SAPI  H16Y21709   3.662   0.979   8.536 -0.0646  0.8619 -1.3567
  188SAPI  C31721710   3.731   1.102   8.378  0.5112 -0.1548 -0.0384
  188SAPI  H17X21711   3.631   1.135   8.344  0.9844  1.7941  0.3770
  188SAPI  H17Y21712   3.802   1.105   8.293 -0.6256 -2.3168 -1.1056
  188SAPI  C31821713   3.766   1.215   8.477 -0.0027  0.5320  0.5925
  188SAPI  H18X21714   3.691   1.240   8.555  1.4139 -0.8224  2.4331
  188SAPI  H18Y21715   3.799   1.309   8.428 -0.5199  1.5266  2.1121
  188SAPI  H18Z21716   3.855   1.182   8.535 -0.5638 -0.6505  0.7863
  189POPC     N21717   4.008   3.376  10.980  0.4300 -0.3245 -0.3683
  189POPC   C1221718   3.998   3.228  11.010  0.1845 -0.7974 -0.5119
  189POPC  H12A21719   4.048   3.201  11.102 -0.0976 -1.6662 -0.6077
  189POPC  H12B21720   4.062   3.181  10.936  0.4967  1.2286 -1.5659
  189POPC   C1321721   3.945   3.459  11.084  0.2122  0.3158  0.0272
  189POPC  H13A21722   3.838   3.453  11.071  0.5157 -1.2740 -1.9963
  189POPC  H13B21723   3.955   3.435  11.189 -3.4817 -2.4015 -0.1092
  189POPC  H13C21724   3.981   3.558  11.062  1.1022 -0.4262 -1.9244
  189POPC   C1421725   4.156   3.415  10.991 -0.0326  0.2351 -0.1154
  189POPC  H14A21726   4.182   3.499  10.928  0.3015  0.4872  0.3580
  189POPC  H14B21727   4.184   3.434  11.093  1.8140 -1.1698 -0.3422
  189POPC  H14C21728   4.220   3.335  10.957 -0.4277 -0.9351  1.8420
  189POPC   C1521729   3.949   3.403  10.843  0.4889 -0.1183  0.5839
  189POPC  H15A21730   3.964   3.505  10.810  1.8556 -0.4014  0.2713
  189POPC  H15B21731   3.844   3.381  10.846 -0.2221  3.0689  1.0902
  189POPC  H15C21732   3.991   3.333  10.773  1.3582 -0.7188  1.6796
  189POPC   C1121733   3.853   3.162  10.988  0.3488  0.0464  0.3130
  189POPC  H11A21734   3.777   3.223  11.042 -0.0430 -0.1966  0.0395
  189POPC  H11B21735   3.839   3.059  11.027 -1.5953  0.8433  1.7870
  189POPC     P21736   3.669   3.114  10.807  0.5571  0.1952 -0.0996
  189POPC   O1321737   3.652   3.149  10.667 -0.1511 -0.1941  0.0153
  189POPC   O1421738   3.573   3.160  10.910  0.7831  0.1586 -0.7659
  189POPC   O1221739   3.814   3.165  10.851  0.0473  0.0767 -0.1690
  189POPC   O1121740   3.663   2.960  10.830 -0.0944 -0.1616 -0.5191
  189POPC    C121741   3.706   2.869  10.727 -0.0503  0.3585 -0.0632
  189POPC    HA21742   3.740   2.780  10.784  1.6753  0.7746 -0.4185
  189POPC    HB21743   3.795   2.901  10.669  0.8743  1.3465  1.8640
  189POPC    C221744   3.601   2.826  10.621  0.1026 -0.0832  0.1283
  189POPC    HS21745   3.571   2.914  10.560  0.8443  0.0003 -0.1163
  189POPC   O2121746   3.485   2.774  10.691 -0.1617 -0.2825 -0.1713
  189POPC   C2121747   3.369   2.792  10.648  0.2299  0.5577 -0.0477
  189POPC   O2221748   3.333   2.856  10.553  0.1614 -0.2668  0.0019
  189POPC   C2221749   3.274   2.714  10.729  0.2715 -0.2180  0.2436
  189POPC   H2R21750   3.251   2.767  10.824 -1.4480  0.2340 -0.4064
  189POPC   H2S21751   3.321   2.619  10.762  1.3691 -0.0096 -0.6953
  189POPC    C321752   3.643   2.712  10.528 -0.2024 -0.3780  0.4705
  189POPC    HX21753   3.649   2.616  10.583 -1.1467 -0.0699  1.1193
  189POPC    HY21754   3.750   2.726  10.501 -0.1456 -1.4856  0.1139
  189POPC   O3121755   3.558   2.688  10.412 -0.0003  0.4629  0.4816
  189POPC   C3121756   3.584   2.755  10.302 -0.1543  0.1510  0.0564
  189POPC   O3221757   3.678   2.832  10.285  0.3633  0.1474  0.5934
  189POPC   C3221758   3.455   2.743  10.218 -0.1665  0.6057 -0.2918
  189POPC   H2X21759   3.429   2.845  10.184 -2.7881  0.5103  1.3509
  189POPC   H2Y21760   3.366   2.716  10.278 -0.2538  3.2825  0.8509
  189POPC   C2321761   3.138   2.695  10.659  0.3371  0.4969 -0.2863
  189POPC   H3R21762   3.086   2.787  10.624  0.2668  0.1374 -1.1600
  189POPC   H3S21763   3.066   2.649  10.731  1.1850  1.1930  1.0192
  189POPC   C2421764   3.138   2.603  10.534  0.1186  0.8967 -0.4986
  189POPC   H4R21765   3.235   2.548  10.528 -0.5051 -0.8398  3.6472
  189POPC   H4S21766   3.148   2.670  10.446 -0.1833  2.7397  0.8495
  189POPC   C2521767   3.019   2.509  10.528 -0.0233  0.1853 -0.9642
  189POPC   H5R21768   2.926   2.559  10.563 -0.1360 -0.6732 -0.0224
  189POPC   H5S21769   3.037   2.419  10.590 -3.0777  0.7091  0.7955
  189POPC   C2621770   2.989   2.471  10.386  0.8143 -0.2716 -0.0447
  189POPC   H6R21771   3.086   2.444  10.339  0.6676 -1.1412  0.1400
  189POPC   H6S21772   2.955   2.562  10.333  0.1401  0.4876  1.6599
  189POPC   C2721773   2.887   2.363  10.372 -0.0508  0.3825 -0.0580
  189POPC   H7R21774   2.798   2.392  10.432  0.1724 -2.3321  1.6338
  189POPC   H7S21775   2.933   2.275  10.422  0.4730  1.2798  1.0607
  189POPC   C2821776   2.858   2.335  10.228  0.6335  0.6789  0.2623
  189POPC   H8R21777   2.844   2.434  10.179  3.7553  1.0021 -0.1017
  189POPC   H8S21778   2.763   2.278  10.229  2.1958 -2.0128  2.3246
  189POPC   C2921779   2.960   2.273  10.145 -0.2336 -0.8725  0.8945
  189POPC   H9121780   3.053   2.245  10.197  2.1800  1.6816 -1.8757
  189POPC  C21021781   2.944   2.246  10.015 -0.5867  0.7092 -0.4898
  189POPC  H10121782   3.034   2.205   9.966  0.1934  2.2401 -0.3583
  189POPC  C21121783   2.827   2.260   9.919 -0.2259  0.2502  0.2401
  189POPC  H11R21784   2.739   2.310   9.965 -0.6570  0.4282 -0.7499
  189POPC  H11S21785   2.781   2.165   9.885  2.0218 -0.0840 -2.0385
  189POPC  C21221786   2.862   2.362   9.801  0.3533 -0.3037 -0.4086
  189POPC  H12R21787   2.909   2.450   9.848 -0.6574 -0.7464  1.5024
  189POPC  H12S21788   2.769   2.400   9.754  0.9228  1.9152  0.2317
  189POPC  C21321789   2.944   2.294   9.687  0.4643  0.5799 -0.7401
  189POPC  H13R21790   2.900   2.194   9.664 -0.1081  0.2630  1.5968
  189POPC  H13S21791   3.050   2.272   9.710 -0.9593 -3.5054  2.5999
  189POPC  C21421792   2.937   2.372   9.548  0.6965  0.3684 -0.1322
  189POPC  H14R21793   2.998   2.464   9.557 -0.2463  1.4416 -3.6899
  189POPC  H14S21794   2.835   2.408   9.525  1.0594  0.0267 -2.4097
  189POPC  C21521795   2.999   2.302   9.433 -0.2669 -0.0006 -1.1544
  189POPC  H15R21796   3.092   2.247   9.458 -0.6000 -0.4444 -0.8864
  189POPC  H15S21797   3.023   2.387   9.366  0.9281 -0.2551 -1.0541
  189POPC  C21621798   2.900   2.204   9.361  0.1388 -0.2000  0.2520
  189POPC  H16R21799   2.807   2.256   9.328  0.4446 -0.7742 -1.5636
  189POPC  H16S21800   2.870   2.115   9.420 -2.7951  1.2406  1.0435
  189POPC  C21721801   2.960   2.158   9.228  0.1086  0.3515  1.0383
  189POPC  H17R21802   3.006   2.237   9.165 -0.6238  0.4725  0.6573
  189POPC  H17S21803   2.877   2.119   9.164  2.1903  0.7416 -2.0286
  189POPC  C21821804   3.058   2.046   9.248 -0.5460  0.3085 -0.0344
  189POPC  H18R21805   3.110   2.024   9.152 -1.5134  0.8692 -0.6953
  189POPC  H18S21806   3.022   1.962   9.311 -0.4510  0.8187  0.7035
  189POPC  H18T21807   3.140   2.096   9.303  0.6950 -0.4519 -1.1360
  189POPC   C3321808   3.463   2.651  10.101 -0.9769 -0.3742  0.0505
  189POPC   H3X21809   3.563   2.658  10.053 -0.8171  1.4035  0.5857
  189POPC   H3Y21810   3.387   2.697  10.034 -0.8333  0.6960  0.6170
  189POPC   C3421811   3.428   2.506  10.128  0.3166 -0.1108 -0.6237
  189POPC   H4X21812   3.321   2.499  10.158  0.0989 -0.0276 -1.3682
  189POPC   H4Y21813   3.490   2.471  10.214 -1.5096 -1.3140  0.2271
  189POPC   C3521814   3.414   2.425   9.993  0.5299 -0.6775 -0.1357
  189POPC   H5X21815   3.405   2.318  10.022 -0.0182 -0.8670 -0.9853
  189POPC   H5Y21816   3.513   2.436   9.946  1.7613  1.4937  2.8359
  189POPC   C3621817   3.303   2.472   9.896 -0.4962  1.1499  0.0328
  189POPC   H6X21818   3.281   2.581   9.894 -1.4710  0.9992  1.7283
  189POPC   H6Y21819   3.206   2.423   9.921 -0.4675 -0.5163 -2.8923
  189POPC   C3721820   3.324   2.415   9.759  0.3001 -0.6466  0.1033
  189POPC   H7X21821   3.231   2.436   9.702  0.0160 -2.6517 -0.2130
  189POPC   H7Y21822   3.322   2.305   9.749 -1.1805 -0.7523  1.3640
  189POPC   C3821823   3.439   2.485   9.688 -0.3182 -0.3080 -0.0687
  189POPC   H8X21824   3.533   2.461   9.742 -0.3603  1.2970  0.7290
  189POPC   H8Y21825   3.431   2.596   9.678 -0.1967 -0.1726  1.3033
  189POPC   C3921826   3.458   2.432   9.544 -0.5083 -0.0137 -0.2104
  189POPC   H9X21827   3.388   2.487   9.477 -0.5323 -1.2021 -1.1657
  189POPC   H9Y21828   3.427   2.326   9.534 -0.5506 -0.0265  0.0433
  189POPC  C31021829   3.593   2.457   9.474  0.1170 -0.3307  0.5058
  189POPC  H10X21830   3.663   2.378   9.509  1.9299  1.4267  0.9551
  189POPC  H10Y21831   3.630   2.551   9.521  1.8247 -1.5230  1.5910
  189POPC  C31121832   3.602   2.476   9.328  0.7141 -0.4989  0.2569
  189POPC  H11X21833   3.707   2.483   9.292  0.7716  1.1856  0.7509
  189POPC  H11Y21834   3.539   2.564   9.305 -0.5462 -1.2885  0.6257
  189POPC  C31221835   3.536   2.364   9.245 -0.3465 -0.5428 -0.0355
  189POPC  H12X21836   3.428   2.358   9.271  0.2707 -2.3498  2.2458
  189POPC  H12Y21837   3.588   2.269   9.271  3.2150  1.5732  0.8935
  189POPC  C31321838   3.557   2.375   9.090 -1.2285 -0.4101  0.2131
  189POPC  H13X21839   3.665   2.386   9.065 -0.4893 -1.8713  2.6058
  189POPC  H13Y21840   3.523   2.475   9.055 -0.2550 -0.1145  0.0986
  189POPC  C31421841   3.502   2.251   9.017 -0.1508 -0.7166 -0.7878
  189POPC  H14X21842   3.511   2.171   9.093 -1.4002  0.0773  0.1911
  189POPC  H14Y21843   3.550   2.226   8.919  0.0536  2.5133 -1.5926
  189POPC  C31521844   3.358   2.284   8.987  0.1684  0.1467  0.5750
  189POPC  H15X21845   3.364   2.383   8.937  1.2465  0.2307  0.8579
  189POPC  H15Y21846   3.292   2.302   9.075 -0.5950  3.3345 -0.5806
  189POPC  C31621847   3.288   2.174   8.897 -0.0752 -0.0669  0.6427
  189POPC  H16X21848   3.182   2.202   8.881  0.8433  1.8851 -2.5187
  189POPC  H16Y21849   3.290   2.071   8.939  0.1118  0.1698  1.2288
  189POPC  H16Z21850   3.342   2.177   8.800  1.1960  2.8249  1.3786
  190POPC     N21851   4.585   5.420  11.072 -0.5801  0.0450 -0.6406
  190POPC   C1221852   4.725   5.468  11.022  0.1281 -0.8821 -0.2578
  190POPC  H12A21853   4.727   5.576  11.032 -0.5923 -0.8099 -0.8795
  190POPC  H12B21854   4.745   5.448  10.918  0.3617 -2.0745  0.0092
  190POPC   C1321855   4.584   5.265  11.068 -0.0549  0.0545  0.1204
  190POPC  H13A21856   4.581   5.222  10.969  0.0315 -1.1371  0.6327
  190POPC  H13B21857   4.679   5.230  11.106  0.2826 -0.1786 -0.9397
  190POPC  H13C21858   4.501   5.225  11.124 -0.8617 -0.8894 -1.7048
  190POPC   C1421859   4.563   5.468  11.207  0.3375 -0.2716 -0.5108
  190POPC  H14A21860   4.638   5.435  11.277 -1.4410 -0.8889  1.1214
  190POPC  H14B21861   4.572   5.575  11.203 -0.5341 -0.1182  1.3289
  190POPC  H14C21862   4.466   5.446  11.249  0.6662  0.2620  0.5133
  190POPC   C1521863   4.486   5.470  10.979 -0.1958 -0.3449  0.0816
  190POPC  H15A21864   4.516   5.479  10.875 -1.0876  1.3864 -0.0382
  190POPC  H15B21865   4.460   5.572  11.002  0.4092  0.1329 -1.2830
  190POPC  H15C21866   4.395   5.413  10.985 -0.8334  0.6998  0.4558
  190POPC   C1121867   4.853   5.413  11.097 -0.4109 -0.6040  0.3242
  190POPC  H11A21868   4.848   5.427  11.207  1.8474  0.8996  0.2891
  190POPC  H11B21869   4.944   5.469  11.066 -0.5043  0.6394  2.2248
  190POPC     P21870   4.941   5.190  10.979  0.0414  0.2950 -0.5957
  190POPC   O1321871   4.877   5.056  10.984  0.0142  0.5971  0.6346
  190POPC   O1421872   5.085   5.191  10.995 -0.1382  0.4016 -0.3307
  190POPC   O1221873   4.879   5.276  11.086 -0.0710 -0.1141 -0.1495
  190POPC   O1121874   4.909   5.269  10.849  0.1129  0.0306 -0.5831
  190POPC    C121875   4.811   5.212  10.761 -0.4646  0.1818  0.8085
  190POPC    HA21876   4.710   5.258  10.768 -0.4272  0.0374  2.3460
  190POPC    HB21877   4.806   5.101  10.769 -0.8328  0.1017 -0.3030
  190POPC    C221878   4.839   5.248  10.611 -0.0134  0.1917 -0.3513
  190POPC    HS21879   4.933   5.193  10.592 -2.1023 -2.3188 -3.9954
  190POPC   O2121880   4.857   5.394  10.604  0.3387 -0.0695  0.2358
  190POPC   C2121881   4.940   5.437  10.516 -0.8468 -0.0470 -0.4773
  190POPC   O2221882   5.011   5.369  10.440  0.8348 -0.4888  0.0813
  190POPC   C2221883   4.946   5.588  10.525  0.7236  0.3027 -0.0304
  190POPC   H2R21884   5.041   5.611  10.578 -0.0067  0.9758  1.0065
  190POPC   H2S21885   4.867   5.615  10.598  1.8770 -2.9053  2.5515
  190POPC    C321886   4.724   5.210  10.513 -0.2695 -0.3014 -0.0362
  190POPC    HX21887   4.640   5.275  10.544  1.5809  2.8159 -1.3836
  190POPC    HY21888   4.691   5.109  10.546 -1.9858  0.2560  0.0250
  190POPC   O3121889   4.763   5.225  10.380  0.5480  0.3332  0.3511
  190POPC   C3121890   4.816   5.113  10.323 -0.1301  0.2905 -0.1575
  190POPC   O3221891   4.828   5.011  10.392 -0.1037  0.5594  0.0513
  190POPC   C3221892   4.850   5.138  10.175 -0.2880 -0.2294  0.7063
  190POPC   H2X21893   4.765   5.188  10.124  1.6927  1.1133 -1.3749
  190POPC   H2Y21894   4.869   5.039  10.128 -0.6787 -0.4884  1.0843
  190POPC   C2321895   4.935   5.659  10.391 -0.6922  0.5352  0.2158
  190POPC   H3R21896   5.004   5.609  10.319  1.4610 -1.8915  3.8216
  190POPC   H3S21897   4.968   5.765  10.402 -0.1067  0.5586 -1.5564
  190POPC   C2421898   4.802   5.648  10.322 -0.4911 -0.2173 -0.5578
  190POPC   H4R21899   4.723   5.640  10.399  1.7846  0.7903  1.9404
  190POPC   H4S21900   4.792   5.552  10.266  0.8455  1.7496 -4.3158
  190POPC   C2521901   4.781   5.762  10.216  0.4958  1.1866  0.3455
  190POPC   H5R21902   4.871   5.783  10.154 -0.1103 -1.2495 -1.4364
  190POPC   H5S21903   4.745   5.857  10.260  0.7891  0.8242  1.3806
  190POPC   C2621904   4.694   5.715  10.098 -0.2180 -0.6393 -0.4140
  190POPC   H6R21905   4.594   5.694  10.142 -0.7340 -0.5844 -1.5370
  190POPC   H6S21906   4.730   5.627  10.041  0.8257 -0.7496  0.4042
  190POPC   C2721907   4.694   5.826   9.994  0.8929  0.1966 -0.2797
  190POPC   H7R21908   4.745   5.804   9.898 -1.4389 -2.3095 -1.0110
  190POPC   H7S21909   4.741   5.919  10.034 -1.2442  1.0756  0.2500
  190POPC   C2821910   4.548   5.853   9.964  0.1775 -0.2307 -0.7561
  190POPC   H8R21911   4.496   5.882  10.057 -2.7064  1.6495 -2.8900
  190POPC   H8S21912   4.502   5.758   9.928 -1.9212 -0.1879  1.6826
  190POPC   C2921913   4.526   5.968   9.865 -0.1612 -0.2058 -0.2558
  190POPC   H9121914   4.512   6.065   9.915  1.4559  0.6274 -1.3903
  190POPC  C21021915   4.511   5.968   9.728  0.5162  0.0900  0.0303
  190POPC  H10121916   4.482   6.064   9.681 -0.5143 -0.2293  0.0023
  190POPC  C21121917   4.521   5.836   9.654  0.2385  0.4289 -1.0221
  190POPC  H11R21918   4.419   5.793   9.641  0.5065 -1.0116  1.3531
  190POPC  H11S21919   4.572   5.757   9.714 -0.2745 -0.6534 -1.9843
  190POPC  C21221920   4.584   5.844   9.518 -0.1544  0.2051  0.2337
  190POPC  H12R21921   4.622   5.752   9.468 -1.1013  1.8366 -3.6876
  190POPC  H12S21922   4.679   5.898   9.539 -0.7386 -0.0743  4.0124
  190POPC  C21321923   4.503   5.922   9.410  0.0595  0.4874  0.6876
  190POPC  H13R21924   4.488   6.022   9.456  2.9955  0.4912  1.7178
  190POPC  H13S21925   4.405   5.871   9.398  0.9607 -1.2445  0.5051
  190POPC  C21421926   4.569   5.929   9.275  0.1814  0.3509 -0.7691
  190POPC  H14R21927   4.569   5.821   9.248 -2.9667 -0.0069  0.4191
  190POPC  H14S21928   4.674   5.962   9.288 -0.6004  2.6985 -0.2513
  190POPC  C21521929   4.492   6.010   9.172 -0.2328 -0.8164 -0.2398
  190POPC  H15R21930   4.384   5.983   9.171  0.2661 -2.9012 -1.3574
  190POPC  H15S21931   4.527   5.990   9.069 -0.2263  1.4349 -0.6966
  190POPC  C21621932   4.517   6.162   9.189 -0.3808 -0.1363  0.0573
  190POPC  H16R21933   4.625   6.182   9.209  0.1702 -1.6095 -1.3143
  190POPC  H16S21934   4.477   6.197   9.286 -0.1651  1.6136 -0.4766
  190POPC  C21721935   4.461   6.251   9.072  0.0317 -0.9053 -0.1886
  190POPC  H17R21936   4.351   6.234   9.076  0.4445 -3.2348  2.6352
  190POPC  H17S21937   4.504   6.213   8.977  1.3421  1.3630 -0.5433
  190POPC  C21821938   4.512   6.394   9.096  0.3866 -0.7070  0.0285
  190POPC  H18R21939   4.459   6.465   9.029  1.8678 -1.0244 -1.4788
  190POPC  H18S21940   4.622   6.388   9.088  0.4041 -1.3936  0.7367
  190POPC  H18T21941   4.484   6.426   9.199  0.5546 -2.0162  0.4798
  190POPC   C3321942   4.956   5.248  10.143  0.7048  1.3481 -0.3356
  190POPC   H3X21943   5.043   5.230  10.210 -0.9893  1.9559  2.0959
  190POPC   H3Y21944   4.926   5.352  10.168 -0.9016  0.7196  0.3462
  190POPC   C3421945   4.993   5.234   9.996  0.1798  0.0445 -0.1600
  190POPC   H4X21946   5.031   5.131   9.978 -1.2255 -0.3738 -0.8815
  190POPC   H4Y21947   5.077   5.305   9.986 -0.9098  1.5996  1.3773
  190POPC   C3521948   4.874   5.274   9.902  0.5646 -0.0796  0.1936
  190POPC   H5X21949   4.842   5.374   9.937  4.4876  2.3558 -2.8133
  190POPC   H5Y21950   4.781   5.213   9.902  0.8879 -0.5774  0.8780
  190POPC   C3621951   4.926   5.283   9.757 -0.0215  0.0655 -0.0442
  190POPC   H6X21952   4.973   5.186   9.734  0.4415  0.2198  0.2599
  190POPC   H6Y21953   5.001   5.365   9.761  0.1548 -0.1129  0.2966
  190POPC   C3721954   4.814   5.318   9.654 -0.3837  0.2031 -0.0923
  190POPC   H7X21955   4.776   5.420   9.678 -2.8428 -0.7542  0.2276
  190POPC   H7Y21956   4.728   5.248   9.662 -0.4748  0.1686 -1.3554
  190POPC   C3821957   4.858   5.311   9.504 -0.0596 -0.0444 -0.3004
  190POPC   H8X21958   4.890   5.206   9.489 -1.7370 -0.4459 -1.1731
  190POPC   H8Y21959   4.945   5.380   9.497 -0.5872  0.5127 -1.6078
  190POPC   C3921960   4.738   5.320   9.409 -0.2933  0.4706  0.1348
  190POPC   H9X21961   4.695   5.422   9.419 -0.6253  0.2592  0.8975
  190POPC   H9Y21962   4.665   5.240   9.435  0.5684  0.1712  1.7374
  190POPC  C31021963   4.779   5.292   9.269 -0.3446 -0.2995  0.1858
  190POPC  H10X21964   4.862   5.220   9.255  0.8958  1.1581 -0.1623
  190POPC  H10Y21965   4.822   5.382   9.219  0.4282 -0.8696 -0.1916
  190POPC  C31121966   4.659   5.259   9.177 -0.5022  0.3828 -0.0044
  190POPC  H11X21967   4.596   5.350   9.177 -0.8563  0.1424 -1.0065
  190POPC  H11Y21968   4.597   5.185   9.232 -0.7415  0.4159 -0.2262
  190POPC  C31221969   4.699   5.208   9.036  0.7166 -0.5543  0.3429
  190POPC  H12X21970   4.604   5.183   8.984 -0.5347 -0.8230  2.6558
  190POPC  H12Y21971   4.755   5.115   9.060 -2.1552 -2.1408  1.1983
  190POPC  C31321972   4.767   5.323   8.960 -0.2469 -0.3214  0.1582
  190POPC  H13X21973   4.855   5.355   9.019  0.4650 -4.5122  1.4927
  190POPC  H13Y21974   4.697   5.409   8.945 -0.1831 -0.3636 -0.3920
  190POPC  C31421975   4.815   5.263   8.822 -0.4264 -0.2296 -0.0295
  190POPC  H14X21976   4.806   5.342   8.745 -0.7068 -0.0038  0.2332
  190POPC  H14Y21977   4.732   5.193   8.797  1.8002 -2.6551 -0.9211
  190POPC  C31521978   4.955   5.192   8.818 -0.5689  1.1157 -0.2370
  190POPC  H15X21979   4.957   5.107   8.889  0.2392  0.2157 -1.3160
  190POPC  H15Y21980   5.032   5.265   8.850 -0.6531  1.0796  0.0485
  190POPC  C31621981   4.984   5.145   8.675  0.2196  0.4987 -0.2701
  190POPC  H16X21982   4.947   5.215   8.597  1.2307  2.6145  1.0946
  190POPC  H16Y21983   4.925   5.052   8.663  1.0632 -0.4471  2.4858
  190POPC  H16Z21984   5.090   5.129   8.646 -0.0313  0.5416 -1.2217
  191POPC     N21985   6.124   6.065   6.211 -0.3548 -0.3959 -0.2001
  191POPC   C1221986   6.061   6.134   6.327 -0.3414  0.2941  0.5253
  191POPC  H12A21987   6.075   6.240   6.316 -2.1129  0.3824 -1.2769
  191POPC  H12B21988   6.125   6.111   6.411 -0.7279 -0.4802  0.6174
  191POPC   C1321989   6.030   6.092   6.099 -0.1138 -0.3043  0.1503
  191POPC  H13A21990   6.008   6.196   6.081 -1.1762 -0.6142 -0.3785
  191POPC  H13B21991   6.076   6.055   6.008 -0.1871 -1.3802  0.5391
  191POPC  H13C21992   5.935   6.044   6.117 -0.3533  0.3841  0.7483
  191POPC   C1421993   6.255   6.131   6.166  0.6059  0.0824  0.2954
  191POPC  H14A21994   6.251   6.238   6.158  1.9933  0.2240  1.3813
  191POPC  H14B21995   6.334   6.116   6.238  0.4175 -4.2913 -0.2455
  191POPC  H14C21996   6.292   6.091   6.073 -0.7602 -1.4152  0.3511
  191POPC   C1521997   6.145   5.919   6.232 -0.0180  0.7209  0.1012
  191POPC  H15A21998   6.183   5.866   6.146  0.3157 -1.0231  1.3075
  191POPC  H15B21999   6.050   5.882   6.267  0.3342  0.4879  0.8320
  191POPC  H15C22000   6.222   5.908   6.307 -1.9643 -1.9006  1.7849
  191POPC   C1122001   5.917   6.103   6.355  0.3642 -0.1913 -0.0957
  191POPC  H11A22002   5.867   6.184   6.297 -2.4253 -1.5768  0.2663
  191POPC  H11B22003   5.906   6.119   6.464  1.5305 -0.1328  0.0199
  191POPC     P22004   5.705   5.956   6.308 -0.2144  0.6863  0.0576
  191POPC   O1322005   5.682   5.815   6.261 -0.2894 -0.0625 -0.0549
  191POPC   O1422006   5.652   6.053   6.209  1.0774 -0.0908 -0.1678
  191POPC   O1222007   5.862   5.970   6.321  0.3883 -0.3468  0.2023
  191POPC   O1122008   5.656   5.982   6.453 -0.2234 -0.4246  0.3464
  191POPC    C122009   5.687   5.875   6.546  0.2350 -0.2594  0.8018
  191POPC    HA22010   5.713   5.927   6.640 -0.6091 -0.1403  0.9737
  191POPC    HB22011   5.781   5.820   6.523 -1.4416 -2.2128 -1.6311
  191POPC    C222012   5.566   5.771   6.568  0.2432 -0.4695  0.3642
  191POPC    HS22013   5.509   5.753   6.474  1.5039  0.0292 -0.5101
  191POPC   O2122014   5.487   5.820   6.678  0.5727  0.4505 -0.2723
  191POPC   C2122015   5.398   5.919   6.647  0.5147  0.0049  0.0856
  191POPC   O2222016   5.358   5.933   6.533  0.0808 -0.3418  0.0732
  191POPC   C2222017   5.348   5.998   6.767  0.5807  0.1896 -0.1282
  191POPC   H2R22018   5.261   5.937   6.800  1.3185  0.1807  1.8978
  191POPC   H2S22019   5.310   6.088   6.715 -0.1772  0.6813  1.2395
  191POPC    C322020   5.635   5.638   6.615  0.7970  0.1760  0.7550
  191POPC    HX22021   5.690   5.590   6.530 -3.1759 -2.6048 -0.3735
  191POPC    HY22022   5.555   5.566   6.641 -0.3201  1.5439  1.1075
  191POPC   O3122023   5.730   5.658   6.722 -0.3238  0.0306  0.5341
  191POPC   C3122024   5.682   5.650   6.850 -0.5507  0.1998  0.0338
  191POPC   O3222025   5.586   5.583   6.883  1.1055  0.1296 -0.0575
  191POPC   C3222026   5.765   5.738   6.944  0.0796 -0.5155 -0.0338
  191POPC   H2X22027   5.726   5.842   6.951  2.6789  0.4197  1.1681
  191POPC   H2Y22028   5.861   5.753   6.890 -1.0318  0.7304 -1.6821
  191POPC   C2322029   5.453   6.039   6.868 -0.1241 -0.1383 -0.4610
  191POPC   H3R22030   5.540   6.071   6.807  0.3015 -1.6746 -0.6817
  191POPC   H3S22031   5.485   5.947   6.922  0.0544  0.0226 -0.2919
  191POPC   C2422032   5.394   6.130   6.971 -0.2997 -0.8557 -0.4734
  191POPC   H4R22033   5.472   6.145   7.049  0.1675  0.0691 -1.1067
  191POPC   H4S22034   5.297   6.092   7.010 -0.5819  0.7060  0.4310
  191POPC   C2522035   5.356   6.274   6.916 -0.3055  1.0164  0.4649
  191POPC   H5R22036   5.299   6.263   6.821  1.9050 -0.1113 -0.7662
  191POPC   H5S22037   5.453   6.328   6.915  0.6146 -0.5759  1.0996
  191POPC   C2622038   5.281   6.360   7.019  0.5100 -0.0088 -0.1110
  191POPC   H6R22039   5.337   6.359   7.116  1.4807  2.4454 -0.6250
  191POPC   H6S22040   5.184   6.317   7.053  0.7861  0.0804  0.8215
  191POPC   C2722041   5.248   6.503   6.974 -0.0462 -0.2022  0.0106
  191POPC   H7R22042   5.183   6.489   6.885  1.3768 -0.6788 -0.9875
  191POPC   H7S22043   5.341   6.552   6.937  1.7245 -2.7986  0.8368
  191POPC   C2822044   5.183   6.582   7.092 -0.3540  0.1250 -0.0719
  191POPC   H8R22045   5.102   6.517   7.131 -1.3640  1.7628  0.5916
  191POPC   H8S22046   5.130   6.665   7.041 -0.1744 -0.1495 -0.7053
  191POPC   C2922047   5.277   6.638   7.199 -0.0193 -0.0611  0.0294
  191POPC   H9122048   5.362   6.693   7.156 -0.1340  0.6492  0.7028
  191POPC  C21022049   5.270   6.626   7.330 -0.6317  0.1379 -0.1291
  191POPC  H10122050   5.357   6.674   7.378  0.3278 -0.2416 -1.4544
  191POPC  C21122051   5.168   6.544   7.408 -0.0708  0.2831  0.0298
  191POPC  H11R22052   5.067   6.546   7.361  0.1339 -2.0294 -0.5663
  191POPC  H11S22053   5.169   6.588   7.510 -1.8648  3.0389 -1.0664
  191POPC  C21222054   5.188   6.393   7.428  0.0789  0.7547 -0.4264
  191POPC  H12R22055   5.208   6.342   7.332  2.0244  0.3193  0.1835
  191POPC  H12S22056   5.092   6.349   7.463  0.4708 -1.5337 -2.1110
  191POPC  C21322057   5.306   6.354   7.516 -0.3377  0.2246 -0.2083
  191POPC  H13R22058   5.401   6.378   7.463  1.0867  1.4351  2.7347
  191POPC  H13S22059   5.302   6.243   7.529  0.4185  0.0304 -1.5185
  191POPC  C21422060   5.316   6.433   7.642  0.0101 -0.0555  0.2785
  191POPC  H14R22061   5.214   6.450   7.682 -0.3775  0.5367 -0.9533
  191POPC  H14S22062   5.343   6.538   7.619 -0.4031  0.4345  1.9626
  191POPC  C21522063   5.400   6.364   7.754  0.1152 -0.5974  0.0293
  191POPC  H15R22064   5.506   6.389   7.728 -0.6186  2.5927 -0.1141
  191POPC  H15S22065   5.376   6.256   7.749  2.1051 -1.0488 -0.2574
  191POPC  C21622066   5.386   6.427   7.894  0.0919 -0.6084 -0.4848
  191POPC  H16R22067   5.287   6.391   7.930  0.4098 -1.7511 -0.7148
  191POPC  H16S22068   5.394   6.537   7.893 -1.4982 -0.4729 -1.2852
  191POPC  C21722069   5.490   6.358   7.986 -0.2661 -0.7525  0.0084
  191POPC  H17R22070   5.596   6.390   7.985 -0.4203 -0.2321 -1.6195
  191POPC  H17S22071   5.494   6.250   7.960 -0.3919 -0.7890  0.1381
  191POPC  C21822072   5.448   6.371   8.139 -0.2514 -0.5152 -0.7073
  191POPC  H18R22073   5.354   6.315   8.160 -1.0589  2.1115  3.0718
  191POPC  H18S22074   5.427   6.477   8.166  0.2196 -1.1136  2.1221
  191POPC  H18T22075   5.526   6.330   8.206 -1.5684  0.2649  1.3428
  191POPC   C3322076   5.785   5.674   7.079 -0.0178  0.9307 -0.0872
  191POPC   H3X22077   5.881   5.718   7.112  1.3186 -1.7425 -0.2261
  191POPC   H3Y22078   5.803   5.564   7.069  2.6883  1.2867  0.4127
  191POPC   C3422079   5.674   5.722   7.173 -0.3353  0.2050  0.5272
  191POPC   H4X22080   5.583   5.697   7.115 -0.4759  1.2113  0.3090
  191POPC   H4Y22081   5.670   5.833   7.176 -0.1915  0.1912  1.3182
  191POPC   C3522082   5.661   5.656   7.309 -0.2325 -0.4190 -0.1552
  191POPC   H5X22083   5.671   5.545   7.300 -1.2256 -0.6507  1.2945
  191POPC   H5Y22084   5.553   5.670   7.330 -0.2771  2.9019 -2.3587
  191POPC   C3622085   5.755   5.706   7.416  0.2877  0.0226  0.0332
  191POPC   H6X22086   5.697   5.700   7.510  0.5477  0.2523  0.2063
  191POPC   H6Y22087   5.783   5.811   7.395  0.1129  0.2708  1.0367
  191POPC   C3722088   5.892   5.635   7.445 -0.4342  0.2423 -0.2123
  191POPC   H7X22089   5.949   5.648   7.350 -1.7252 -0.3982 -1.0954
  191POPC   H7Y22090   5.873   5.527   7.459  0.4407  0.0640 -0.3529
  191POPC   C3822091   5.962   5.685   7.568  0.5304  0.4732 -0.0732
  191POPC   H8X22092   5.964   5.795   7.576  0.9476  0.4698 -0.1127
  191POPC   H8Y22093   6.067   5.650   7.566  0.9274  1.7057 -0.8077
  191POPC   C3922094   5.895   5.630   7.696 -0.3492 -1.4433  0.2558
  191POPC   H9X22095   5.887   5.519   7.688  0.5801 -1.3849 -1.6648
  191POPC   H9Y22096   5.791   5.665   7.710  0.5562  2.2150 -1.7567
  191POPC  C31022097   5.973   5.675   7.824  0.2676  0.3550 -0.1864
  191POPC  H10X22098   5.960   5.783   7.844  0.1067  0.3387 -0.1983
  191POPC  H10Y22099   6.080   5.648   7.816 -0.5532 -2.9552 -0.9275
  191POPC  C31122100   5.915   5.606   7.943  0.2566  0.4468 -0.3590
  191POPC  H11X22101   5.925   5.497   7.927 -1.0395  0.2929 -0.1747
  191POPC  H11Y22102   5.806   5.624   7.959  0.6013  0.9482  1.5415
  191POPC  C31222103   5.983   5.639   8.079 -0.2958 -0.5975 -0.2323
  191POPC  H12X22104   6.000   5.748   8.067  2.5303 -1.2182 -2.1912
  191POPC  H12Y22105   6.069   5.571   8.093 -0.4478 -0.6201  0.6253
  191POPC  C31322106   5.891   5.610   8.200  0.3296 -1.1234 -0.3415
  191POPC  H13X22107   5.859   5.504   8.195 -0.1434 -1.0057  0.1791
  191POPC  H13Y22108   5.803   5.676   8.185  0.1762 -1.3095 -0.2586
  191POPC  C31422109   5.965   5.628   8.330 -1.2851  1.0284  0.0463
  191POPC  H14X22110   5.992   5.735   8.340 -2.1947  1.0791  2.2807
  191POPC  H14Y22111   6.062   5.578   8.347 -1.6617  0.3351  0.2032
  191POPC  C31522112   5.875   5.600   8.447  0.2551  0.0616  0.4352
  191POPC  H15X22113   5.768   5.632   8.451 -0.2782 -1.7217  0.7093
  191POPC  H15Y22114   5.925   5.641   8.537  0.1070 -2.2350  1.5998
  191POPC  C31622115   5.870   5.452   8.478 -0.0110 -0.0267  0.1953
  191POPC  H16X22116   5.799   5.391   8.417  0.7419  1.5289 -2.2774
  191POPC  H16Y22117   5.831   5.447   8.582 -0.6282 -1.0811 -0.0718
  191POPC  H16Z22118   5.968   5.403   8.462 -0.4087 -1.1651  1.1259
  192POPC     N22119   4.592   2.613   6.403  0.1597 -0.6053 -0.1540
  192POPC   C1222120   4.615   2.504   6.508 -0.2998 -0.1699 -0.7235
  192POPC  H12A22121   4.539   2.512   6.584  0.7661 -0.9016  0.4307
  192POPC  H12B22122   4.713   2.520   6.549  0.1815 -2.2339 -0.9989
  192POPC   C1322123   4.445   2.616   6.376  0.7710 -0.0929  0.0448
  192POPC  H13A22124   4.414   2.686   6.300  1.3363  1.4632  1.2223
  192POPC  H13B22125   4.403   2.518   6.356  1.7009 -0.6330  0.6594
  192POPC  H13C22126   4.380   2.646   6.457 -1.7460 -2.1076 -1.1420
  192POPC   C1422127   4.632   2.746   6.462  0.4735 -0.2292 -0.2010
  192POPC  H14A22128   4.578   2.766   6.554 -0.6350  0.7822 -1.0500
  192POPC  H14B22129   4.736   2.738   6.490  0.2948 -2.3799 -0.1156
  192POPC  H14C22130   4.629   2.831   6.395  1.5011  1.8906  2.3636
  192POPC   C1522131   4.666   2.598   6.277 -0.4675 -0.1238  0.2328
  192POPC  H15A22132   4.772   2.586   6.296 -0.6112 -1.2322  0.3865
  192POPC  H15B22133   4.660   2.673   6.199  3.0777 -0.8464 -0.8409
  192POPC  H15C22134   4.640   2.501   6.236 -0.1055 -1.0693  2.1637
  192POPC   C1122135   4.588   2.358   6.464  0.4722  0.1680 -0.4379
  192POPC  H11A22136   4.637   2.290   6.537 -1.9443 -0.6701  0.4626
  192POPC  H11B22137   4.631   2.331   6.365 -1.9834 -1.3293 -1.1476
  192POPC     P22138   4.391   2.211   6.384 -0.2161 -0.5727  0.1174
  192POPC   O1322139   4.391   2.239   6.242  0.2661  0.3062 -0.6513
  192POPC   O1422140   4.257   2.173   6.433  0.1031 -0.7384 -0.0558
  192POPC   O1222141   4.445   2.339   6.462 -0.0794  0.1469  0.0172
  192POPC   O1122142   4.498   2.102   6.415 -0.3682  0.0418  0.1838
  192POPC    C122143   4.470   1.973   6.467  0.0389 -0.7082 -0.3588
  192POPC    HA22144   4.558   1.907   6.462  0.6897  0.3428 -3.7465
  192POPC    HB22145   4.388   1.933   6.403 -0.0093 -1.4484  0.1588
  192POPC    C222146   4.438   1.995   6.620 -0.1961 -0.8178 -0.4344
  192POPC    HS22147   4.371   2.083   6.628  1.2813  0.2340  0.6001
  192POPC   O2122148   4.563   2.012   6.685 -0.5044 -0.0995  0.2725
  192POPC   C2122149   4.571   2.098   6.784 -0.1293  0.6468  0.2661
  192POPC   O2222150   4.484   2.178   6.814  0.7569 -0.0672  0.1306
  192POPC   C2222151   4.705   2.080   6.860 -0.0375 -0.3077  0.2961
  192POPC   H2R22152   4.769   2.145   6.797 -0.5535 -0.2731 -0.2002
  192POPC   H2S22153   4.748   1.978   6.855  1.8069  0.5001 -1.1167
  192POPC    C322154   4.358   1.876   6.669 -0.2190  0.3487  0.3129
  192POPC    HX22155   4.422   1.786   6.685  0.0316  0.7452  1.6118
  192POPC    HY22156   4.280   1.861   6.591 -2.3870  2.9480  1.8653
  192POPC   O3122157   4.304   1.907   6.793  0.4750 -0.1932  0.0737
  192POPC   C3122158   4.212   2.002   6.805  0.0376 -0.3763 -0.2323
  192POPC   O3222159   4.150   2.059   6.714  0.0418 -0.3002 -0.0849
  192POPC   C3222160   4.177   2.014   6.951 -1.5079  0.2371  0.7329
  192POPC   H2X22161   4.124   1.920   6.980 -1.0683  0.6135  2.8226
  192POPC   H2Y22162   4.098   2.091   6.966 -1.9742  0.2518 -1.6973
  192POPC   C2322163   4.701   2.134   7.012  0.3322  0.0192 -0.2208
  192POPC   H3R22164   4.784   2.093   7.073  0.9699 -1.6360 -2.1436
  192POPC   H3S22165   4.611   2.109   7.071  0.1141  2.0478  0.3178
  192POPC   C2422166   4.725   2.283   7.013  0.2388  0.7558  0.5532
  192POPC   H4R22167   4.644   2.312   6.943 -0.6926  0.1677  1.3708
  192POPC   H4S22168   4.821   2.323   6.974 -1.3590  2.2124 -2.0228
  192POPC   C2522169   4.695   2.350   7.146 -0.3599  0.0307  0.4151
  192POPC   H5R22170   4.599   2.315   7.190 -1.3299 -0.4471 -1.9579
  192POPC   H5S22171   4.682   2.457   7.122  1.9426  0.3715  0.5905
  192POPC   C2622172   4.806   2.330   7.243 -0.3669  0.6311  0.0615
  192POPC   H6R22173   4.894   2.347   7.177  0.3553  0.4049  0.9610
  192POPC   H6S22174   4.832   2.227   7.273 -0.3533  1.3308  2.5090
  192POPC   C2722175   4.807   2.421   7.364  0.8289 -1.4852  0.0738
  192POPC   H7R22176   4.706   2.424   7.411  0.9353  3.0874  0.1773
  192POPC   H7S22177   4.820   2.525   7.329  0.5599 -1.4301  0.1376
  192POPC   C2822178   4.904   2.389   7.480  0.1215 -0.2247 -0.4915
  192POPC   H8R22179   4.892   2.464   7.561 -0.2095 -3.1771  2.2995
  192POPC   H8S22180   5.007   2.390   7.439 -0.2778 -0.0797 -1.5278
  192POPC   C2922181   4.872   2.252   7.536  0.5758  0.1513  0.0410
  192POPC   H9122182   4.921   2.179   7.469 -2.6384  0.3832 -2.7311
  192POPC  C21022183   4.803   2.220   7.647  0.4584 -0.1516 -0.3506
  192POPC  H10122184   4.800   2.112   7.672 -2.7081 -0.2016 -0.6728
  192POPC  C21122185   4.742   2.310   7.752  0.5371  0.2572  0.2903
  192POPC  H11R22186   4.631   2.314   7.749  0.5347 -0.2793 -0.4913
  192POPC  H11S22187   4.772   2.417   7.743  0.2045  0.2926 -0.4863
  192POPC  C21222188   4.775   2.250   7.890 -0.0285  0.4492  0.1642
  192POPC  H12R22189   4.885   2.252   7.907  0.3368 -1.0274 -1.7939
  192POPC  H12S22190   4.733   2.149   7.907 -0.4906  0.4119 -1.1240
  192POPC  C21322191   4.718   2.333   8.012 -0.8994  0.4019  0.5414
  192POPC  H13R22192   4.616   2.362   7.979  0.0912  1.1440 -1.9150
  192POPC  H13S22193   4.773   2.429   8.011  0.7031 -0.4988 -2.6222
  192POPC  C21422194   4.709   2.256   8.145 -0.6129  0.3574  0.3271
  192POPC  H14R22195   4.675   2.151   8.129 -3.0469  1.4162 -1.7377
  192POPC  H14S22196   4.644   2.308   8.218 -0.2327 -0.3868  1.2167
  192POPC  C21522197   4.849   2.263   8.214 -0.0952  0.0137 -0.4156
  192POPC  H15R22198   4.881   2.368   8.231 -0.8695  0.2159 -0.2270
  192POPC  H15S22199   4.930   2.218   8.152  1.1026  1.1737  0.2908
  192POPC  C21622200   4.851   2.193   8.351 -0.2377  0.5366 -0.0552
  192POPC  H16R22201   4.793   2.098   8.353  1.9544 -0.8677 -1.6010
  192POPC  H16S22202   4.819   2.262   8.432 -1.0077 -0.7134  0.7265
  192POPC  C21722203   4.986   2.153   8.411  0.1079  0.5243  0.2135
  192POPC  H17R22204   5.052   2.241   8.398 -0.4078  0.7045 -1.2633
  192POPC  H17S22205   5.032   2.069   8.354  0.3412  1.3811 -0.8737
  192POPC  C21822206   4.977   2.105   8.555  0.4522 -0.2574 -0.1567
  192POPC  H18R22207   4.997   2.193   8.620 -0.0054 -1.1373  1.1855
  192POPC  H18S22208   5.058   2.033   8.580 -0.7662 -0.9083  2.0621
  192POPC  H18T22209   4.878   2.064   8.585  0.5748  1.1584  2.2880
  192POPC   C3322210   4.299   2.016   7.045  0.0301  0.2800  0.6651
  192POPC   H3X22211   4.347   2.117   7.053 -1.0399  0.8715 -0.2128
  192POPC   H3Y22212   4.377   1.940   7.025 -0.4317 -0.2768  0.9966
  192POPC   C3422213   4.250   1.986   7.183 -0.2399  0.5861 -0.0123
  192POPC   H4X22214   4.216   1.881   7.197  0.7543 -0.2303 -3.2102
  192POPC   H4Y22215   4.154   2.042   7.196  1.3854  2.7873  3.0060
  192POPC   C3522216   4.362   1.986   7.292 -0.3895 -0.3401 -0.0218
  192POPC   H5X22217   4.411   2.084   7.274 -3.0377  1.5207  2.4675
  192POPC   H5Y22218   4.438   1.908   7.270  1.4390  1.9444 -2.1431
  192POPC   C3622219   4.304   1.960   7.433  0.0982  0.0242  0.6812
  192POPC   H6X22220   4.279   1.853   7.450  1.2480 -0.7093 -2.0494
  192POPC   H6Y22221   4.218   2.026   7.457  0.5440  0.6008  0.6872
  192POPC   C3722222   4.397   2.000   7.554  0.3901  0.2782  0.6805
  192POPC   H7X22223   4.442   2.101   7.539  0.7773 -0.1108 -0.8373
  192POPC   H7Y22224   4.477   1.923   7.562  0.4915  0.2712 -0.3433
  192POPC   C3822225   4.315   2.014   7.681 -0.0617  1.0647 -0.4640
  192POPC   H8X22226   4.246   1.928   7.692  0.6503  0.4367 -0.8141
  192POPC   H8Y22227   4.246   2.100   7.671  0.1485  1.2743 -0.1065
  192POPC   C3922228   4.401   2.018   7.810  0.4473  0.0382 -0.3618
  192POPC   H9X22229   4.408   2.126   7.834 -5.3304  0.3248  0.8511
  192POPC   H9Y22230   4.495   1.967   7.782 -0.1922 -2.3472  1.7133
  192POPC  C31022231   4.337   1.931   7.927  0.0808  0.5920 -0.0311
  192POPC  H10X22232   4.329   1.827   7.890  0.1373 -0.2329  2.2078
  192POPC  H10Y22233   4.237   1.973   7.952 -0.0855 -0.6946  1.5315
  192POPC  C31122234   4.408   1.941   8.056  0.6520  0.5293  0.0520
  192POPC  H11X22235   4.516   1.939   8.030  0.0888  1.0150 -2.5219
  192POPC  H11Y22236   4.381   1.857   8.123  1.3289 -1.1258 -1.7000
  192POPC  C31222237   4.372   2.061   8.142  0.4355  0.3157 -0.0734
  192POPC  H12X22238   4.263   2.056   8.164  0.6036 -5.4398  0.3007
  192POPC  H12Y22239   4.392   2.149   8.078  0.7688  0.0723 -0.3064
  192POPC  C31322240   4.443   2.070   8.275 -0.2147 -0.0819 -0.2434
  192POPC  H13X22241   4.412   2.165   8.324  0.6715 -0.4826  1.1209
  192POPC  H13Y22242   4.554   2.061   8.274 -0.4337 -3.5819  1.3013
  192POPC  C31422243   4.390   1.974   8.384 -0.5418  0.3395 -0.6345
  192POPC  H14X22244   4.403   1.875   8.334 -0.8996  0.4820 -1.0141
  192POPC  H14Y22245   4.282   1.980   8.406 -0.2949 -0.6779  0.9063
  192POPC  C31522246   4.486   1.974   8.506  0.1167  0.4536  0.8135
  192POPC  H15X22247   4.497   2.077   8.545  2.6520  0.6193 -0.2248
  192POPC  H15Y22248   4.593   1.949   8.486  0.2101  0.9126  0.7328
  192POPC  C31622249   4.446   1.888   8.623 -0.1178  0.1416  0.4793
  192POPC  H16X22250   4.452   1.781   8.594  1.2950  0.0053  1.2329
  192POPC  H16Y22251   4.342   1.909   8.658 -1.1737 -1.4486 -1.5998
  192POPC  H16Z22252   4.509   1.910   8.711 -1.2832  1.3382  1.0340
  193SOD    SOD22253   5.516   1.846   2.188  0.3419 -0.0327  0.2030
  194SOD    SOD22254   2.402   5.615  14.382 -0.5209  0.3421 -0.5780
  195SOD    SOD22255   6.618   3.946  12.384  0.1982  0.7594  0.2955
  196SOD    SOD22256   2.782   6.000   3.479  0.2660  0.6152 -0.6165
  197SOD    SOD22257   3.902   1.081  16.191  0.1567 -0.0728  0.2075
  198SOD    SOD22258   1.733   3.708  12.720 -0.0144  0.3149  0.0836
  199SOD    SOD22259   1.010   0.045   6.248 -0.0175 -0.5069 -0.5442
  200SOD    SOD22260   3.449   4.699   0.089 -0.1245  0.0086  0.5545
  201SOD    SOD22261   6.562   1.827  14.191 -0.4660 -0.0828  0.6248
  202SOD    SOD22262   6.005   2.732  11.572 -0.3112  0.0758  0.3837
  203SOD    SOD22263   4.910   0.086   5.191 -0.3299  0.4617 -0.2994
  204SOD    SOD22264   1.656   1.999  16.619  0.2548 -0.2697  0.3884
  205SOD    SOD22265   1.744   4.087  13.853 -0.0520  0.4775  0.4743
  206SOD    SOD22266   3.058   2.725  15.857  0.4652  0.3592 -0.2853
  207SOD    SOD22267   1.011   0.289  12.065  0.1027 -0.4090 -0.4941
  208SOD    SOD22268   4.310   1.058   0.855  0.6660  0.4794  0.5572
  209SOD    SOD22269   3.122   5.040  11.385  0.3087  0.0409 -0.1869
  210SOD    SOD22270   5.776   5.806   5.853 -0.0048 -0.1049  0.0564
  211SOD    SOD22271   4.248   4.633   0.300  0.1955 -0.4867  0.1543
  212SOD    SOD22272   0.932   1.673  11.363 -0.0903 -0.0141 -0.5576
  213SOD    SOD22273   0.860   2.204   3.019  0.2213  0.7314  0.5482
  214SOD    SOD22274   2.168   1.050   5.119 -0.0229 -0.0651  0.1180
  215SOD    SOD22275   6.651   6.519   2.951 -0.0661 -0.2294 -0.5227
  216SOD    SOD22276   5.843   0.273   1.468 -0.2184 -0.3239  0.3297
  217SOD    SOD22277   6.442   4.303   5.131 -0.6315 -0.2922 -0.2605
  218SOD    SOD22278   6.348   4.562  16.137  0.3428  0.7021 -0.0765
  219SOD    SOD22279   3.650   2.378   1.995 -0.2504  0.1858  0.1577
  220SOD    SOD22280   3.281   1.784   2.331 -0.2916  0.3011 -0.4378
  221SOD    SOD22281   5.124   2.743   1.894  0.3510  0.0145 -0.2402
  222SOD    SOD22282   3.562   3.293   0.537  0.0620  0.1408 -0.0041
  223SOD    SOD22283   5.295   5.340  15.708 -0.2886 -0.2743  0.0113
  224SOD    SOD22284   4.454   3.035   3.367 -0.2826 -0.4303 -0.1936
  225SOD    SOD22285   6.644   2.978  15.616  0.1587  0.0123 -0.6744
  226SOD    SOD22286   0.420   1.847  12.175  0.2869  0.5644  0.0123
  227SOD    SOD22287   5.741   5.027   6.064 -0.2151 -0.4508  0.3269
  228SOD    SOD22288   0.451   5.880  15.375  0.3730 -0.2430 -0.0952
  229SOD    SOD22289   3.147   3.555   5.870 -0.0408  0.1980  0.1582
  230SOD    SOD22290   4.493   1.150  11.342 -0.0419 -0.2367 -0.4179
  231SOD    SOD22291   1.252   1.819  14.107 -0.0098  0.2575 -0.1295
  232SOD    SOD22292   1.451   1.259  10.917 -0.2673  0.3606 -0.1960
  233SOD    SOD22293   6.139   5.631  12.591  0.2891 -0.5625  0.8521
  234SOD    SOD22294   1.616   5.565   6.322  0.5091  0.1437 -0.1347
  235SOD    SOD22295   0.736   1.576  14.594 -0.1378  0.2665  0.5164
  236SOD    SOD22296   2.925   5.386  10.544 -0.0562  0.6315  0.4201
  237SOD    SOD22297   4.377   0.964   3.018  0.0997  0.3190  0.6835
  238SOD    SOD22298   1.702   5.524  11.168  0.3292 -0.2096 -0.3517
  239SOD    SOD22299   0.670   6.164   5.782  0.0700  0.2170  0.9513
  240SOD    SOD22300   1.168   4.073  14.377 -0.6552 -0.0465  0.3256
  241SOD    SOD22301   5.804   3.046   1.393 -0.1033 -0.3742  0.2404
  242SOD    SOD22302   3.506   6.364   5.813  0.1164 -0.5793  0.4563
  243SOD    SOD22303   4.017   1.039   4.631  0.1845  0.0158 -0.0879
  244SOD    SOD22304   2.700   3.106  15.635  0.1297  0.5433 -0.6544
  245SOD    SOD22305   3.096   1.256   3.691 -0.4415  0.4811 -0.5916
  246SOD    SOD22306   5.196   2.792  15.735 -0.0372 -0.7078 -0.2001
  247SOD    SOD22307   1.972   2.500   5.984  0.4028 -0.3411  0.3110
  248SOD    SOD22308   0.044   4.599   3.007  0.1331 -0.1540  0.1871
  249SOD    SOD22309   2.730   3.649   2.448 -0.1411 -0.1172  0.4125
  250SOD    SOD22310   3.260   6.759  13.635  0.1977  0.1300  0.1833
  251SOD    SOD22311   4.154   4.215   5.551  0.4501  0.6902 -0.1319
  252SOD    SOD22312   1.252   4.467   5.319 -0.6678  0.2635 -0.1442
  253SOD    SOD22313   3.828   4.887  15.346 -0.3973 -0.5153 -0.3053
  254SOD    SOD22314   4.529   2.952   5.132 -0.5756  0.4812  0.1957
  255SOD    SOD22315   2.736   3.194  11.546  0.0298 -0.4279  0.1814
  256SOD    SOD22316   4.781   0.891  10.799  0.5077 -0.2639 -0.4365
  257SOD    SOD22317   5.590   3.857  11.055  0.5177  0.2967 -0.5959
  258SOD    SOD22318   2.140   2.411  12.649 -0.0950  0.3184 -0.0058
  259SOD    SOD22319   0.337   5.814  16.663 -0.1779  0.1402 -0.1011
  260SOD    SOD22320   5.012   3.011  12.723  0.1216  0.5361 -0.1591
  261SOD    SOD22321   6.471   6.445   0.931 -0.0826 -0.0447 -0.0769
  262SOD    SOD22322   4.290   5.161   5.619  0.1779 -0.0460 -0.3014
  263SOD    SOD22323   2.742   5.998  11.356 -0.2821 -0.1945 -0.2150
  264SOD    SOD22324   3.014   5.875   6.158  0.1120 -0.5403 -0.6294
  265SOD    SOD22325   1.960   1.717   5.910 -0.1027 -0.3169 -0.2844
  266SOD    SOD22326   4.582   5.501   2.318  0.5568  0.1719 -0.2797
  267SOD    SOD22327   1.399   5.290  16.920 -0.0608 -0.2111  0.1099
  268SOD    SOD22328   2.500   1.671   3.438  0.0819  0.0239 -0.5680
  269SOD    SOD22329   1.478   3.249  13.454 -0.4048 -0.4100  0.5010
  270CLA    CLA22330   5.599   1.003   0.659  0.1134  0.5709  0.0594
  271CLA    CLA22331   2.306   3.382   2.284 -0.1183  0.3884 -0.0905
  272CLA    CLA22332   3.350   2.398   2.545 -0.5669 -0.6495 -0.2684
  273CLA    CLA22333   3.175   3.806  16.285 -0.0865 -0.2941  0.2560
  274CLA    CLA22334   6.573   6.233  15.458  0.0100  0.0247 -0.0418
  275CLA    CLA22335   4.277   5.846   4.667  0.0256  0.3483  0.0604
  276CLA    CLA22336   0.901   5.523  12.144  0.2300 -0.3687  0.3954
  277CLA    CLA22337   0.896   6.238   4.053  0.2312 -0.1095  0.1908
  278CLA    CLA22338   0.765   0.122  15.849  0.1934  0.0017  0.2611
  279CLA    CLA22339   4.547   5.957   2.552 -0.2077  0.2996 -0.4308
  280CLA    CLA22340   5.492   0.024  11.980  0.0472 -0.0527  0.0127
  281CLA    CLA22341   2.753   3.808   1.014  0.1436 -0.3527  0.1985
  282CLA    CLA22342   0.707   5.040   3.654 -0.2587  0.2904 -0.2259
  283CLA    CLA22343   2.510   0.297   3.006  0.4507 -0.2120 -0.1222
  284CLA    CLA22344   2.804   2.441  15.196  0.5436  0.1564  0.1559
  285CLA    CLA22345   1.180   5.308  14.442  0.3915  0.1838  0.1392
  286CLA    CLA22346   2.686   0.645   4.625 -0.3283  0.1719 -0.2097
  287CLA    CLA22347   3.486   3.669  15.030  0.2471 -0.2085  0.0307
  288CLA    CLA22348   4.320   2.512   1.904  0.2018 -0.0772 -0.3330
  289CLA    CLA22349   0.016   5.331   1.767  0.2522  0.2628 -0.1670
  290CLA    CLA22350   1.651   2.799  13.480  0.3470  0.5154 -0.4137
  291CLA    CLA22351   0.283   1.630  14.589  0.1828 -0.1836  0.1634
  292CLA    CLA22352   4.394   2.567  17.097 -0.3270  0.1491  0.1510
  293CLA    CLA22353   1.881   1.380  13.382  0.4497  0.0432 -0.0441
  294CLA    CLA22354   0.202   1.552  13.412 -0.0752 -0.4138 -0.3160
  295CLA    CLA22355   6.017   2.039  12.106 -0.3533 -0.4567 -0.0934
  296CLA    CLA22356   3.436   3.927   4.932  0.1672  0.0311  0.0879
  297CLA    CLA22357   4.191   1.177   2.277  0.2824  0.0927  0.5162
  298CLA    CLA22358   3.316   0.681   0.279  0.3664  0.2517 -0.0699
  299CLA    CLA22359   5.676   1.663   3.108 -0.0300  0.0979 -0.3076
  300CLA    CLA22360   6.298   2.195   2.619 -0.1879  0.1705  0.0479
  301CLA    CLA22361   3.116   3.000   4.494  0.3675 -0.2738  0.1737
  302CLA    CLA22362   0.776   6.406  15.746  0.0249 -0.3637  0.2268
  303CLA    CLA22363   4.096   4.535  11.572 -0.5506  0.4470 -0.0321
  304CLA    CLA22364   1.245   3.539  12.576  0.1310  0.0108 -0.3748
  305CLA    CLA22365   2.742   2.848   5.795  0.4188  0.2260 -0.2456
  306CLA    CLA22366   4.561   5.533  15.770  0.2228  0.3818 -0.0555
  307CLA    CLA22367   4.424   1.995   3.819 -0.1489  0.0364  0.0257
  308CLA    CLA22368   0.294   4.089  13.692  0.0188 -0.3359  0.0200
  309CLA    CLA22369   2.866   5.348   1.909  0.1265 -0.2674 -0.1226
  310CLA    CLA22370   2.264   5.577  11.313 -0.3671 -0.1282  0.1157
  311CLA    CLA22371   2.369   4.705  15.309 -0.0652 -0.0466  0.0037
  312CLA    CLA22372   3.424   1.492   3.284  0.2767 -0.1464 -0.1541
  313CLA    CLA22373   3.002   0.110  14.120 -0.0879 -0.4409 -0.1064
  314CLA    CLA22374   0.175   2.270   4.137 -0.4690 -0.3094 -0.4970
  315CLA    CLA22375   4.531   3.237   2.029  0.2584  0.3441 -0.2441
  316CLA    CLA22376   1.366   5.321  13.981 -0.0602 -0.0995  0.3106
  317CLA    CLA22377   3.667   2.664  12.844  0.2976  0.1628  0.6646
  318CLA    CLA22378   2.707   4.491  13.414  0.1557  0.1590  0.1542
  319CLA    CLA22379   4.151   5.344   4.061 -0.1794 -0.4053  0.0129
  320CLA    CLA22380   4.487   3.146   3.851  0.1369  0.1687 -0.4484
  321CLA    CLA22381   3.074   5.652   0.444  0.1952  0.1420 -0.1950
  322CLA    CLA22382   0.766   2.576  12.622 -0.1234 -0.1387  0.0173
  323TIP3   OH222383   2.440   2.855   5.175  0.8691  0.4035 -0.2535
  323TIP3    H122384   2.367   2.836   5.118  0.2380 -1.2603  1.0706
  323TIP3    H222385   2.502   2.903   5.120 -0.7022  0.8348 -1.6814
  324TIP3   OH222386   5.824   2.214  16.564  0.9628 -0.0191 -0.1298
  324TIP3    H122387   5.854   2.305  16.557  0.1547  0.2245 -0.6096
  324TIP3    H222388   5.860   2.183  16.647 -1.5657  1.8577  1.7509
  325TIP3   OH222389   4.698   4.621   6.571 -0.1989 -0.2077 -0.2116
  325TIP3    H122390   4.704   4.706   6.528 -0.0922  0.1237  0.4694
  325TIP3    H222391   4.777   4.615   6.624 -0.8837 -0.1413  0.8252
  326TIP3   OH222392   6.046   3.954   5.563  0.1610 -0.9012 -0.4945
  326TIP3    H122393   6.025   3.892   5.634  0.5964 -1.9962 -1.3001
  326TIP3    H222394   6.140   3.970   5.572 -0.2180  0.8277  0.6208
  327TIP3   OH222395   0.865   3.653   6.343  0.2169 -1.0158  0.5830
  327TIP3    H122396   0.873   3.692   6.430  3.1237  2.1002 -0.9897
  327TIP3    H222397   0.790   3.698   6.303  2.3172  1.6734 -0.4839
  328TIP3   OH222398   3.600   3.364   4.029  0.2450  0.5318  0.4250
  328TIP3    H122399   3.549   3.302   4.081 -0.5918  2.2291  1.6816
  328TIP3    H222400   3.681   3.374   4.078  0.5836  0.0633 -0.0375
  329TIP3   OH222401   5.645   2.254   4.597  0.3277 -0.2586 -0.2786
  329TIP3    H122402   5.654   2.172   4.548  0.9690  0.7959 -1.9767
  329TIP3    H222403   5.638   2.322   4.529 -0.7751  1.0386  1.0996
  330TIP3   OH222404   6.431   6.312   0.725 -0.5435 -0.2123 -0.1410
  330TIP3    H122405   6.426   6.358   0.641 -0.7878  2.2356  1.1638
  330TIP3    H222406   6.458   6.223   0.702  0.2663  0.6501 -2.7308
  331TIP3   OH222407   6.017   0.680  13.872 -0.2214  0.0938 -0.2559
  331TIP3    H122408   5.958   0.730  13.927  0.7855  2.4808 -1.2760
  331TIP3    H222409   5.985   0.694  13.783  0.5833 -0.3636 -0.6278
  332TIP3   OH222410   1.349   5.330   1.543 -0.0946 -0.6685  0.6845
  332TIP3    H122411   1.405   5.351   1.468  1.0348 -0.9268  1.4503
  332TIP3    H222412   1.306   5.413   1.564  1.2560 -0.0546  1.1265
  333TIP3   OH222413   5.411   1.743  10.753  0.2003  0.0126 -0.2738
  333TIP3    H122414   5.456   1.814  10.798 -0.5269  0.1551  0.2346
  333TIP3    H222415   5.357   1.786  10.687 -3.6348  0.3563  2.8635
  334TIP3   OH222416   2.706   3.178   4.397  0.0124  0.1986 -0.6568
  334TIP3    H122417   2.679   3.244   4.334 -0.7545 -2.5962 -3.4123
  334TIP3    H222418   2.801   3.171   4.386  0.7422  3.6063  2.5580
  335TIP3   OH222419   5.708   4.794  15.533  0.1457 -0.6603  0.0485
  335TIP3    H122420   5.704   4.709  15.489  1.0961 -1.1442  0.8729
  335TIP3    H222421   5.802   4.811  15.543 -0.0517 -0.0959  0.9920
  336TIP3   OH222422   2.095   4.993   4.473 -0.9783  0.2331 -0.0720
  336TIP3    H122423   2.028   5.048   4.512 -0.3925  1.2129 -0.4370
  336TIP3    H222424   2.125   5.041   4.396 -1.1147 -1.0210 -0.9319
  337TIP3   OH222425   5.740   3.426  15.192 -0.1178 -0.0866  0.0004
  337TIP3    H122426   5.780   3.363  15.253 -0.6209 -0.3327  0.0805
  337TIP3    H222427   5.669   3.466  15.241 -0.7816 -0.5723 -0.5433
  338TIP3   OH222428   2.195   0.479  10.690  0.6089  0.3246  0.3760
  338TIP3    H122429   2.219   0.506  10.601  2.1054  0.1484  0.7090
  338TIP3    H222430   2.119   0.422  10.678  1.0341 -0.0061 -0.8350
  339TIP3   OH222431   5.841   6.145   1.817  0.0799  0.2568  0.1018
  339TIP3    H122432   5.779   6.079   1.786  0.0210  1.4289 -2.4017
  339TIP3    H222433   5.824   6.152   1.911 -1.3372 -1.7644  0.0208
  340TIP3   OH222434   0.751   2.124  17.191  0.4262  0.2004 -0.2899
  340TIP3    H122435   0.703   2.145  17.271 -0.0725 -0.0564 -0.5224
  340TIP3    H222436   0.831   2.083  17.222 -0.7609 -1.9433  0.0214
  341TIP3   OH222437   1.595   5.948   1.345 -0.6711  0.0302 -0.2239
  341TIP3    H122438   1.611   5.953   1.440 -1.5824  0.8466 -0.1094
  341TIP3    H222439   1.667   5.998   1.306 -0.3524 -0.2184  0.0397
  342TIP3   OH222440   6.029   0.728  14.425 -0.8423 -0.3962 -0.0845
  342TIP3    H122441   6.050   0.819  14.404 -1.8397 -0.4356 -1.2920
  342TIP3    H222442   6.113   0.690  14.452 -0.4212  0.8769  0.4302
  343TIP3   OH222443   4.188   2.247  13.255  0.4674  0.8818 -0.0601
  343TIP3    H122444   4.234   2.273  13.335  0.7953  1.1943 -0.3498
  343TIP3    H222445   4.257   2.218  13.196  0.5173  3.2034 -1.2101
  344TIP3   OH222446   1.189   2.721   2.437  0.0577 -0.4545  0.2134
  344TIP3    H122447   1.162   2.793   2.493  0.7910 -0.4641  0.5988
  344TIP3    H222448   1.209   2.761   2.353  1.5863 -0.0215  0.7647
  345TIP3   OH222449   1.415   5.911  16.047  0.2672 -0.0913  0.0969
  345TIP3    H122450   1.490   5.876  16.095  0.3751  0.1375  0.0931
  345TIP3    H222451   1.368   5.965  16.111  1.5337  1.8715 -0.6024
  346TIP3   OH222452   4.501   2.289  16.563 -0.1210 -0.3504 -0.0443
  346TIP3    H122453   4.421   2.340  16.552  1.3623  1.6436 -2.0970
  346TIP3    H222454   4.505   2.233  16.485  0.2051 -0.8480  0.3245
  347TIP3   OH222455   5.450   3.727  13.327  0.0546  0.0982 -0.2372
  347TIP3    H122456   5.441   3.667  13.253  0.0400  0.1529 -0.2790
  347TIP3    H222457   5.424   3.812  13.293  0.6317  0.2377 -0.3315
  348TIP3   OH222458   6.251   0.870  14.268  0.0067  0.4307  0.0313
  348TIP3    H122459   6.314   0.929  14.309  0.3697 -0.1013  0.2459
  348TIP3    H222460   6.167   0.916  14.273  0.4731  1.3730 -0.7258
  349TIP3   OH222461   2.576   2.487  14.019 -0.0673  0.2345  0.1946
  349TIP3    H122462   2.635   2.461  14.090  0.0606 -0.2993 -0.1032
  349TIP3    H222463   2.581   2.582  14.017 -0.0193  0.2517  0.8599
  350TIP3   OH222464   4.675   0.129  12.231 -0.3266 -0.5010  0.2244
  350TIP3    H122465   4.599   0.119  12.289 -0.6225 -0.5362 -0.1717
  350TIP3    H222466   4.737   0.062  12.262 -0.5158 -0.5708  0.4545
  351TIP3   OH222467   2.960   1.369   6.498 -0.0090  0.2974  0.5061
  351TIP3    H122468   2.909   1.399   6.572 -1.2554  2.0685 -1.0121
  351TIP3    H222469   2.995   1.284   6.524 -2.9159 -0.4765  1.9509
  352TIP3   OH222470   1.052   2.025   3.500  0.0727  0.2594 -0.3733
  352TIP3    H122471   0.993   2.087   3.542  1.0696  0.6909  0.4211
  352TIP3    H222472   1.120   2.009   3.566  1.0981  0.1534 -1.4438
  353TIP3   OH222473   1.025   1.882   4.686 -0.0357 -0.2492  0.0317
  353TIP3    H122474   0.938   1.847   4.707 -0.4388 -0.2683 -1.6101
  353TIP3    H222475   1.036   1.956   4.745 -0.4091 -1.3373  1.5037
  354TIP3   OH222476   1.543   4.777  16.507 -0.2147 -0.1272  0.1326
  354TIP3    H122477   1.616   4.744  16.560  1.1654  0.7685 -1.1643
  354TIP3    H222478   1.553   4.872  16.510 -1.1585 -0.0080 -0.3289
  355TIP3   OH222479   4.432   4.953  11.883 -0.7576 -0.0465  0.0395
  355TIP3    H122480   4.425   4.875  11.938 -1.0807 -0.0880 -0.0585
  355TIP3    H222481   4.448   5.025  11.945  2.6063 -0.6002 -0.1027
  356TIP3   OH222482   2.284   1.813   2.673  0.0106 -0.4948 -0.4751
  356TIP3    H122483   2.353   1.825   2.738  0.6228 -0.0567 -1.2039
  356TIP3    H222484   2.287   1.893   2.620  0.0948 -1.2230 -1.5794
  357TIP3   OH222485   3.294   6.272  12.972  0.0940 -0.0646  0.0842
  357TIP3    H122486   3.230   6.323  13.021 -1.6957 -2.5343  0.3799
  357TIP3    H222487   3.359   6.246  13.037  1.0850  1.8181 -0.0847
  358TIP3   OH222488   0.654   6.426  13.682  0.2833 -0.3171 -0.5122
  358TIP3    H122489   0.679   6.389  13.766 -1.3564  0.0039  0.1409
  358TIP3    H222490   0.625   6.352  13.630  0.6477 -0.4303 -0.5540
  359TIP3   OH222491   4.184   5.677   0.752 -0.3699  0.1012  0.0264
  359TIP3    H122492   4.091   5.694   0.770 -0.7649 -1.7688 -0.1613
  359TIP3    H222493   4.229   5.701   0.833 -1.0107  1.0840  0.0908
  360TIP3   OH222494   6.785   1.482   1.821  0.1605  0.2114 -0.2149
  360TIP3    H122495   6.786   1.509   1.913  0.3628  0.1534 -0.1994
  360TIP3    H222496   6.720   1.411   1.818 -0.5237  0.8424 -0.2988
  361TIP3   OH222497   6.324   5.907  10.963 -0.3066 -0.2288  0.2140
  361TIP3    H122498   6.348   5.992  10.926  1.3361 -0.6035  0.3938
  361TIP3    H222499   6.233   5.894  10.936 -0.3357  1.2526 -0.4312
  362TIP3   OH222500   1.102   0.062  14.240  0.2296 -0.1289  0.0444
  362TIP3    H122501   1.193   0.090  14.238  0.3267 -0.3714  0.9204
  362TIP3    H222502   1.100  -0.018  14.187  0.7456 -0.7481  0.9379
  363TIP3   OH222503   4.414   0.218   1.961  0.2212 -0.1390  0.3568
  363TIP3    H122504   4.376   0.206   2.048 -0.5531  0.2782  0.0781
  363TIP3    H222505   4.353   0.275   1.915  1.2792  0.7031 -0.0362
  364TIP3   OH222506   3.329   1.002  12.445  0.2675  0.0629  0.0458
  364TIP3    H122507   3.324   0.924  12.501  0.2356 -0.1260 -0.2208
  364TIP3    H222508   3.404   1.051  12.480  0.2589 -0.0617  0.2441
  365TIP3   OH222509   2.734   1.632   2.782 -0.3288 -1.0703  0.1930
  365TIP3    H122510   2.827   1.614   2.765  0.2988  2.3962 -0.5049
  365TIP3    H222511   2.734   1.692   2.856 -1.9987 -0.9629  0.1268
  366TIP3   OH222512   6.032   4.764   1.071  0.1547 -0.2557  0.2367
  366TIP3    H122513   6.006   4.676   1.042  0.4278 -0.3418  0.2516
  366TIP3    H222514   5.955   4.797   1.118  0.3166 -0.7809  0.8887
  367TIP3   OH222515   2.838   6.350  11.152 -0.1857  0.0058  0.2176
  367TIP3    H122516   2.746   6.376  11.144  0.0877  0.7002 -0.6971
  367TIP3    H222517   2.887   6.423  11.114  0.7506 -0.3362  0.7551
  368TIP3   OH222518   4.410   3.511   3.395 -1.1136 -0.2116  0.1354
  368TIP3    H122519   4.419   3.427   3.350  2.5012 -0.4051  1.0840
  368TIP3    H222520   4.430   3.491   3.487  0.2383  1.7370  0.2870
  369TIP3   OH222521   3.226   3.405   6.508  0.4913  0.1568  0.2821
  369TIP3    H122522   3.271   3.489   6.506 -0.0274  0.4134 -1.2668
  369TIP3    H222523   3.295   3.340   6.517  1.0410  0.6522 -0.3264
  370TIP3   OH222524   4.562   2.090  13.530 -0.3233 -0.4742  0.4467
  370TIP3    H122525   4.603   2.161  13.481  0.6979 -0.8876  0.6968
  370TIP3    H222526   4.618   2.014  13.515 -0.9154 -1.0121  0.9021
  371TIP3   OH222527   3.346   2.327   4.092  0.0641  0.4892  0.1215
  371TIP3    H122528   3.302   2.244   4.111 -0.4495  0.6989 -0.1423
  371TIP3    H222529   3.275   2.386   4.066  0.5351  0.7491 -0.5819
  372TIP3   OH222530   0.558   4.904   3.889 -0.4549  0.3479 -0.4345
  372TIP3    H122531   0.604   4.952   3.821 -0.4390  1.3795  0.2932
  372TIP3    H222532   0.483   4.864   3.845  0.1389  0.1294 -1.2617
  373TIP3   OH222533   1.255   4.069  16.337  0.1145 -0.3667  0.3929
  373TIP3    H122534   1.225   4.150  16.378  0.0654  0.3010 -0.9286
  373TIP3    H222535   1.226   4.077  16.246  1.7116 -1.0510 -0.1784
  374TIP3   OH222536   5.853   2.149  16.119 -0.0143 -0.6575  0.4822
  374TIP3    H122537   5.819   2.123  16.205  0.3280 -0.6934  0.6042
  374TIP3    H222538   5.948   2.149  16.129  0.0189 -0.3692  0.1846
  375TIP3   OH222539   6.043   3.941   6.098  0.3328 -0.0805  0.7931
  375TIP3    H122540   6.003   3.875   6.041  0.9676 -0.2177  0.5031
  375TIP3    H222541   5.976   4.009   6.105 -0.5219 -0.9914  1.5232
  376TIP3   OH222542   6.533   4.870  14.715 -0.5679 -0.0744 -0.0418
  376TIP3    H122543   6.476   4.801  14.681 -0.7100 -0.8369  1.6710
  376TIP3    H222544   6.538   4.934  14.644 -3.0984 -0.2620 -0.4480
  377TIP3   OH222545   3.449   4.471  15.108 -0.0452  0.0816  0.2130
  377TIP3    H122546   3.533   4.425  15.103  0.0555  0.2705  0.1621
  377TIP3    H222547   3.416   4.451  15.196 -0.9476 -1.7186 -0.5145
  378TIP3   OH222548   0.510   5.236  12.564 -0.0528 -0.5029  0.4122
  378TIP3    H122549   0.549   5.284  12.491  0.2649  0.7282  1.3768
  378TIP3    H222550   0.554   5.151  12.563  0.6414 -0.1473 -0.2336
  379TIP3   OH222551   3.938   6.484   1.140 -0.0462  0.3521 -0.0179
  379TIP3    H122552   3.956   6.393   1.117  0.8521  0.0392  1.8077
  379TIP3    H222553   3.858   6.479   1.193  0.4779  0.4989  0.8065
  380TIP3   OH222554   3.859   3.466   0.755  0.4853  0.0985  0.2744
  380TIP3    H122555   3.772   3.494   0.727  1.1381  2.7414  0.7647
  380TIP3    H222556   3.912   3.466   0.675  0.1510 -1.1693  0.0368
  381TIP3   OH222557   6.739   0.797  13.870 -0.2760 -0.2749  0.0430
  381TIP3    H122558   6.778   0.764  13.951 -1.0406 -0.4826  0.3266
  381TIP3    H222559   6.806   0.854  13.833  0.3394 -0.7015  0.4845
  382TIP3   OH222560   2.552   4.652  12.488  0.0230  0.2381 -0.0713
  382TIP3    H122561   2.629   4.683  12.442  0.5842 -0.3593  0.4472
  382TIP3    H222562   2.542   4.711  12.563 -0.3278  0.6287 -0.4259
  383TIP3   OH222563   0.686   5.116  14.443 -0.1352 -0.2572 -0.3865
  383TIP3    H122564   0.692   5.089  14.352 -0.4785  0.3395 -0.5901
  383TIP3    H222565   0.737   5.197  14.448  0.2191 -0.5028  0.0383
  384TIP3   OH222566   2.542   1.599  13.632  0.1397  0.4117 -0.5025
  384TIP3    H122567   2.552   1.646  13.715 -0.8854  0.1105 -0.1997
  384TIP3    H222568   2.615   1.630  13.578 -0.3467  2.1144 -0.1994
  385TIP3   OH222569   3.436   4.282   3.538 -0.4201  0.7754 -0.1730
  385TIP3    H122570   3.447   4.189   3.518  1.6387  1.3285 -1.7874
  385TIP3    H222571   3.493   4.297   3.613  0.9936  1.1738 -1.2981
  386TIP3   OH222572   5.984   5.239   5.279 -0.0693 -0.1098 -0.4380
  386TIP3    H122573   5.997   5.297   5.204  1.4057 -0.5532 -0.5539
  386TIP3    H222574   5.968   5.298   5.353  0.1698  0.4013 -0.7910
  387TIP3   OH222575   6.072   6.493  13.324 -0.5034 -0.2446  0.8868
  387TIP3    H122576   6.026   6.516  13.404 -1.2765  0.8222  0.1432
  387TIP3    H222577   6.134   6.425  13.351 -0.8227  0.0320  2.3635
  388TIP3   OH222578   0.976   6.070  12.526 -0.0383  0.2870 -0.0723
  388TIP3    H122579   1.031   6.067  12.605  0.8151  1.6023 -0.6040
  388TIP3    H222580   0.984   5.982  12.489  0.7027  0.0784  0.5398
  389TIP3   OH222581   3.640   0.922  11.503 -0.1218 -0.6564  0.2421
  389TIP3    H122582   3.638   0.856  11.434  0.3255 -1.3025  0.8425
  389TIP3    H222583   3.549   0.953  11.509 -0.2763 -1.0013 -0.2396
  390TIP3   OH222584   5.975   5.759  17.016  0.2360  0.3320 -0.9465
  390TIP3    H122585   5.886   5.744  17.048 -0.4138  0.9420 -2.3846
  390TIP3    H222586   6.017   5.673  17.019 -0.0706  0.2310  0.7025
  391TIP3   OH222587   1.725   2.557   3.074 -0.0703 -0.1984 -0.2336
  391TIP3    H122588   1.709   2.486   3.012 -0.3940  0.3913 -0.8341
  391TIP3    H222589   1.780   2.518   3.142 -1.1272 -1.3066 -0.0023
  392TIP3   OH222590   5.169   6.727   2.218 -0.0471 -0.0190  0.5951
  392TIP3    H122591   5.223   6.701   2.293 -1.0239  1.0736  1.6811
  392TIP3    H222592   5.098   6.663   2.215 -0.3723  0.3240  0.9992
  393TIP3   OH222593   6.279   0.159   0.555 -0.3429  0.5395 -0.0852
  393TIP3    H122594   6.369   0.136   0.534 -0.0333  1.8999 -0.3100
  393TIP3    H222595   6.247   0.088   0.610  1.2417  0.6253  0.9490
  394TIP3   OH222596   4.766   4.273  15.694 -0.3061  0.0949 -0.4437
  394TIP3    H122597   4.772   4.246  15.603 -0.8261  2.1705 -1.1406
  394TIP3    H222598   4.856   4.293  15.720 -0.2750  0.4915 -0.8426
  395TIP3   OH222599   3.443   2.200  16.881 -0.3018 -0.2331 -0.1774
  395TIP3    H122600   3.452   2.288  16.918 -0.3608 -0.5651  0.6427
  395TIP3    H222601   3.348   2.183  16.883 -0.0443 -1.6533  2.8884
  396TIP3   OH222602   4.600   6.025  11.794 -0.4668 -0.3450 -0.2852
  396TIP3    H122603   4.523   6.069  11.830 -1.8650 -1.4583 -1.8392
  396TIP3    H222604   4.564   5.959  11.734  1.6604 -1.9242  0.1416
  397TIP3   OH222605   0.244   5.784  16.888  0.0026  0.1318 -0.3817
  397TIP3    H122606   0.247   5.699  16.933 -0.0636 -0.9441 -2.3705
  397TIP3    H222607   0.206   5.844  16.953  0.8838 -1.1380  1.3566
  398TIP3   OH222608   1.478   2.211   0.355 -0.1512 -0.0721 -0.4236
  398TIP3    H122609   1.560   2.252   0.327 -0.5404  1.6513  0.8717
  398TIP3    H222610   1.416   2.231   0.285  0.0847  0.1335 -0.5755
  399TIP3   OH222611   0.259   0.304   5.480  0.0432 -0.3474 -0.3739
  399TIP3    H122612   0.344   0.263   5.463 -0.1047 -0.7801 -0.0830
  399TIP3    H222613   0.195   0.241   5.449 -0.2012 -0.6079  0.6366
  400TIP3   OH222614   2.589   2.227   4.565  0.0734 -0.0938 -0.2593
  400TIP3    H122615   2.645   2.211   4.489 -0.6571  0.1515 -0.8595
  400TIP3    H222616   2.607   2.317   4.590  0.9622 -0.4521  0.4072
  401TIP3   OH222617   4.341   4.527  12.194  0.3494 -0.0353  0.2046
  401TIP3    H122618   4.349   4.516  12.289  0.6250 -0.9721  0.0758
  401TIP3    H222619   4.342   4.438  12.159 -0.3053  0.2835 -0.6379
  402TIP3   OH222620   6.682   0.610   1.747  0.1143  0.3270 -0.4111
  402TIP3    H122621   6.776   0.629   1.751  0.0963  0.0492  3.4666
  402TIP3    H222622   6.676   0.524   1.707  1.7107 -0.5422  1.1435
  403TIP3   OH222623   6.140   1.637   4.703  0.3361 -0.2116 -0.1885
  403TIP3    H122624   6.199   1.600   4.637 -1.2761  0.7903 -2.2612
  403TIP3    H222625   6.053   1.609   4.675 -0.3187 -0.5072  2.0396
  404TIP3   OH222626   1.886   0.551  17.165 -0.2934  0.1256 -0.3233
  404TIP3    H122627   1.978   0.528  17.154  0.1706  1.1544  1.3118
  404TIP3    H222628   1.850   0.485  17.224  0.3493  1.8790  2.0966
  405TIP3   OH222629   5.591   2.377  15.840 -0.8248 -0.5023 -0.3166
  405TIP3    H122630   5.522   2.338  15.787  0.5026 -3.3031 -0.0893
  405TIP3    H222631   5.581   2.338  15.926  1.7893 -1.9578 -0.6239
  406TIP3   OH222632   6.752   0.824  14.855  0.2345  0.0934  0.3330
  406TIP3    H122633   6.726   0.902  14.904 -0.2337  0.0699  0.1285
  406TIP3    H222634   6.736   0.847  14.764 -1.0440 -0.6589  0.3560
  407TIP3   OH222635   6.732   6.751   2.998 -0.1031  0.2631 -0.4837
  407TIP3    H122636   6.702   6.842   3.004  1.5435  0.7866  0.0721
  407TIP3    H222637   6.820   6.757   2.962  0.8469 -0.9388  1.5128
  408TIP3   OH222638   6.580   0.052  12.143  0.1724  0.1015  0.0567
  408TIP3    H122639   6.495   0.012  12.124 -0.0133 -0.4533  1.9994
  408TIP3    H222640   6.559   0.144  12.162  0.1368  0.1915 -0.3947
  409TIP3   OH222641   6.202   2.595  16.845 -0.4996 -0.2025  0.1382
  409TIP3    H122642   6.263   2.606  16.917 -0.3128  0.6591 -0.1441
  409TIP3    H222643   6.255   2.608  16.766 -0.9040 -0.1294 -0.1245
  410TIP3   OH222644   3.499   1.817   2.239  0.2458 -0.4729 -0.5148
  410TIP3    H122645   3.519   1.786   2.150 -0.7016 -0.9229 -0.5778
  410TIP3    H222646   3.584   1.822   2.282  0.6018 -1.3468 -1.0943
  411TIP3   OH222647   1.266   0.593  11.732  0.0810  0.0689 -0.3247
  411TIP3    H122648   1.255   0.590  11.637 -0.9297 -1.9124 -0.1774
  411TIP3    H222649   1.179   0.617  11.765  0.0478 -0.6860  0.1511
  412TIP3   OH222650   4.471   4.148   5.333 -0.3276 -0.1696 -0.0564
  412TIP3    H122651   4.410   4.161   5.261 -0.1314 -0.8270 -0.3400
  412TIP3    H222652   4.558   4.151   5.292 -0.2314 -1.0094  0.0800
  413TIP3   OH222653   1.566   0.861   1.083  0.2712 -0.0033  0.3110
  413TIP3    H122654   1.649   0.887   1.122 -0.1327  1.0987  0.4482
  413TIP3    H222655   1.512   0.834   1.157  0.5523 -0.8669  0.2073
  414TIP3   OH222656   2.061   6.324  11.879 -0.6620 -0.3042 -0.4175
  414TIP3    H122657   2.136   6.275  11.912 -1.4602 -0.0585  1.8768
  414TIP3    H222658   2.014   6.261  11.823  1.3101 -0.3989 -1.9985
  415TIP3   OH222659   0.735   6.434   5.121 -0.1339  0.5760  0.8505
  415TIP3    H122660   0.735   6.519   5.077 -0.2318  0.1903  0.1110
  415TIP3    H222661   0.746   6.370   5.051 -0.9535 -0.0777  1.3141
  416TIP3   OH222662   3.610   4.594   3.234  0.2017 -0.0897 -0.3000
  416TIP3    H122663   3.586   4.508   3.267 -0.7305  0.4103  0.3514
  416TIP3    H222664   3.698   4.582   3.197 -0.6626 -1.7297 -1.8923
  417TIP3   OH222665   1.581   5.155  13.571 -0.5305 -1.0838  0.0062
  417TIP3    H122666   1.540   5.099  13.636  0.9088 -0.1861  1.7365
  417TIP3    H222667   1.665   5.113  13.553 -0.2753 -0.5242 -0.1273
  418TIP3   OH222668   1.852   6.511  11.564  0.1266  0.3153 -0.6563
  418TIP3    H122669   1.839   6.597  11.603 -0.3619 -0.2107  0.3626
  418TIP3    H222670   1.947   6.503  11.555  0.2201  0.6163  0.0496
  419TIP3   OH222671   3.379   4.379   3.004  0.1578  0.6818  0.2557
  419TIP3    H122672   3.355   4.388   3.097  0.8501  4.9099  0.1608
  419TIP3    H222673   3.336   4.454   2.962  2.9771  1.0304 -2.1414
  420TIP3   OH222674   1.006   3.012   5.556  0.6584  0.6191  0.1663
  420TIP3    H122675   1.016   2.926   5.514  0.1057  0.3878  0.5103
  420TIP3    H222676   1.094   3.049   5.556  0.8733  0.1091 -0.1034
  421TIP3   OH222677   5.059   2.093   0.323 -0.2902 -0.4073  0.0583
  421TIP3    H122678   5.130   2.156   0.314  0.7785 -1.7692 -1.3714
  421TIP3    H222679   5.048   2.056   0.235  0.5474 -3.6794  1.2333
  422TIP3   OH222680   6.362   3.746   5.417 -0.0289  0.4804 -0.4447
  422TIP3    H122681   6.295   3.783   5.359  0.3056  0.7666 -0.6463
  422TIP3    H222682   6.437   3.728   5.360  0.2746  0.6997 -0.1165
  423TIP3   OH222683   0.941   0.931   3.387 -0.1084  0.4000  0.6588
  423TIP3    H122684   0.897   1.013   3.409 -2.0177 -0.4594  0.0615
  423TIP3    H222685   0.917   0.870   3.456 -2.4544 -0.9804 -1.3156
  424TIP3   OH222686   0.130   2.342   5.014 -0.3371 -0.3618 -0.5062
  424TIP3    H122687   0.181   2.311   4.938 -0.1831 -0.1114 -0.5045
  424TIP3    H222688   0.039   2.330   4.988 -0.2762 -2.0493 -0.0025
  425TIP3   OH222689   2.548   3.915   5.408 -0.2115  0.6397 -0.0458
  425TIP3    H122690   2.636   3.936   5.442 -0.4642  0.2914  0.8216
  425TIP3    H222691   2.562   3.838   5.353 -0.2826 -0.6201  1.6584
  426TIP3   OH222692   4.179   0.936   3.690  0.1178 -0.2407 -0.1187
  426TIP3    H122693   4.208   1.028   3.687 -0.7948  0.0773  0.5095
  426TIP3    H222694   4.171   0.911   3.598 -1.7509  1.0160 -0.3480
  427TIP3   OH222695   3.033   6.710   5.226 -0.4584 -0.3267  0.0094
  427TIP3    H122696   3.061   6.642   5.164 -0.3520 -1.1682  0.9791
  427TIP3    H222697   3.107   6.722   5.285 -1.1040 -0.5665  0.8774
  428TIP3   OH222698   6.067   6.187  10.559  0.3841  0.2314  0.1844
  428TIP3    H122699   6.121   6.254  10.517  0.7982  0.5910  1.2754
  428TIP3    H222700   6.104   6.178  10.647  0.9928 -2.1847 -0.2933
  429TIP3   OH222701   2.785   0.084  12.098 -0.5221 -0.1663  0.1958
  429TIP3    H122702   2.832   0.165  12.076 -1.9663  0.3153 -1.2670
  429TIP3    H222703   2.853   0.022  12.122  0.6132  1.5464  1.5115
  430TIP3   OH222704   1.955   6.314  12.692 -0.2548  0.3865 -0.0446
  430TIP3    H122705   1.938   6.253  12.621  0.0422  0.6422 -0.3357
  430TIP3    H222706   1.963   6.259  12.770  0.9542 -0.0346 -0.4572
  431TIP3   OH222707   3.777   0.186   2.317  0.3554 -0.7453  0.1010
  431TIP3    H122708   3.792   0.229   2.401  0.8755  0.1188 -0.4220
  431TIP3    H222709   3.815   0.099   2.326  2.3175  0.0795  0.0686
  432TIP3   OH222710   1.300   3.706  16.713 -0.1656 -0.1712 -0.0005
  432TIP3    H122711   1.327   3.615  16.709  2.7588  0.6410  0.2500
  432TIP3    H222712   1.376   3.755  16.682 -0.5944  2.3771  2.7878
  433TIP3   OH222713   3.620   0.311   5.070 -0.2273 -0.3253  0.0943
  433TIP3    H122714   3.561   0.284   5.139 -0.3292  1.6048  0.7987
  433TIP3    H222715   3.702   0.264   5.087 -0.7610 -1.0754  0.5730
  434TIP3   OH222716   4.379   3.176   3.163  0.5769  0.3854 -0.2018
  434TIP3    H122717   4.444   3.191   3.094  0.9919 -1.9056 -0.3703
  434TIP3    H222718   4.295   3.169   3.116  0.8734 -1.2853 -0.5306
  435TIP3   OH222719   2.192   3.050   0.452  0.2066  0.1310 -0.0754
  435TIP3    H122720   2.222   3.034   0.362 -0.5739 -0.2337 -0.2725
  435TIP3    H222721   2.270   3.040   0.506  0.9264  1.4672 -0.8372
  436TIP3   OH222722   3.388   0.583  15.773 -0.6223  0.6141  0.0440
  436TIP3    H122723   3.312   0.595  15.716  0.0959 -2.3018 -1.6237
  436TIP3    H222724   3.457   0.553  15.715  1.6311  2.4448  1.6748
  437TIP3   OH222725   3.481   0.333  12.116 -0.5026  0.1936 -0.5075
  437TIP3    H122726   3.482   0.372  12.203 -2.9882 -0.2790 -0.2249
  437TIP3    H222727   3.561   0.281  12.111 -0.1123  0.5972  1.3083
  438TIP3   OH222728   2.929   0.166   1.156 -0.2916  0.1315 -0.1851
  438TIP3    H122729   3.014   0.124   1.165 -1.0598 -1.3388  0.3308
  438TIP3    H222730   2.950   0.258   1.139  1.3919 -0.3945 -1.0512
  439TIP3   OH222731   5.467   3.720  14.858  0.2223 -0.4979  0.0525
  439TIP3    H122732   5.473   3.798  14.913  1.5820 -0.7675  0.3006
  439TIP3    H222733   5.407   3.744  14.788  0.7307  0.8072  0.0588
  440TIP3   OH222734   2.588   1.102   3.997 -0.0189  0.6975  0.0421
  440TIP3    H122735   2.610   1.019   3.954 -3.7118 -0.4331  0.1376
  440TIP3    H222736   2.621   1.092   4.086 -0.9648 -0.9482  0.2333
  441TIP3   OH222737   0.529   4.299   1.581  0.1375  0.2507 -0.3873
  441TIP3    H122738   0.478   4.228   1.621 -0.7397  0.3986 -1.2296
  441TIP3    H222739   0.478   4.378   1.597  2.5277  1.2119  3.1665
  442TIP3   OH222740   0.902   2.806   4.631  0.4233 -0.1788 -0.0662
  442TIP3    H122741   0.942   2.749   4.565  1.0035  1.3683 -1.0619
  442TIP3    H222742   0.851   2.869   4.581 -1.9462 -1.1055  1.1328
  443TIP3   OH222743   0.100   4.589  13.376  0.7769 -0.0838 -0.4861
  443TIP3    H122744   0.130   4.500  13.393 -0.0088 -0.3394 -0.4389
  443TIP3    H222745   0.163   4.624  13.313 -0.4131 -1.5545 -2.5229
  444TIP3   OH222746   1.104   4.266   3.824  0.2690  0.0727 -0.0691
  444TIP3    H122747   1.138   4.323   3.893  2.1188  1.0052 -1.6607
  444TIP3    H222748   1.166   4.193   3.821 -0.7988 -0.8557  0.4292
  445TIP3   OH222749   5.197   4.067   2.826 -0.5126 -0.5328 -0.3531
  445TIP3    H122750   5.187   4.051   2.920 -0.0440 -0.9806 -0.3758
  445TIP3    H222751   5.258   3.999   2.796 -0.0987  0.0442 -0.8450
  446TIP3   OH222752   4.044   4.202   5.131  0.0900  0.0461 -0.5291
  446TIP3    H122753   4.025   4.267   5.063  0.0831 -0.4509 -1.0054
  446TIP3    H222754   3.963   4.151   5.138 -0.1382  0.5111  0.3217
  447TIP3   OH222755   5.853   1.492   4.875  0.0123  0.0331  0.2404
  447TIP3    H122756   5.779   1.551   4.866 -0.0852  0.0636  1.1922
  447TIP3    H222757   5.887   1.482   4.786 -1.2874 -0.1913 -0.2396
  448TIP3   OH222758   5.565   3.545  15.361 -0.5723  0.0635 -0.4317
  448TIP3    H122759   5.628   3.571  15.428  0.2907 -0.4738 -1.0271
  448TIP3    H222760   5.487   3.519  15.410  0.1105 -0.4763  0.3649
  449TIP3   OH222761   1.401   3.706   1.539  0.5396  0.2250  0.0699
  449TIP3    H122762   1.397   3.675   1.630 -0.0109 -1.1493 -0.4031
  449TIP3    H222763   1.426   3.628   1.489  0.0637  0.7899 -1.0579
  450TIP3   OH222764   2.923   1.850  11.580  0.2780 -0.2777 -0.0916
  450TIP3    H122765   2.928   1.844  11.675  0.1751 -2.6240 -0.2140
  450TIP3    H222766   2.830   1.853  11.560  0.3128  2.4832 -0.0310
  451TIP3   OH222767   4.287   5.180   1.467  0.4209 -0.9598 -0.8893
  451TIP3    H122768   4.375   5.149   1.485 -0.1333 -2.9236 -1.4393
  451TIP3    H222769   4.292   5.218   1.379  1.3080  1.3922  0.1467
  452TIP3   OH222770   5.789   5.328   6.425 -0.3569  0.1355 -0.3598
  452TIP3    H122771   5.849   5.382   6.477  1.1315 -1.4034 -0.4254
  452TIP3    H222772   5.707   5.377   6.423  0.1337  1.0854  1.8693
  453TIP3   OH222773   1.685   6.367  16.553  0.1762  0.5167  0.0864
  453TIP3    H122774   1.726   6.336  16.634  0.6756  0.9081 -0.0134
  453TIP3    H222775   1.727   6.317  16.483 -0.0385  0.3911  0.0473
  454TIP3   OH222776   3.050   5.981   5.494  0.0769  0.7893  0.3441
  454TIP3    H122777   3.108   5.990   5.419  0.1611 -0.6910  0.2104
  454TIP3    H222778   3.042   5.886   5.507  0.1322  1.0279  2.2524
  455TIP3   OH222779   2.994   2.924  15.069 -0.9118  0.1557  0.4013
  455TIP3    H122780   3.074   2.893  15.027  0.1080  1.1525  1.5768
  455TIP3    H222781   2.983   2.867  15.145 -0.6134  0.8139  0.9458
  456TIP3   OH222782   0.790   3.834   0.035 -0.4328 -0.3067  0.0717
  456TIP3    H122783   0.768   3.876  -0.048 -4.8727 -2.3328  0.0530
  456TIP3    H222784   0.828   3.904   0.088 -0.1351  1.7108 -2.6993
  457TIP3   OH222785   5.280   2.141  16.545  0.0199  0.1014 -0.1221
  457TIP3    H122786   5.374   2.139  16.562  0.2827  1.9049 -1.2864
  457TIP3    H222787   5.269   2.087  16.467  0.0304 -0.3328  0.1705
  458TIP3   OH222788   6.376   0.490   4.339  0.0687  0.0920 -0.3199
  458TIP3    H122789   6.400   0.581   4.319 -0.2188 -0.0812 -1.5016
  458TIP3    H222790   6.295   0.498   4.390  0.8607  0.5457  0.9017
  459TIP3   OH222791   2.795   3.723   4.718 -0.0406  0.7596 -0.3535
  459TIP3    H122792   2.828   3.744   4.805 -0.3646 -0.4541  0.0597
  459TIP3    H222793   2.779   3.629   4.719 -0.9826  0.8873 -1.4046
  460TIP3   OH222794   3.432   3.971   3.114 -0.0323  0.1168  0.4912
  460TIP3    H122795   3.492   3.991   3.042 -0.0655  0.1170  0.4640
  460TIP3    H222796   3.462   3.887   3.149 -0.3193 -0.1212  0.1645
  461TIP3   OH222797   1.714   2.590   1.518 -0.0488 -0.4612 -0.0798
  461TIP3    H122798   1.643   2.526   1.526 -1.8527  1.6613  1.6489
  461TIP3    H222799   1.670   2.675   1.518  2.3056  0.8304 -2.0455
  462TIP3   OH222800   5.277   6.700   3.973 -0.3068 -0.0184 -0.3300
  462TIP3    H122801   5.362   6.659   3.991 -0.2016  0.0696 -0.6254
  462TIP3    H222802   5.233   6.700   4.058 -0.1974 -0.4914 -0.2675
  463TIP3   OH222803   0.306   6.728   3.555 -0.1848  0.4188  0.2450
  463TIP3    H122804   0.389   6.746   3.599  0.5428  1.8337 -1.6509
  463TIP3    H222805   0.246   6.704   3.626  0.4720  4.2441  2.2519
  464TIP3   OH222806   4.720   0.458   5.356 -0.1528  0.1694  0.1034
  464TIP3    H122807   4.688   0.529   5.301 -1.2458 -0.1760  0.2780
  464TIP3    H222808   4.725   0.496   5.444 -2.0279 -0.3301  0.4459
  465TIP3   OH222809   5.517   3.853  13.981 -0.0145 -0.0655  0.4400
  465TIP3    H122810   5.459   3.918  14.020 -0.0353  1.2270 -1.6384
  465TIP3    H222811   5.602   3.896  13.978  0.1099 -0.3648 -0.3956
  466TIP3   OH222812   5.148   4.339  12.036 -0.0224 -0.4259 -0.0672
  466TIP3    H122813   5.220   4.364  11.977  0.7543 -0.0467  1.0182
  466TIP3    H222814   5.077   4.399  12.013 -0.5571 -1.8121 -2.2116
  467TIP3   OH222815   5.655   0.113   0.902 -0.0238 -0.1406  0.1379
  467TIP3    H122816   5.581   0.104   0.842 -1.0833  1.4851  1.1567
  467TIP3    H222817   5.726   0.064   0.861 -1.2000 -0.3659 -1.6510
  468TIP3   OH222818   1.380   3.815   0.826  0.6256  0.1206  0.8137
  468TIP3    H122819   1.303   3.861   0.859  0.6188  0.0376  0.9145
  468TIP3    H222820   1.435   3.803   0.903  0.6952  0.0930  0.7595
  469TIP3   OH222821   6.378   1.144   5.421 -0.0031 -0.1859  0.4145
  469TIP3    H122822   6.388   1.051   5.440 -0.4115 -0.5124 -0.9311
  469TIP3    H222823   6.466   1.181   5.433  0.5070 -1.0408 -0.6576
  470TIP3   OH222824   1.895   0.628   5.100  0.1039  0.2370  0.1586
  470TIP3    H122825   1.884   0.711   5.146  0.3922  0.3252  0.0691
  470TIP3    H222826   1.903   0.653   5.007 -0.9579  0.0278  0.0038
  471TIP3   OH222827   1.809   1.785   2.620 -0.4703  0.2077  0.1367
  471TIP3    H122828   1.742   1.834   2.667  1.7521  0.2048  3.4856
  471TIP3    H222829   1.836   1.842   2.548 -2.0858  1.3446  0.4208
  472TIP3   OH222830   0.028   1.919  14.191  0.0373  0.2990 -0.1006
  472TIP3    H122831   0.067   1.877  14.114 -1.0989  0.2141 -0.6439
  472TIP3    H222832   0.103   1.942  14.246  0.7590 -1.2691 -0.3875
  473TIP3   OH222833   3.927   0.499   5.913 -0.0648  0.2123 -0.6093
  473TIP3    H122834   3.934   0.583   5.959  0.8081 -0.9222  1.3636
  473TIP3    H222835   3.982   0.510   5.836  1.7475  0.7717  0.7139
  474TIP3   OH222836   0.938   3.684  11.591 -0.2717  0.2502 -0.2278
  474TIP3    H122837   0.849   3.652  11.576  0.1734  0.0062 -2.4391
  474TIP3    H222838   0.990   3.605  11.608 -0.3198  0.3253  0.2780
  475TIP3   OH222839   1.776   2.470  17.020 -0.1423 -0.5195 -0.1745
  475TIP3    H122840   1.826   2.409  17.075 -0.7284 -1.1289 -0.3120
  475TIP3    H222841   1.818   2.555  17.034  0.3459 -0.8583  0.4323
  476TIP3   OH222842   3.193   1.846   2.118  0.1869  0.1210  1.0253
  476TIP3    H122843   3.100   1.830   2.107  0.2259 -0.0134  0.8849
  476TIP3    H222844   3.232   1.819   2.034  0.6936 -2.4587  2.0463
  477TIP3   OH222845   1.338   6.001   2.362  0.5635  0.4305 -0.6474
  477TIP3    H122846   1.313   5.912   2.337  1.2680  0.0754 -0.1265
  477TIP3    H222847   1.379   5.990   2.448  0.0852  1.3408 -0.3005
  478TIP3   OH222848   2.413   4.135  16.344  0.0999 -0.2765  0.1489
  478TIP3    H122849   2.490   4.108  16.294  1.3059  1.2615  1.1273
  478TIP3    H222850   2.423   4.090  16.429  0.9126  1.3692  0.9458
  479TIP3   OH222851   4.729   2.162  14.903  0.3732 -0.4350  0.3637
  479TIP3    H122852   4.799   2.191  14.960  0.8632 -1.2880  0.2064
  479TIP3    H222853   4.688   2.243  14.872  0.1576  0.0420  1.8330
  480TIP3   OH222854   4.552   0.250  14.301  0.0700 -0.1012 -0.1212
  480TIP3    H122855   4.558   0.327  14.357  2.2117 -0.5966  0.3827
  480TIP3    H222856   4.481   0.270  14.240 -3.6029 -0.3056  3.8466
  481TIP3   OH222857   5.065   0.498  12.063 -0.0202  0.7413 -0.0569
  481TIP3    H122858   5.020   0.581  12.050  1.2859  1.1975 -2.0277
  481TIP3    H222859   5.120   0.512  12.139 -0.2451  1.4918 -0.0264
  482TIP3   OH222860   4.375   4.346   0.346  0.2962  0.3931 -0.3148
  482TIP3    H122861   4.306   4.280   0.338  0.0705  0.6805 -0.7420
  482TIP3    H222862   4.428   4.336   0.267  0.4280  0.5325 -0.2453
  483TIP3   OH222863   6.505   4.776  15.720  0.6176 -0.6172  0.2473
  483TIP3    H122864   6.490   4.737  15.806  1.5094  0.7362  1.0298
  483TIP3    H222865   6.562   4.851  15.737 -0.3117  0.4768 -1.3552
  484TIP3   OH222866   1.392   0.439  15.709  0.0490  0.1345 -0.0784
  484TIP3    H122867   1.359   0.363  15.756  0.0592 -0.3879 -0.9038
  484TIP3    H222868   1.385   0.415  15.617  0.4240  0.9805 -0.3309
  485TIP3   OH222869   2.621   4.353  12.180  0.3631 -0.4225  0.6232
  485TIP3    H122870   2.585   4.271  12.216 -1.5032  0.0728 -0.0411
  485TIP3    H222871   2.715   4.337  12.175  0.1354 -2.1973  1.3725
  486TIP3   OH222872   5.956   0.642   3.307 -0.6502  0.0977 -0.2754
  486TIP3    H122873   6.044   0.606   3.317 -0.5221  0.4692 -0.0639
  486TIP3    H222874   5.908   0.607   3.383 -1.0216 -1.0901 -1.0381
  487TIP3   OH222875   1.034   3.458  16.181 -0.0968  0.2223  0.0777
  487TIP3    H122876   1.051   3.388  16.117  1.0022  1.0198 -0.5141
  487TIP3    H222877   0.963   3.508  16.142  0.9109  1.0063 -0.7734
  488TIP3   OH222878   3.603   4.333   3.304  0.3833  0.4215 -0.4650
  488TIP3    H122879   3.667   4.262   3.311 -0.2420 -0.1528 -0.4705
  488TIP3    H222880   3.570   4.345   3.393  1.7608  1.9220 -0.1277
  489TIP3   OH222881   2.711   6.428  11.949 -0.0919 -0.2803 -0.2701
  489TIP3    H122882   2.687   6.427  12.042 -0.3002 -0.7756 -0.3301
  489TIP3    H222883   2.685   6.515  11.919 -0.3255 -0.2355  0.0594
  490TIP3   OH222884   0.024   5.810   4.720  0.7763 -0.0131 -0.2152
  490TIP3    H122885   0.009   5.858   4.639  0.5936  0.6519  0.2072
  490TIP3    H222886   0.016   5.876   4.789  0.2442 -0.6966  0.3913
  491TIP3   OH222887   2.217   5.530   3.374  0.2999  0.0997  0.0208
  491TIP3    H122888   2.222   5.558   3.282 -0.7369  0.1079 -0.0385
  491TIP3    H222889   2.308   5.529   3.403  0.5628  1.0768 -0.7197
  492TIP3   OH222890   3.888   4.125  11.519  1.0600 -0.8254 -0.0868
  492TIP3    H122891   3.879   4.158  11.608  0.4722 -2.2958  0.4135
  492TIP3    H222892   3.876   4.202  11.463  0.1368 -0.1321  1.0576
  493TIP3   OH222893   2.076   2.578   5.788  0.3252 -0.7189  0.3782
  493TIP3    H122894   2.026   2.610   5.713  0.2074  0.0285  0.7655
  493TIP3    H222895   2.165   2.567   5.754  0.7295  1.5180  0.5912
  494TIP3   OH222896   3.440   1.491   0.911 -0.1013 -0.1229 -0.1956
  494TIP3    H122897   3.350   1.460   0.905 -0.8620  2.1964 -1.1439
  494TIP3    H222898   3.438   1.557   0.981  0.4688  1.2123 -1.4145
  495TIP3   OH222899   2.420   1.609  12.311 -0.3316 -0.3475  0.4334
  495TIP3    H122900   2.508   1.637  12.336 -0.9486  0.9387  1.2220
  495TIP3    H222901   2.372   1.602  12.393 -0.9295 -1.2191  0.0286
  496TIP3   OH222902   2.678   2.148   4.821 -0.1150  0.3484  0.1689
  496TIP3    H122903   2.652   2.169   4.731  1.2314  1.0496 -0.0651
  496TIP3    H222904   2.711   2.059   4.816 -3.1640 -0.8749  0.6241
  497TIP3   OH222905   1.930   6.246   2.644  0.5078  0.0593  0.5018
  497TIP3    H122906   2.005   6.216   2.594 -1.0384 -2.9668 -0.1237
  497TIP3    H222907   1.946   6.213   2.733 -0.4940 -1.4496  0.1466
  498TIP3   OH222908   4.442   0.366  12.570 -0.3436 -0.0231  0.8240
  498TIP3    H122909   4.529   0.406  12.566  0.4076 -1.6430  0.5372
  498TIP3    H222910   4.408   0.374  12.480 -0.4828  0.5805  0.9294
  499TIP3   OH222911   5.618   1.701   3.989  0.1422 -0.0527 -0.3911
  499TIP3    H122912   5.641   1.666   4.075 -1.9182 -1.0710 -0.2164
  499TIP3    H222913   5.613   1.796   4.002 -1.4416 -0.2883  0.9758
  500TIP3   OH222914   3.019   4.875   3.033 -0.1905 -0.1882 -0.4079
  500TIP3    H122915   3.094   4.887   2.974  0.1149  3.0988  0.5226
  500TIP3    H222916   2.943   4.880   2.975  0.1866  0.8437 -0.8464
  501TIP3   OH222917   2.674   3.400  14.675  0.2312  0.2614  0.2765
  501TIP3    H122918   2.761   3.406  14.714  0.7393  0.9399 -0.9193
  501TIP3    H222919   2.649   3.308  14.687  0.6140  0.3331  1.6621
  502TIP3   OH222920   3.582   6.178  17.144  0.5127 -0.1692 -0.1639
  502TIP3    H122921   3.494   6.145  17.164  0.0745  0.0779 -1.5975
  502TIP3    H222922   3.591   6.256  17.198  0.2612 -0.7879  0.7795
  503TIP3   OH222923   2.574   5.010  16.075  0.7534  0.7189 -0.5684
  503TIP3    H122924   2.669   5.013  16.066  0.9589 -0.8663  0.9429
  503TIP3    H222925   2.552   4.917  16.076 -0.5108  0.9998  1.8978
  504TIP3   OH222926   5.615   0.369   4.060  0.1337 -0.0317 -0.0535
  504TIP3    H122927   5.613   0.407   3.972  1.0113  0.0612 -0.0335
  504TIP3    H222928   5.629   0.275   4.045 -2.1150 -0.3843 -0.1083
  505TIP3   OH222929   1.285   5.872   5.549 -0.8790 -0.6195  0.2792
  505TIP3    H122930   1.337   5.819   5.608  0.5383  0.0055 -0.3970
  505TIP3    H222931   1.194   5.848   5.569 -0.2411 -4.2708 -0.9097
  506TIP3   OH222932   1.877   5.862  12.905 -0.5836 -0.0257  0.1368
  506TIP3    H122933   1.801   5.841  12.960 -0.7903 -1.4117 -0.6573
  506TIP3    H222934   1.927   5.781  12.903  0.7579  0.7872  0.3819
  507TIP3   OH222935   3.092   4.850  12.921 -0.1226  0.2960 -0.2290
  507TIP3    H122936   3.145   4.775  12.949 -1.2954 -0.2516  0.5424
  507TIP3    H222937   3.025   4.812  12.863 -1.0981  0.6489  0.6570
  508TIP3   OH222938   2.753   6.278   3.788  0.2867 -0.3499 -0.1083
  508TIP3    H122939   2.682   6.339   3.808  0.0917 -0.3804 -0.6891
  508TIP3    H222940   2.731   6.244   3.701  0.1958 -1.5324  0.3663
  509TIP3   OH222941   1.332   4.242  15.775 -0.1004  0.9527 -0.0140
  509TIP3    H122942   1.358   4.249  15.683  0.6845  1.4237  0.2350
  509TIP3    H222943   1.415   4.249  15.823 -0.1967 -1.9594  0.6304
  510TIP3   OH222944   3.968   0.387  15.273 -0.9406  0.1244  0.2680
  510TIP3    H122945   4.060   0.403  15.252 -0.6684  0.2254  1.4651
  510TIP3    H222946   3.920   0.451  15.220 -0.4750 -1.3115 -1.9157
  511TIP3   OH222947   5.731   2.838  13.643  0.1717  0.1394 -0.0954
  511TIP3    H122948   5.715   2.787  13.722 -1.3739  0.8486  0.0784
  511TIP3    H222949   5.653   2.823  13.589 -0.1961  2.0802 -0.1490
  512TIP3   OH222950   4.786   4.172   5.208 -0.0704 -0.3619 -0.0536
  512TIP3    H122951   4.754   4.148   5.120 -1.6318  1.9194 -0.1314
  512TIP3    H222952   4.818   4.261   5.198 -0.4229 -0.0202  1.7469
  513TIP3   OH222953   0.526   6.673   5.247 -0.3374  0.3499 -0.0172
  513TIP3    H122954   0.550   6.744   5.186  2.2682  1.3285  2.0517
  513TIP3    H222955   0.597   6.609   5.237 -1.4945 -0.9200 -0.1985
  514TIP3   OH222956   4.126   2.013  14.642  0.5669  0.2749  0.1392
  514TIP3    H122957   4.178   2.092  14.628  0.1308  0.8698  1.7983
  514TIP3    H222958   4.045   2.029  14.595  0.5895  0.7014  0.2442
  515TIP3   OH222959   4.237   3.752   1.586  0.5715 -0.0919  0.1304
  515TIP3    H122960   4.309   3.691   1.603  0.2472 -0.7374 -0.8157
  515TIP3    H222961   4.159   3.708   1.622  0.7013  0.7951  1.5467
  516TIP3   OH222962   6.508   2.764   6.375  0.7825 -0.2818  0.2126
  516TIP3    H122963   6.515   2.706   6.451  0.2121 -1.9195 -0.9350
  516TIP3    H222964   6.597   2.766   6.338  0.8800 -0.1522  0.4576
  517TIP3   OH222965   3.955   3.435  11.916 -0.1749  0.0203  0.1503
  517TIP3    H122966   3.920   3.448  11.827 -0.9164 -0.8961  0.2939
  517TIP3    H222967   3.999   3.517  11.937 -0.1065  0.2935 -1.0185
  518TIP3   OH222968   4.729   2.977   2.540 -0.6475  0.5912  0.3514
  518TIP3    H122969   4.690   2.890   2.550  0.5791  0.0202  0.2716
  518TIP3    H222970   4.710   3.002   2.450  0.3306 -0.2669 -0.1022
  519TIP3   OH222971   2.239   0.001   0.304  1.0183  0.0125 -0.3350
  519TIP3    H122972   2.214   0.028   0.216 -1.3734 -1.1552 -0.0664
  519TIP3    H222973   2.242   0.082   0.354 -1.2865  0.3247 -0.6515
  520TIP3   OH222974   5.461   2.019  10.505 -0.2876 -0.0342  0.3017
  520TIP3    H122975   5.426   2.103  10.534  3.3797  1.5205  0.4703
  520TIP3    H222976   5.528   1.996  10.570 -2.0061 -3.7160  0.9249
  521TIP3   OH222977   5.073   3.197  15.653 -0.5954 -0.2807  0.5957
  521TIP3    H122978   5.027   3.198  15.569 -0.9261 -0.7482  0.7710
  521TIP3    H222979   5.161   3.231  15.632 -0.6148 -0.5762  0.0301
  522TIP3   OH222980   3.587   4.249   4.488 -0.2469 -0.6843 -0.2831
  522TIP3    H122981   3.529   4.174   4.492 -1.5489  0.1454 -2.6308
  522TIP3    H222982   3.620   4.250   4.398 -1.5034  2.4310 -0.7869
  523TIP3   OH222983   4.653   0.992   3.282 -0.5272 -0.6604  0.2822
  523TIP3    H122984   4.711   1.055   3.239  1.1578 -2.9690 -0.9490
  523TIP3    H222985   4.675   1.000   3.375 -0.6821  0.9011  0.1969
  524TIP3   OH222986   3.509   4.614  11.674 -0.0777 -0.0939 -0.3526
  524TIP3    H122987   3.555   4.692  11.704  0.4492  0.1268 -1.6883
  524TIP3    H222988   3.578   4.553  11.649 -0.4821 -1.2151  1.1954
  525TIP3   OH222989   3.895   3.812   3.940 -0.1630  0.2340 -0.1775
  525TIP3    H122990   3.870   3.762   4.019 -0.8309  1.9762  0.7483
  525TIP3    H222991   3.813   3.821   3.892 -0.2724  1.4266  0.2338
  526TIP3   OH222992   5.213   3.265   5.623 -0.0633  0.6501  0.2617
  526TIP3    H122993   5.162   3.339   5.656  0.2316  0.7822  0.4264
  526TIP3    H222994   5.304   3.288   5.643  0.1551  0.8971 -0.9484
  527TIP3   OH222995   2.018   1.788  11.754  0.1487 -0.3214  0.3169
  527TIP3    H122996   2.030   1.693  11.761 -3.5379 -0.8695  0.5719
  527TIP3    H222997   2.006   1.817  11.845 -2.7333 -0.3218 -0.0016
  528TIP3   OH222998   0.802   0.754   0.966 -0.5046  0.1030  0.1254
  528TIP3    H122999   0.716   0.724   0.996 -0.0669 -0.0636  1.2370
  528TIP3    H223000   0.786   0.842   0.933 -1.0110  0.2691  0.8000
  529TIP3   OH223001   4.418   3.565   4.443 -0.4003  0.2133 -0.1130
  529TIP3    H123002   4.399   3.572   4.537  1.6309  0.8922  0.2716
  529TIP3    H223003   4.388   3.649   4.407  1.3366  1.0823  0.4074
  530TIP3   OH223004   6.451   6.202  11.309  0.7495 -0.1271 -0.0332
  530TIP3    H123005   6.369   6.161  11.280  1.1333 -0.8376 -0.1446
  530TIP3    H223006   6.477   6.258  11.236  1.2298 -1.2044 -0.7081
  531TIP3   OH223007   3.687   4.702  16.952  0.4993 -0.1215 -0.1821
  531TIP3    H123008   3.766   4.680  16.903  0.7712  0.3137  0.0652
  531TIP3    H223009   3.624   4.729  16.885  0.8760  0.4892 -0.2970
  532TIP3   OH223010   4.263   1.182   3.768 -0.4790  0.4740 -0.5637
  532TIP3    H123011   4.355   1.162   3.751 -0.2173  1.0468  0.1402
  532TIP3    H223012   4.253   1.273   3.740 -1.0216  0.1773 -1.3459
  533TIP3   OH223013   1.106   0.723   6.006  0.2829  0.1567 -0.2252
  533TIP3    H123014   1.152   0.760   6.082  1.0242  0.5029 -0.8418
  533TIP3    H223015   1.050   0.655   6.044  0.7329  0.2463  0.6271
  534TIP3   OH223016   5.677   3.456   1.423 -0.5088  0.0185  0.1452
  534TIP3    H123017   5.741   3.482   1.357 -0.1062 -1.4337 -0.0452
  534TIP3    H223018   5.659   3.537   1.471  0.8523  0.6180 -0.3125
  535TIP3   OH223019   1.922   2.367   1.640  0.4062 -0.2796  0.2027
  535TIP3    H123020   1.867   2.335   1.568  0.2832  1.3947 -0.4792
  535TIP3    H223021   1.860   2.400   1.705  0.5561  0.1510  0.1305
  536TIP3   OH223022   4.350   2.204  13.036 -0.6995  0.3695  0.4421
  536TIP3    H123023   4.320   2.140  12.972  1.2504  1.5514 -1.6883
  536TIP3    H223024   4.439   2.177  13.058 -0.3432  1.5740  0.5098
  537TIP3   OH223025   2.612   6.702   5.794 -0.4946 -0.4415 -0.4850
  537TIP3    H123026   2.650   6.790   5.802 -1.1190 -0.0323 -1.9757
  537TIP3    H223027   2.681   6.644   5.827 -0.0696  0.5926  0.5146
  538TIP3   OH223028   1.765   0.110   2.487 -0.2094  0.6931 -0.2589
  538TIP3    H123029   1.850   0.099   2.529 -0.9687  0.0815  1.1591
  538TIP3    H223030   1.743   0.023   2.455  0.0553  1.0162 -1.3178
  539TIP3   OH223031   0.782   4.256  15.291  0.0693 -0.6136 -0.3344
  539TIP3    H123032   0.770   4.197  15.365 -3.0613  1.7570  1.1510
  539TIP3    H223033   0.754   4.205  15.215 -1.5073 -1.4325  0.7794
  540TIP3   OH223034   5.663   1.967  15.363 -0.0493 -0.3928  0.0925
  540TIP3    H123035   5.660   2.047  15.417 -0.3797 -0.8925  0.8238
  540TIP3    H223036   5.572   1.937  15.361 -0.0892 -0.2127 -1.0038
  541TIP3   OH223037   2.033   1.856   0.391 -0.2605 -0.8313 -0.5555
  541TIP3    H123038   2.124   1.885   0.396 -1.0580  1.4773  2.0029
  541TIP3    H223039   2.031   1.773   0.439  0.3718 -0.5072  0.0399
  542TIP3   OH223040   4.788   5.003   0.958 -1.0086  0.6575  0.2190
  542TIP3    H123041   4.779   5.071   1.025 -1.9358  0.3632  0.3951
  542TIP3    H223042   4.877   5.014   0.925 -0.1620  0.0785  2.2756
  543TIP3   OH223043   5.997   2.699   5.247 -0.1051 -0.3564 -0.1784
  543TIP3    H123044   5.904   2.692   5.268 -0.1657 -1.1003 -0.6635
  543TIP3    H223045   6.004   2.783   5.201 -0.8970 -1.1738 -1.8770
  544TIP3   OH223046   1.876   4.431  16.490  0.2812 -0.1220  0.1932
  544TIP3    H123047   1.907   4.436  16.580  0.3242  1.0640  0.1166
  544TIP3    H223048   1.857   4.338  16.476  0.5455 -0.3453  1.3281
  545TIP3   OH223049   4.047   1.919   2.967 -0.2323 -0.6307 -0.1400
  545TIP3    H123050   4.049   1.825   2.986 -1.9361 -0.8109 -0.8241
  545TIP3    H223051   3.960   1.947   2.994 -0.3060  0.4290 -1.4430
  546TIP3   OH223052   2.196   1.579   2.571 -0.0191  0.0099 -0.0513
  546TIP3    H123053   2.236   1.645   2.627 -0.1111  0.3750 -0.4110
  546TIP3    H223054   2.227   1.601   2.483 -0.1505 -0.3494 -0.1868
  547TIP3   OH223055   0.222   4.454   1.717  0.4059 -0.2591  0.1331
  547TIP3    H123056   0.274   4.500   1.651 -0.0512 -0.6923 -0.5413
  547TIP3    H223057   0.285   4.430   1.785  0.8504  0.3436 -0.0575
  548TIP3   OH223058   2.138   0.526  15.274 -0.6549 -0.6337  0.3438
  548TIP3    H123059   2.068   0.508  15.212  0.9549 -1.1941 -1.3451
  548TIP3    H223060   2.162   0.441  15.310 -0.1909 -0.5597  0.2124
  549TIP3   OH223061   4.898   1.533  12.342 -0.3526 -0.2818 -0.3826
  549TIP3    H123062   4.936   1.592  12.407  1.0408 -1.0648 -0.4627
  549TIP3    H223063   4.974   1.499  12.294 -1.3348  0.0546 -2.2185
  550TIP3   OH223064   5.838   3.990  13.390 -0.5702 -0.2557  0.3803
  550TIP3    H123065   5.913   3.981  13.449  0.0735  2.6547  0.1036
  550TIP3    H223066   5.766   3.947  13.436  1.1783 -2.9533  0.7358
  551TIP3   OH223067   4.308   5.506   1.961 -0.4942 -0.1762 -0.2988
  551TIP3    H123068   4.392   5.461   1.967 -0.1213  0.4453 -0.7335
  551TIP3    H223069   4.326   5.595   1.992 -0.9645 -0.0105 -0.4931
  552TIP3   OH223070   1.078   6.640   6.351  0.2321  0.3909 -0.6347
  552TIP3    H123071   1.142   6.572   6.330  0.2510 -0.1402  1.0574
  552TIP3    H223072   1.031   6.605   6.427 -0.4099  1.8450 -0.3553
  553TIP3   OH223073   6.231   1.912  15.318  0.0926 -0.3168  0.1576
  553TIP3    H123074   6.217   1.821  15.342 -0.1154 -0.1413  0.7051
  553TIP3    H223075   6.200   1.918  15.228 -1.0027 -0.5079  0.5168
  554TIP3   OH223076   5.912   5.605  16.065 -0.2716  0.2257  0.0331
  554TIP3    H123077   5.996   5.623  16.023  0.8362 -1.5980  1.4092
  554TIP3    H223078   5.920   5.645  16.152 -1.1204  0.7147 -0.1093
  555TIP3   OH223079   3.338   1.679   4.296  0.3577 -0.1446  0.1449
  555TIP3    H123080   3.342   1.729   4.377 -0.0739  1.0060 -0.5366
  555TIP3    H223081   3.428   1.652   4.279  0.1171 -2.5181  2.3035
  556TIP3   OH223082   1.386   6.494  12.521 -0.3375  0.6224 -0.4255
  556TIP3    H123083   1.427   6.413  12.553 -1.4496  1.7813  4.2417
  556TIP3    H223084   1.450   6.563  12.542 -1.6307  1.5607  0.4849
  557TIP3   OH223085   4.669   4.892   0.571 -0.5579  0.3067 -0.4323
  557TIP3    H123086   4.628   4.965   0.617 -1.0819 -0.1901 -0.1048
  557TIP3    H223087   4.735   4.859   0.633 -0.0500  0.7420 -0.7329
  558TIP3   OH223088   2.206   5.722   2.453 -0.4460 -0.6543  0.6223
  558TIP3    H123089   2.292   5.692   2.424  0.4504  1.6937  0.7071
  558TIP3    H223090   2.163   5.644   2.486  1.7964 -1.8049  0.9256
  559TIP3   OH223091   6.399   2.654  15.786  0.3111  0.1766 -0.0430
  559TIP3    H123092   6.322   2.695  15.747  1.1139  0.4339 -1.3926
  559TIP3    H223093   6.375   2.638  15.877 -1.6354 -0.5315 -0.6704
  560TIP3   OH223094   2.772   4.147   0.853  0.0445 -0.0131 -0.1368
  560TIP3    H123095   2.805   4.178   0.937 -0.5341 -0.8162  0.3899
  560TIP3    H223096   2.777   4.052   0.858 -0.4244 -0.0822 -0.8339
  561TIP3   OH223097   4.634   5.290  14.122 -0.4293 -0.0683 -0.0839
  561TIP3    H123098   4.621   5.382  14.096 -0.7435 -0.4021 -1.1491
  561TIP3    H223099   4.564   5.243  14.077  0.8167 -1.0786 -1.0059
  562TIP3   OH223100   3.565   3.087   5.631 -0.4681 -0.0536 -0.1081
  562TIP3    H123101   3.631   3.086   5.700 -0.8677  1.0416  0.2977
  562TIP3    H223102   3.615   3.092   5.550 -0.0310  0.2232  0.1771
  563TIP3   OH223103   6.531   4.005   3.448  0.0796  0.0680 -0.4976
  563TIP3    H123104   6.464   3.981   3.511  2.2600 -1.5181  1.3201
  563TIP3    H223105   6.557   3.923   3.408  0.1969  0.8020 -1.9556
  564TIP3   OH223106   2.291   5.848  11.767 -0.2409 -0.1456 -0.0562
  564TIP3    H123107   2.318   5.787  11.836 -2.0932 -1.0954 -0.1391
  564TIP3    H223108   2.336   5.817  11.689  2.3471  1.2882  0.8018
  565TIP3   OH223109   1.132   4.662   0.842  0.0462  0.3462  0.4778
  565TIP3    H123110   1.085   4.579   0.845 -0.3451  0.5950  1.6100
  565TIP3    H223111   1.072   4.725   0.883  1.8582  0.4022  3.2108
  566TIP3   OH223112   4.507   2.868  10.247 -0.0725 -0.2610  0.4748
  566TIP3    H123113   4.470   2.888  10.333 -1.9712 -0.9511 -0.1587
  566TIP3    H223114   4.590   2.915  10.245  0.6170 -1.2754  3.1918
  567TIP3   OH223115   1.050   3.601  10.477 -0.7029 -0.0613 -0.2265
  567TIP3    H123116   1.104   3.680  10.472 -0.7977 -0.0263 -0.8028
  567TIP3    H223117   1.109   3.534  10.511 -0.4792  0.1341 -0.2246
  568TIP3   OH223118   3.019   5.619  12.477 -0.0471  0.0728  0.1257
  568TIP3    H123119   2.941   5.629  12.531 -0.3358  0.2594 -0.3324
  568TIP3    H223120   2.987   5.614  12.388  0.3106 -1.7927  0.0816
  569TIP3   OH223121   2.910   3.035   1.678 -0.3262 -0.0601 -0.2210
  569TIP3    H123122   2.960   3.065   1.754 -0.2835  0.5466 -0.4900
  569TIP3    H223123   2.894   3.114   1.627 -0.8751 -0.3777 -0.5419
  570TIP3   OH223124   5.998   1.529   5.639 -0.0114  0.5447  0.8898
  570TIP3    H123125   6.090   1.506   5.626 -0.3301 -0.3308  0.1319
  570TIP3    H223126   5.951   1.478   5.574 -1.1505  0.1418  2.0065
  571TIP3   OH223127   3.165   2.685  13.624 -0.0898  0.0321  0.0240
  571TIP3    H123128   3.092   2.625  13.606  1.2980 -1.5922 -0.3454
  571TIP3    H223129   3.171   2.739  13.546 -0.9688  0.2457  0.1002
  572TIP3   OH223130   3.120   0.846  14.103 -0.2556  0.5452 -0.7697
  572TIP3    H123131   3.166   0.788  14.163  0.2904  1.8830  0.1295
  572TIP3    H223132   3.027   0.833  14.123 -0.0932  0.6893  0.0926
  573TIP3   OH223133   6.529   0.745  12.080 -0.2355  0.2461  0.1278
  573TIP3    H123134   6.602   0.700  12.123  0.6694  0.1504 -1.4463
  573TIP3    H223135   6.501   0.685  12.012 -0.9058  0.8545 -0.1340
  574TIP3   OH223136   2.254   6.669  11.407  0.5907 -0.7243 -0.0758
  574TIP3    H123137   2.206   6.673  11.489  2.1913 -0.1271  0.8554
  574TIP3    H223138   2.226   6.587  11.367 -0.7293 -0.6774  0.7285
  575TIP3   OH223139   2.469   5.924  15.076  0.2965 -0.0138  0.1315
  575TIP3    H123140   2.458   5.899  14.984  1.5951  1.0464 -0.3509
  575TIP3    H223141   2.435   6.013  15.080 -1.6338 -0.7833  1.1586
  576TIP3   OH223142   1.956   1.215   0.828 -0.4864  0.1521  0.1142
  576TIP3    H123143   1.941   1.121   0.831  1.9196 -0.2650  0.5064
  576TIP3    H223144   2.047   1.226   0.856 -0.9264  2.6526  0.7458
  577TIP3   OH223145   1.948   4.987  14.109 -0.2881 -0.2871  0.1082
  577TIP3    H123146   1.865   5.014  14.147 -0.1643 -1.1533  1.0139
  577TIP3    H223147   2.014   5.028  14.165 -0.1088 -1.1289  0.5275
  578TIP3   OH223148   5.872   5.218  12.645  0.3425 -0.4450  0.1745
  578TIP3    H123149   5.918   5.176  12.572  0.7867 -1.5769  1.0874
  578TIP3    H223150   5.780   5.193  12.632  0.1299  0.8623 -0.9975
  579TIP3   OH223151   5.258   0.763   3.020 -0.3083  0.4548  0.2581
  579TIP3    H123152   5.242   0.740   3.112  0.0880  0.8554  0.4250
  579TIP3    H223153   5.334   0.821   3.022 -0.4973  0.7243 -0.2963
  580TIP3   OH223154   3.021   3.086   1.945 -0.2780 -0.3133  0.1000
  580TIP3    H123155   3.100   3.139   1.958 -0.1822  0.2593 -2.6343
  580TIP3    H223156   2.953   3.132   1.994  0.1026  1.6400 -1.1741
  581TIP3   OH223157   1.180   0.317  12.922  1.1136  0.4309  0.3693
  581TIP3    H123158   1.170   0.370  12.844  2.4842  0.6138  0.3074
  581TIP3    H223159   1.104   0.340  12.976  1.1222  1.6529 -0.1129
  582TIP3   OH223160   4.822   1.548  13.676 -0.0444  0.0919  0.5629
  582TIP3    H123161   4.889   1.590  13.730  0.3729 -0.4124  0.4395
  582TIP3    H223162   4.842   1.455  13.680 -0.9017 -0.0873  0.7431
  583TIP3   OH223163   4.356   0.807   3.925 -0.1821  0.2150  0.1434
  583TIP3    H123164   4.429   0.859   3.960  0.7287  0.8688 -2.5925
  583TIP3    H223165   4.298   0.871   3.885 -1.1781 -0.5082  0.4307
  584TIP3   OH223166   1.454   5.325  13.186 -0.2857  0.1983  0.2427
  584TIP3    H123167   1.494   5.323  13.100  0.1166 -0.6626  0.4462
  584TIP3    H223168   1.415   5.238  13.197 -0.4914  0.3600  0.8553
  585TIP3   OH223169   4.771   6.043  12.729  0.4729 -0.6568 -0.0360
  585TIP3    H123170   4.708   6.086  12.786  0.6639 -0.8710  0.3410
  585TIP3    H223171   4.835   6.111  12.710  0.3818 -0.5691 -0.0298
  586TIP3   OH223172   3.920   0.298   5.099  0.0706  0.8088 -0.0570
  586TIP3    H123173   3.996   0.305   5.157  0.4255 -0.9225 -0.2690
  586TIP3    H223174   3.942   0.225   5.041  0.0227  2.9378 -2.8473
  587TIP3   OH223175   4.704   3.950  15.774 -0.0834 -0.1570 -0.4526
  587TIP3    H123176   4.723   3.932  15.682  0.7327 -1.0998 -0.1186
  587TIP3    H223177   4.631   4.011  15.773  0.9823  1.1183 -1.7430
  588TIP3   OH223178   1.163   0.262   0.497  0.8803 -0.4344  0.3884
  588TIP3    H123179   1.209   0.315   0.563 -0.6793 -2.0390  2.8670
  588TIP3    H223180   1.070   0.271   0.520  0.3602 -1.5719 -1.1878
  589TIP3   OH223181   3.613   3.176  13.981  0.2051 -0.2413 -0.2056
  589TIP3    H123182   3.635   3.107  14.044 -0.1052 -0.3977 -0.2662
  589TIP3    H223183   3.698   3.207  13.949  0.3685 -0.0365  0.4256
  590TIP3   OH223184   2.718   2.829   0.471 -0.3230 -0.2781 -0.1515
  590TIP3    H123185   2.700   2.742   0.505  2.7006 -0.9306 -0.1080
  590TIP3    H223186   2.728   2.884   0.549  0.7013 -0.5127 -0.1196
  591TIP3   OH223187   1.237   1.103  10.981  0.1878 -0.4996 -0.2841
  591TIP3    H123188   1.155   1.100  10.931 -0.3227  1.0282  0.4347
  591TIP3    H223189   1.243   1.017  11.022 -1.4288 -0.3836  0.2297
  592TIP3   OH223190   5.594   3.677   1.573 -0.0679  0.5962  0.2958
  592TIP3    H123191   5.634   3.657   1.658  0.9593 -1.0065 -0.5341
  592TIP3    H223192   5.641   3.754   1.541  1.2289 -0.2535  0.1053
  593TIP3   OH223193   4.492   4.330   4.403  0.6431 -0.0569 -0.0832
  593TIP3    H123194   4.504   4.239   4.375  2.4168  0.0549  0.2908
  593TIP3    H223195   4.476   4.325   4.497 -2.0721 -0.1796 -0.5196
  594TIP3   OH223196   0.243   2.441   0.154  0.2390 -0.3169 -0.7175
  594TIP3    H123197   0.273   2.515   0.100  0.0150 -0.8229 -1.5383
  594TIP3    H223198   0.297   2.446   0.233 -0.0171  0.9424 -0.6037
  595TIP3   OH223199   4.747   3.954  13.475 -0.4732 -0.0330 -0.1404
  595TIP3    H123200   4.825   3.992  13.515 -0.9226  1.6202 -0.8113
  595TIP3    H223201   4.696   3.922  13.550  0.5970 -0.6902  0.3333
  596TIP3   OH223202   2.712   4.379  16.505  0.4696  0.3610 -0.1339
  596TIP3    H123203   2.699   4.285  16.520  0.1700  0.2745 -0.9343
  596TIP3    H223204   2.788   4.384  16.448  0.9802  0.6489  0.5600
  597TIP3   OH223205   6.336   1.185  14.996 -0.4179 -0.6851 -0.3634
  597TIP3    H123206   6.353   1.103  15.044  0.8324  0.1348  0.6133
  597TIP3    H223207   6.243   1.201  15.009 -0.2339 -0.8315  1.2415
  598TIP3   OH223208   6.161   5.643  11.990 -0.3976  0.0251 -0.0363
  598TIP3    H123209   6.135   5.731  12.018 -2.3015 -0.4185 -0.3179
  598TIP3    H223210   6.219   5.658  11.915 -0.3076  1.0471  0.2286
  599TIP3   OH223211   4.268   3.154   1.490 -0.1675 -0.0496  0.4226
  599TIP3    H123212   4.222   3.230   1.455  1.1294  0.5036 -0.1216
  599TIP3    H223213   4.360   3.170   1.470  0.0929 -1.9487 -0.0522
  600TIP3   OH223214   3.861   0.451  15.534 -0.0733  0.4272 -0.9992
  600TIP3    H123215   3.833   0.533  15.494  1.1876  0.3186 -2.1017
  600TIP3    H223216   3.898   0.400  15.463 -0.7893 -1.0886 -0.3093
  601TIP3   OH223217   0.377   0.458   1.953 -0.0493  0.2097  0.5259
  601TIP3    H123218   0.306   0.422   1.899 -0.5658  1.2152  0.5056
  601TIP3    H223219   0.334   0.488   2.033  0.3704  0.7065  0.5699
  602TIP3   OH223220   0.144   2.271  12.281  0.1714 -0.3476  0.0755
  602TIP3    H123221   0.055   2.269  12.246  1.0366  0.8305 -2.2838
  602TIP3    H223222   0.160   2.364  12.300  1.1416 -0.4625 -0.1692
  603TIP3   OH223223   2.349   3.167  13.766  0.0527  0.1994 -0.7429
  603TIP3    H123224   2.401   3.105  13.715 -1.2157  0.4447 -2.3723
  603TIP3    H223225   2.278   3.115  13.803 -0.0572  0.3589 -0.7281
  604TIP3   OH223226   1.798   3.127  14.707  0.6238  0.2717  0.6999
  604TIP3    H123227   1.808   3.111  14.801 -2.7791 -1.0608  0.9309
  604TIP3    H223228   1.711   3.166  14.699  0.7321  0.0592 -1.9436
  605TIP3   OH223229   0.006   4.885   1.141 -0.3779  0.0468  0.5284
  605TIP3    H123230  -0.061   4.818   1.158 -0.0091 -0.5550 -0.3604
  605TIP3    H223231   0.034   4.913   1.228 -1.4302 -0.0541  0.9136
  606TIP3   OH223232   1.915   3.793  11.363 -0.1344  0.0382  0.5441
  606TIP3    H123233   1.877   3.729  11.423  0.8234 -1.2267 -0.1762
  606TIP3    H223234   1.841   3.825  11.312 -0.3781 -1.8192 -0.3026
  607TIP3   OH223235   2.956   0.375   3.144  0.5912 -0.8361 -0.1873
  607TIP3    H123236   2.874   0.353   3.187  0.2394 -1.6806 -1.2363
  607TIP3    H223237   2.931   0.435   3.074  0.9318 -0.7099 -0.2017
  608TIP3   OH223238   6.226   2.259  14.987 -0.1028  0.1234  0.0729
  608TIP3    H123239   6.217   2.322  14.915  0.6647 -1.3304 -1.3157
  608TIP3    H223240   6.136   2.242  15.015 -0.3528  1.4111  0.1084
  609TIP3   OH223241   4.337   2.933  16.688 -0.1986 -0.3599 -0.2452
  609TIP3    H123242   4.429   2.957  16.702 -1.2113  1.6545  3.6598
  609TIP3    H223243   4.318   2.870  16.758 -1.4711 -1.7827 -1.8320
  610TIP3   OH223244   6.135   6.415  13.885 -0.0406 -0.3389  0.3283
  610TIP3    H123245   6.167   6.364  13.959  1.0409  0.8437  0.7010
  610TIP3    H223246   6.169   6.371  13.808  2.0283  0.5518  0.6972
  611TIP3   OH223247   6.078   5.632   1.056 -0.0587  0.2694  0.0301
  611TIP3    H123248   6.118   5.704   1.007  1.6178  0.1882  1.2163
  611TIP3    H223249   6.092   5.555   1.002  0.4836  0.4192 -0.0524
  612TIP3   OH223250   0.550   1.780   3.720 -0.2451  0.1026 -0.1005
  612TIP3    H123251   0.459   1.802   3.702 -0.6426 -1.8673 -0.6270
  612TIP3    H223252   0.560   1.792   3.814 -0.0465  3.7436 -0.5123
  613TIP3   OH223253   0.436   4.740  15.144  0.0855  0.8261 -0.3635
  613TIP3    H123254   0.455   4.818  15.092  1.4496  0.9830  0.3324
  613TIP3    H223255   0.502   4.742  15.214  0.4046 -1.1667 -0.5770
  614TIP3   OH223256   3.283   2.267   5.661 -0.4033 -0.2420  0.1586
  614TIP3    H123257   3.259   2.308   5.578  0.9639 -2.7377 -1.5539
  614TIP3    H223258   3.362   2.313   5.688  1.2582 -1.7716 -1.8663
  615TIP3   OH223259   6.144   3.497  12.422  0.0883 -0.0392  0.2582
  615TIP3    H123260   6.076   3.433  12.400  1.0238 -1.1482  0.5108
  615TIP3    H223261   6.116   3.535  12.505  0.8201 -2.0591  1.4774
  616TIP3   OH223262   2.201   6.221  16.709 -0.0775 -0.8913 -0.1325
  616TIP3    H123263   2.131   6.155  16.712 -1.4946  0.4080 -2.4575
  616TIP3    H223264   2.256   6.194  16.636 -0.9039  0.6857 -1.3646
  617TIP3   OH223265   6.089   1.769  13.346 -0.1287 -0.2378 -0.2992
  617TIP3    H123266   6.142   1.817  13.409 -1.0110  2.3424 -1.4537
  617TIP3    H223267   6.138   1.777  13.263 -0.2375 -1.4218 -0.4823
  618TIP3   OH223268   6.175   2.011  17.012 -0.4072 -0.7019 -0.2242
  618TIP3    H123269   6.271   2.011  17.018 -0.4456 -1.8754  0.5239
  618TIP3    H223270   6.150   2.102  17.026  0.5903 -0.4151 -0.2534
  619TIP3   OH223271   5.985   6.526  10.983 -0.1350 -0.1763 -0.1061
  619TIP3    H123272   6.023   6.450  10.938  2.5804  0.3893  1.1384
  619TIP3    H223273   6.033   6.601  10.946 -2.1317  0.8727 -0.6327
  620TIP3   OH223274   6.309   1.395   2.204 -0.0614  0.3542 -0.1372
  620TIP3    H123275   6.370   1.353   2.264  0.6578  1.4341 -0.0873
  620TIP3    H223276   6.359   1.406   2.123 -0.7899 -0.4265 -0.7093
  621TIP3   OH223277   1.394   4.789   0.774 -0.5535 -0.0589  0.5353
  621TIP3    H123278   1.437   4.707   0.797  0.4683  0.6567  1.1826
  621TIP3    H223279   1.307   4.782   0.813 -0.9831 -1.4142 -0.6046
  622TIP3   OH223280   3.678   5.011  15.755  0.6605  0.3196 -0.0794
  622TIP3    H123281   3.682   5.106  15.745  0.3186  0.3583  0.1291
  622TIP3    H223282   3.584   4.992  15.762  0.7837  0.0839  0.9825
  623TIP3   OH223283   1.713   6.744   2.859 -0.0362  0.5204 -0.1466
  623TIP3    H123284   1.711   6.770   2.951 -0.2333  0.7752 -0.2206
  623TIP3    H223285   1.660   6.811   2.815  1.9083  1.6574 -0.7813
  624TIP3   OH223286   1.979   1.636   6.583 -0.1362 -0.1194  0.2778
  624TIP3    H123287   1.928   1.582   6.643  0.0657  0.0103  0.5698
  624TIP3    H223288   2.068   1.633   6.619 -0.7208  2.9579  2.0860
  625TIP3   OH223289   2.257   5.110   5.859 -0.3580 -0.3005 -0.7629
  625TIP3    H123290   2.165   5.083   5.859 -0.0592 -1.3357 -0.8048
  625TIP3    H223291   2.272   5.146   5.947 -0.2521 -2.0728 -0.0323
  626TIP3   OH223292   6.273   5.319   1.454  0.0055  0.7651  0.7655
  626TIP3    H123293   6.305   5.364   1.532 -1.2231  1.1847  1.0311
  626TIP3    H223294   6.271   5.388   1.386  0.3159  0.5807  0.5677
  627TIP3   OH223295   1.586   3.326   5.205  0.2723  0.0004 -0.1473
  627TIP3    H123296   1.664   3.380   5.194 -0.7045  1.3317 -0.5359
  627TIP3    H223297   1.612   3.240   5.170  1.8477  0.1680  0.5682
  628TIP3   OH223298   0.811   5.889   5.332 -0.2814 -0.1646  0.2350
  628TIP3    H123299   0.763   5.811   5.359 -0.6294 -0.2285 -0.5471
  628TIP3    H223300   0.872   5.857   5.265  2.0993 -0.4060  2.4303
  629TIP3   OH223301   6.494   4.155   4.250 -0.1601 -0.4772 -0.4204
  629TIP3    H123302   6.413   4.180   4.295  0.2264 -0.1809  0.1168
  629TIP3    H223303   6.550   4.232   4.257 -0.0479 -0.4848 -1.2938
  630TIP3   OH223304   3.349   3.355   3.492 -0.4738  0.5338 -0.3173
  630TIP3    H123305   3.326   3.447   3.483 -0.1940  0.7784  1.3500
  630TIP3    H223306   3.341   3.337   3.586  0.7443 -0.7938 -0.4487
  631TIP3   OH223307   6.319   3.703  16.905 -0.6775 -0.1315 -0.2070
  631TIP3    H123308   6.307   3.789  16.945 -1.4107 -0.0366 -0.6118
  631TIP3    H223309   6.352   3.647  16.975 -0.8666  0.3140  0.2347
  632TIP3   OH223310   3.414   0.110  16.668 -0.6858  0.6714 -0.4317
  632TIP3    H123311   3.414   0.121  16.572 -2.6364  0.0379 -0.5169
  632TIP3    H223312   3.419   0.016  16.681  5.4342  0.9010  0.2113
  633TIP3   OH223313   1.347   6.723  14.254 -0.3744  0.3463 -0.6067
  633TIP3    H123314   1.364   6.681  14.339 -1.0540  0.5419 -0.3728
  633TIP3    H223315   1.389   6.666  14.190  1.1145  0.7769 -0.0441
  634TIP3   OH223316   5.579   1.822  16.751 -0.4093  0.3071  0.6418
  634TIP3    H123317   5.588   1.828  16.846 -1.6032  0.9366  0.7189
  634TIP3    H223318   5.587   1.728  16.733  1.3171  0.3230  1.1815
  635TIP3   OH223319   0.706   0.457  15.177  0.2427 -0.4995  0.4903
  635TIP3    H123320   0.678   0.368  15.154  1.0093 -0.1021 -2.1248
  635TIP3    H223321   0.691   0.463  15.271 -2.0739 -2.5900  0.3031
  636TIP3   OH223322   4.392   0.227   3.539  0.4311 -0.2674 -0.1823
  636TIP3    H123323   4.433   0.287   3.477 -1.1021 -1.6006 -2.5598
  636TIP3    H223324   4.298   0.245   3.533 -0.0555 -2.8011 -0.8833
  637TIP3   OH223325   6.286   6.652   0.396 -0.4582 -0.0709  0.0755
  637TIP3    H123326   6.379   6.676   0.400 -0.2081 -1.0621  0.5324
  637TIP3    H223327   6.260   6.671   0.306  0.8043 -1.9085 -0.7088
  638TIP3   OH223328   0.174   4.465  12.865 -0.4074 -0.1737  0.2029
  638TIP3    H123329   0.247   4.438  12.921  0.2602  0.5522 -0.3110
  638TIP3    H223330   0.126   4.383  12.846 -0.1862 -0.5292  1.1864
  639TIP3   OH223331   3.632   4.259   3.029  0.2401 -0.3973  0.3698
  639TIP3    H123332   3.620   4.297   3.116 -1.5204 -0.9494  0.3809
  639TIP3    H223333   3.568   4.305   2.974  2.4410  1.1209 -1.0246
  640TIP3   OH223334   2.709   5.077  12.873 -0.1523 -0.0570  0.3393
  640TIP3    H123335   2.803   5.094  12.883  0.3441 -2.2910 -0.1803
  640TIP3    H223336   2.696   4.990  12.910 -2.2011  0.5665  1.1781
  641TIP3   OH223337   6.205   2.481   2.760 -0.1611 -0.0837  0.4169
  641TIP3    H123338   6.241   2.413   2.702  1.8840  0.1431  1.3844
  641TIP3    H223339   6.191   2.436   2.844 -2.3338 -0.2054  0.0231
  642TIP3   OH223340   3.176   0.827   4.253  1.0929  0.1793 -0.3894
  642TIP3    H123341   3.114   0.778   4.308  2.9027 -1.9077 -0.1231
  642TIP3    H223342   3.203   0.901   4.308  2.2597 -1.4268  1.3047
  643TIP3   OH223343   2.925   4.371   3.927  0.1396 -0.1219 -0.3899
  643TIP3    H123344   2.936   4.277   3.942  3.0906  0.1508 -0.5560
  643TIP3    H223345   2.926   4.380   3.831  1.1210  0.1994 -0.3537
  644TIP3   OH223346   3.172   3.583  13.042 -0.3407 -0.1140  0.4182
  644TIP3    H123347   3.222   3.617  13.117 -0.3531 -0.1621  0.4483
  644TIP3    H223348   3.148   3.494  13.067  0.0884 -0.3097  0.1484
  645TIP3   OH223349   6.146   5.562   5.891 -0.0144  0.4678  0.3511
  645TIP3    H123350   6.157   5.590   5.982 -1.4782  2.7097 -0.0995
  645TIP3    H223351   6.071   5.613   5.860 -2.0023 -3.0891 -0.9765
  646TIP3   OH223352   4.471   0.631   5.466  0.5830  0.0986  0.0602
  646TIP3    H123353   4.426   0.629   5.381  0.1558 -0.9100  0.2989
  646TIP3    H223354   4.401   0.641   5.530  0.9665  1.5588  0.2629
  647TIP3   OH223355   0.189   5.217  11.596  0.5830  0.2999 -0.0346
  647TIP3    H123356   0.221   5.162  11.525  1.8984  2.0611 -0.8595
  647TIP3    H223357   0.246   5.195  11.670  1.2578  0.6934 -0.4267
  648TIP3   OH223358   6.017   3.055   0.455  0.1606  0.2096  0.6664
  648TIP3    H123359   6.111   3.064   0.443  0.3559 -0.9850  1.2114
  648TIP3    H223360   6.007   2.984   0.519 -1.1915 -2.5768 -2.4728
  649TIP3   OH223361   5.197   4.256   3.267  0.0842 -0.2807  0.1080
  649TIP3    H123362   5.194   4.349   3.245 -1.2698 -0.8145 -2.1750
  649TIP3    H223363   5.185   4.254   3.362  2.1500  1.9526  0.4759
  650TIP3   OH223364   0.232   6.243  14.579  0.1250 -0.4071  0.7714
  650TIP3    H123365   0.181   6.273  14.503  0.2441  0.2537  0.9451
  650TIP3    H223366   0.188   6.163  14.607 -1.2252  0.5036  1.3081
  651TIP3   OH223367   1.409   3.157   3.936  0.1735 -0.1019  0.1745
  651TIP3    H123368   1.388   3.141   4.028 -1.3484  0.3927 -0.0673
  651TIP3    H223369   1.497   3.194   3.937 -0.2791  0.9589  1.5259
  652TIP3   OH223370   5.939   3.984  12.709  0.3855  0.5264  0.4396
  652TIP3    H123371   5.897   3.926  12.773  0.1067  1.0873  0.7683
  652TIP3    H223372   5.869   4.045  12.683  1.0278  1.5470  1.0871
  653TIP3   OH223373   2.995   4.647   4.806  0.7542  0.1925  0.1812
  653TIP3    H123374   3.007   4.596   4.886 -0.9538 -0.3228  0.1273
  653TIP3    H223375   3.000   4.582   4.736  0.6370  0.4065 -0.0266
  654TIP3   OH223376   2.195   4.990  14.903 -0.3177  0.6956  0.2518
  654TIP3    H123377   2.173   5.083  14.898 -0.1100  0.8640  1.9868
  654TIP3    H223378   2.125   4.952  14.957  1.3835  0.4956  2.3975
  655TIP3   OH223379   3.189   5.723  15.182  0.2354 -0.2676 -0.3424
  655TIP3    H123380   3.275   5.759  15.161  0.4463 -0.4800  0.1518
  655TIP3    H223381   3.128   5.795  15.166  0.8342  0.8728  2.2874
  656TIP3   OH223382   2.620   2.096   3.471 -0.0873 -0.2409  0.1383
  656TIP3    H123383   2.712   2.091   3.444  0.6164 -0.7663  2.5413
  656TIP3    H223384   2.614   2.038   3.546 -3.1115 -2.6602 -1.8567
  657TIP3   OH223385   0.513   6.334  15.577 -0.1854 -0.7228  0.0881
  657TIP3    H123386   0.593   6.325  15.628  0.5092  2.1931 -0.3633
  657TIP3    H223387   0.543   6.343  15.487 -1.0123  0.2920 -0.0926
  658TIP3   OH223388   1.504   4.425   3.418 -0.1723 -0.6369  0.0149
  658TIP3    H123389   1.446   4.477   3.362  0.4552  0.4468  0.3426
  658TIP3    H223390   1.592   4.459   3.398  0.1047 -0.6138  1.2509
  659TIP3   OH223391   1.915   4.115   2.618  0.1372 -0.5489  0.3983
  659TIP3    H123392   1.926   4.113   2.713 -1.1928 -1.1946  0.5482
  659TIP3    H223393   1.907   4.023   2.593  0.7887 -0.4049 -0.3879
  660TIP3   OH223394   6.128   1.860  15.029  0.1706 -0.0555  0.1727
  660TIP3    H123395   6.055   1.910  15.064  0.1423 -0.4375  0.6724
  660TIP3    H223396   6.104   1.839  14.939 -0.0159  0.4387  0.1124
  661TIP3   OH223397   0.096   6.430  15.240 -0.5227 -0.1714 -0.7357
  661TIP3    H123398   0.079   6.523  15.224  0.8150  0.1151 -0.5315
  661TIP3    H223399   0.140   6.427  15.324 -0.3707 -0.9796 -0.8355
  662TIP3   OH223400   3.067   4.612   2.116  0.3510 -0.2393  0.3679
  662TIP3    H123401   2.996   4.656   2.069 -0.5320 -2.4948 -0.4490
  662TIP3    H223402   3.102   4.680   2.174 -1.6858  1.2533 -0.0704
  663TIP3   OH223403   5.123   4.928   2.124 -0.2560  0.2557 -0.0382
  663TIP3    H123404   5.110   4.833   2.122 -0.4025  0.2347  1.3499
  663TIP3    H223405   5.102   4.953   2.214  2.1823  1.2503  0.3017
  664TIP3   OH223406   5.543   0.162   1.143  0.1705  0.3043  0.7429
  664TIP3    H123407   5.557   0.068   1.132 -2.7180 -0.0694 -0.1228
  664TIP3    H223408   5.567   0.201   1.058 -2.2374 -0.1358 -0.1785
  665TIP3   OH223409   6.115   2.046  11.447 -0.0239  0.0918 -0.7787
  665TIP3    H123410   6.102   2.045  11.352 -0.3291 -0.4069 -0.7341
  665TIP3    H223411   6.031   2.076  11.483  0.4478  1.3725 -0.7135
  666TIP3   OH223412   2.053   5.620   1.446  0.1638  0.3791  0.1387
  666TIP3    H123413   2.035   5.693   1.386 -2.0310  0.0064  0.2928
  666TIP3    H223414   2.140   5.639   1.481  0.6185  1.6753 -1.6218
  667TIP3   OH223415   1.408   3.105   1.997 -0.3913 -0.4506 -0.7688
  667TIP3    H123416   1.471   3.037   2.021 -1.4096 -0.7037  1.3822
  667TIP3    H223417   1.367   3.130   2.081 -0.6984  2.1420 -1.6398
  668TIP3   OH223418   1.239   3.127  16.448 -0.0398 -0.2319 -0.3911
  668TIP3    H123419   1.187   3.060  16.403 -1.9998  1.0800 -0.1641
  668TIP3    H223420   1.327   3.117  16.413 -0.2460 -3.0545 -0.1962
  669TIP3   OH223421   1.188   5.296  13.722  0.0051 -0.0572 -0.3061
  669TIP3    H123422   1.228   5.302  13.809 -0.5779  0.4623 -0.0671
  669TIP3    H223423   1.114   5.236  13.734 -1.2644  1.5287  0.0276
  670TIP3   OH223424   5.632   3.939   2.757  0.1037 -0.4057 -0.0672
  670TIP3    H123425   5.719   3.902   2.762  0.3892  0.3719  1.0608
  670TIP3    H223426   5.625   3.973   2.668  0.6601 -1.1631 -0.3993
  671TIP3   OH223427   1.658   1.411  13.589 -0.0179  0.1313 -0.0468
  671TIP3    H123428   1.730   1.397  13.527 -0.2483 -0.4618 -0.1788
  671TIP3    H223429   1.579   1.388  13.540 -0.2429  0.1282  0.3169
  672TIP3   OH223430   2.515   0.739  13.089  0.2488 -0.3298  0.4639
  672TIP3    H123431   2.505   0.812  13.027 -1.5000 -0.7087  0.2633
  672TIP3    H223432   2.583   0.768  13.150  0.1109  1.1618 -0.0639
  673TIP3   OH223433   6.197   4.502   3.682  0.0613  0.3263 -0.0219
  673TIP3    H123434   6.261   4.572   3.676  0.3754  0.1059  0.7248
  673TIP3    H223435   6.177   4.479   3.591  0.7168  0.6877 -0.2537
  674TIP3   OH223436   2.137   2.688  16.011 -0.2429  0.4966  0.3723
  674TIP3    H123437   2.131   2.755  15.943  1.5336  0.7155  0.3897
  674TIP3    H223438   2.134   2.605  15.963 -0.8478  0.6193  0.1985
  675TIP3   OH223439   5.303   5.317   0.165 -0.0774  0.0477  0.0297
  675TIP3    H123440   5.244   5.312   0.240  1.1403 -2.0418  0.9221
  675TIP3    H223441   5.250   5.352   0.094 -0.9884  3.1350  2.1262
  676TIP3   OH223442   3.211   0.296   2.028  0.3167  0.1086  0.1766
  676TIP3    H123443   3.230   0.213   2.073 -0.2837 -1.0043 -1.5906
  676TIP3    H223444   3.190   0.357   2.099  0.5479 -1.2942  1.4885
  677TIP3   OH223445   3.307   5.968   5.397  0.2766  0.2298  0.0948
  677TIP3    H123446   3.341   5.885   5.362 -0.8299 -1.1070  2.0887
  677TIP3    H223447   3.315   6.029   5.324  0.5828 -1.7762 -1.6162
  678TIP3   OH223448   3.324   1.032  11.923  0.3627  0.2873 -0.1648
  678TIP3    H123449   3.282   1.101  11.872  1.5296  0.5541 -0.7738
  678TIP3    H223450   3.286   1.042  12.011 -1.0032  0.3784 -0.7455
  679TIP3   OH223451   6.412   3.843   2.063 -0.2314  0.0211 -0.3706
  679TIP3    H123452   6.331   3.852   2.012  0.5076  2.5813 -1.1724
  679TIP3    H223453   6.412   3.918   2.122  2.2251  0.8903 -1.3819
  680TIP3   OH223454   3.189   5.785   6.014 -0.2942  0.0747  0.0008
  680TIP3    H123455   3.186   5.782   5.919  0.6839  2.7836 -0.1512
  680TIP3    H223456   3.237   5.706   6.039  1.1197  0.3258 -1.8552
  681TIP3   OH223457   5.461   5.224   5.769 -0.4141  0.0531  0.1436
  681TIP3    H123458   5.414   5.263   5.842 -1.3785 -0.2653 -0.3096
  681TIP3    H223459   5.424   5.266   5.691  0.0653 -0.1785 -0.2136
  682TIP3   OH223460   2.482   5.104  13.946  0.3615  0.3983 -0.3990
  682TIP3    H123461   2.482   5.013  13.976 -0.2381  0.7011  0.5439
  682TIP3    H223462   2.568   5.116  13.905 -0.4020 -1.2269 -2.5618
  683TIP3   OH223463   4.468   6.049  14.981 -0.1865 -0.5445 -0.4897
  683TIP3    H123464   4.523   6.124  15.004  0.0790 -1.1604  0.9406
  683TIP3    H223465   4.530   5.976  14.971 -0.6027 -0.9190 -0.3269
  684TIP3   OH223466   3.703   6.623  11.751 -0.3794 -0.1957 -0.5373
  684TIP3    H123467   3.667   6.571  11.680  0.3308  1.1568 -1.9289
  684TIP3    H223468   3.676   6.713  11.732 -2.3446 -0.1218  2.2912
  685TIP3   OH223469   3.693   4.637   6.229  0.3203 -0.1147 -0.0217
  685TIP3    H123470   3.780   4.602   6.247  0.6179  0.2369 -0.7747
  685TIP3    H223471   3.655   4.577   6.165  0.4595  0.3907 -0.5804
  686TIP3   OH223472   2.687   4.441   3.275 -0.0217 -0.4929  0.2996
  686TIP3    H123473   2.726   4.359   3.246 -0.7690 -0.4921 -0.7406
  686TIP3    H223474   2.643   4.420   3.357 -0.6716 -1.2715 -0.2377
  687TIP3   OH223475   2.553   2.799  12.949  0.3419 -0.2410  0.1915
  687TIP3    H123476   2.531   2.731  13.013  1.7018 -1.2990 -0.4451
  687TIP3    H223477   2.647   2.813  12.960  0.2138  1.0348 -0.1871
  688TIP3   OH223478   1.514   1.902  12.653  0.2949 -0.1613  0.1326
  688TIP3    H123479   1.462   1.976  12.621 -0.2015 -0.5021  0.1605
  688TIP3    H223480   1.451   1.832  12.666  0.9503 -0.9773 -1.0783
  689TIP3   OH223481   5.295   1.149   0.138  0.4262  0.3691 -0.2129
  689TIP3    H123482   5.344   1.146   0.055  3.4857  1.8559  1.4477
  689TIP3    H223483   5.342   1.213   0.191 -1.9002 -0.0406  2.4295
  690TIP3   OH223484   1.582   0.183  12.574 -0.3983  0.6328  0.0787
  690TIP3    H123485   1.656   0.244  12.576  0.2237 -0.1250  0.6349
  690TIP3    H223486   1.511   0.231  12.617  0.0564  1.0029  0.4263
  691TIP3   OH223487   2.613   0.513   3.651 -0.1957  0.1298  0.2865
  691TIP3    H123488   2.561   0.593   3.658  0.3163  0.5800 -0.9615
  691TIP3    H223489   2.634   0.505   3.558  0.7945 -0.7924  0.5686
  692TIP3   OH223490   2.296   5.472  13.160  0.2514 -0.1264  0.2071
  692TIP3    H123491   2.215   5.447  13.205  1.0904 -0.7529  1.3869
  692TIP3    H223492   2.300   5.412  13.085  0.7418 -1.5998  1.3865
  693TIP3   OH223493   4.680   1.149   0.413  0.6276 -0.0570  0.1894
  693TIP3    H123494   4.753   1.105   0.370  1.4464  0.6776  0.8014
  693TIP3    H223495   4.705   1.242   0.413 -1.4472  0.5230 -1.8207
  694TIP3   OH223496   6.234   2.370  14.730  0.2710  0.2373 -0.3812
  694TIP3    H123497   6.309   2.420  14.699  0.4021 -0.4757 -1.2295
  694TIP3    H223498   6.173   2.370  14.656 -0.3382  0.3507  0.1122
  695TIP3   OH223499   2.282   6.047  10.957  0.0822 -0.4634 -0.2896
  695TIP3    H123500   2.334   5.979  10.914 -0.7412 -1.2736 -0.0120
  695TIP3    H223501   2.224   6.080  10.888  0.5691  0.0458 -0.4564
  696TIP3   OH223502   4.843   2.073   0.075 -0.1021 -0.9185  0.0911
  696TIP3    H123503   4.797   2.124   0.142  0.2632  1.5145 -1.4615
  696TIP3    H223504   4.808   2.105  -0.008  3.4665  0.1183 -1.0916
  697TIP3   OH223505   1.415   1.914   0.345  0.7923  0.4384  0.1252
  697TIP3    H123506   1.468   1.859   0.403  2.5301  1.6460 -0.2479
  697TIP3    H223507   1.411   1.999   0.390  0.4318  0.7897 -0.5635
  698TIP3   OH223508   5.893   5.362  12.294  0.5032 -0.1929 -0.1260
  698TIP3    H123509   5.820   5.425  12.292  1.0844  0.4666 -1.9088
  698TIP3    H223510   5.964   5.408  12.249  1.5790 -1.3677  0.3772
  699TIP3   OH223511   4.451   0.065  15.189  0.2958  0.2707 -0.0217
  699TIP3    H123512   4.444   0.004  15.116  0.8742  0.4631 -0.2397
  699TIP3    H223513   4.425   0.150  15.151 -1.5112 -0.0194  0.5322
  700TIP3   OH223514   3.924   4.630   2.314  0.2279  0.5348 -0.0034
  700TIP3    H123515   3.863   4.556   2.320 -0.3765  0.9176 -1.3466
  700TIP3    H223516   3.868   4.708   2.312  0.8107  0.9582  0.0404
  701TIP3   OH223517   4.512   4.649   2.542 -0.3668 -0.3491 -0.1354
  701TIP3    H123518   4.495   4.652   2.447  0.2025 -1.0293 -0.2548
  701TIP3    H223519   4.607   4.653   2.549 -0.4190 -0.1042  0.4222
  702TIP3   OH223520   5.543   2.517  12.452  0.2366 -0.2294  0.2051
  702TIP3    H123521   5.562   2.605  12.419  0.4094 -1.0811 -2.0740
  702TIP3    H223522   5.449   2.506  12.437  0.1372 -0.3123  0.8506
  703TIP3   OH223523   0.989   0.544   2.573 -0.4444  0.1013  0.0835
  703TIP3    H123524   1.031   0.570   2.491 -0.4170 -0.2478 -0.0145
  703TIP3    H223525   0.900   0.579   2.566 -0.3251  0.4074  0.0742
  704TIP3   OH223526   4.523   4.856  14.005  0.2390 -0.3256 -0.7230
  704TIP3    H123527   4.601   4.834  14.055 -0.4874 -0.7227  0.2662
  704TIP3    H223528   4.521   4.792  13.933 -0.0737 -1.4140  0.2298
  705TIP3   OH223529   4.617   3.424   0.625  0.0573 -0.0229  0.5283
  705TIP3    H123530   4.560   3.498   0.602 -1.1138 -0.9321  0.4588
  705TIP3    H223531   4.657   3.398   0.542 -2.3431 -1.7812 -0.1436
  706TIP3   OH223532   5.005   4.647   4.734  0.4821  0.6412 -0.0913
  706TIP3    H123533   4.954   4.698   4.671  0.3334  0.9191  0.2573
  706TIP3    H223534   5.036   4.572   4.683  0.1555  0.7355 -0.4342
  707TIP3   OH223535   2.408   6.204  11.600  0.2824  0.1461  0.3609
  707TIP3    H123536   2.496   6.237  11.620  0.1826  1.6619 -1.5250
  707TIP3    H223537   2.424   6.114  11.570  0.9607 -0.2721  1.9053
  708TIP3   OH223538   4.176   6.687   5.092  0.2684  0.1651 -0.3036
  708TIP3    H123539   4.230   6.763   5.072  2.0604 -1.0791 -0.3969
  708TIP3    H223540   4.148   6.654   5.006  1.0314 -0.3275 -0.3747
  709TIP3   OH223541   3.147   6.292   5.376  0.4400 -0.5356  0.2990
  709TIP3    H123542   3.178   6.239   5.303 -0.8267 -0.7958 -0.0638
  709TIP3    H223543   3.134   6.379   5.339  2.2769 -0.0273  0.8356
  710TIP3   OH223544   3.654   1.525  11.876 -0.0726 -0.4747  0.1243
  710TIP3    H123545   3.703   1.511  11.957  1.5868  0.3905 -0.7248
  710TIP3    H223546   3.677   1.451  11.821  0.6569  0.1737 -0.4505
  711TIP3   OH223547   2.290   0.126   4.757 -0.2298  0.5971 -0.1024
  711TIP3    H123548   2.288   0.091   4.846 -0.4089  0.8920  0.0121
  711TIP3    H223549   2.219   0.080   4.711  2.0796 -2.1209 -1.0811
  712TIP3   OH223550   1.781   1.634   0.798  0.3912 -0.0907  0.0368
  712TIP3    H123551   1.788   1.570   0.869 -1.2876 -0.5907 -0.2144
  712TIP3    H223552   1.780   1.719   0.842  1.5064 -0.2780  0.4461
  713TIP3   OH223553   0.245   0.740   3.985 -0.6002  0.2970  0.4758
  713TIP3    H123554   0.229   0.812   4.046 -1.3404 -1.3697  2.3295
  713TIP3    H223555   0.176   0.677   4.004  0.6621 -1.3753 -0.3638
  714TIP3   OH223556   1.501   6.339   4.131 -0.6561 -0.3745  0.2902
  714TIP3    H123557   1.532   6.249   4.124 -0.6300 -0.1924 -2.5100
  714TIP3    H223558   1.460   6.344   4.217 -1.2917 -3.2741  0.2066
  715TIP3   OH223559   3.210   3.063  14.011 -0.5811 -0.2575 -0.3507
  715TIP3    H123560   3.297   3.075  14.048  0.2639  0.8406 -2.5846
  715TIP3    H223561   3.221   2.991  13.948 -1.8684 -1.7543  1.0680
  716TIP3   OH223562   4.907   3.805   0.275 -0.3481 -0.8821  0.7964
  716TIP3    H123563   4.938   3.883   0.230 -0.0734 -0.2960  1.9728
  716TIP3    H223564   4.874   3.748   0.205  1.0870 -0.4771 -0.2384
  717TIP3   OH223565   5.152   1.641   1.028 -0.1335  0.1548  0.2350
  717TIP3    H123566   5.126   1.593   1.106 -0.6476 -0.4254 -0.2938
  717TIP3    H223567   5.072   1.648   0.976 -0.2395  2.2145  0.6422
  718TIP3   OH223568   3.628   6.450  11.535  0.3964  0.4978  0.0838
  718TIP3    H123569   3.578   6.472  11.456  0.5099  0.8057  0.0965
  718TIP3    H223570   3.583   6.374  11.571 -0.4536  1.1706  0.4494
  719TIP3   OH223571   5.366   4.128  11.846  0.0889 -0.0294 -0.5882
  719TIP3    H123572   5.312   4.206  11.840  0.7521  0.4730 -0.1287
  719TIP3    H223573   5.319   4.062  11.795 -0.7730  0.4946 -0.4804
  720TIP3   OH223574   0.903   2.859  15.944  0.0899  0.0356  0.0548
  720TIP3    H123575   0.869   2.929  15.889  2.5781  1.0884 -0.2329
  720TIP3    H223576   0.884   2.888  16.034 -2.4248 -0.8577 -0.1647
  721TIP3   OH223577   4.247   1.452   1.148  0.1016 -0.6495  0.2078
  721TIP3    H123578   4.174   1.496   1.193  0.2181 -0.0302 -0.2051
  721TIP3    H223579   4.235   1.475   1.056  0.4025 -1.1463  0.0477
  722TIP3   OH223580   2.112   5.344  15.327  0.0787 -0.4647 -0.3927
  722TIP3    H123581   2.138   5.271  15.271  1.0290 -0.1082 -0.4318
  722TIP3    H223582   2.154   5.420  15.287  0.6987 -0.1956  0.7507
  723TIP3   OH223583   2.464   4.145  12.681 -0.2050  0.2731  0.7777
  723TIP3    H123584   2.522   4.218  12.658 -1.1305  0.6456 -0.4705
  723TIP3    H223585   2.519   4.085  12.731  1.3443  0.4709 -0.6378
  724TIP3   OH223586   6.068   0.400  16.182  0.3101  0.0379  0.3522
  724TIP3    H123587   6.002   0.448  16.231 -1.1780 -0.8880 -0.7161
  724TIP3    H223588   6.023   0.321  16.152  1.0732  0.7207 -2.7484
  725TIP3   OH223589   3.661   0.516   5.272  0.3985  0.1945  0.4654
  725TIP3    H123590   3.727   0.471   5.324 -1.6808 -1.2247  1.9459
  725TIP3    H223591   3.666   0.473   5.186  0.9472 -0.3382  0.7565
  726TIP3   OH223592   4.579   5.160   0.272  0.1815 -0.5501  0.2945
  726TIP3    H123593   4.551   5.249   0.249 -0.2084 -0.5390  0.8002
  726TIP3    H223594   4.498   5.112   0.286  0.3400 -1.5547 -1.9868
  727TIP3   OH223595   1.288   1.153  11.768  0.3769  0.2516  0.6660
  727TIP3    H123596   1.377   1.144  11.802  0.2749 -0.8812  0.6467
  727TIP3    H223597   1.264   1.065  11.739 -0.4264  0.7253 -0.1475
  728TIP3   OH223598   2.635   0.560   4.918 -0.0171 -0.2039 -0.1719
  728TIP3    H123599   2.602   0.474   4.890  1.2330 -0.8145  0.2181
  728TIP3    H223600   2.650   0.608   4.836  0.6633 -0.8765 -0.4435
  729TIP3   OH223601   0.286   0.931   1.677  0.3146  0.0752 -0.7200
  729TIP3    H123602   0.257   1.009   1.726  0.5099 -2.0888  3.0407
  729TIP3    H223603   0.381   0.928   1.691  0.0835 -1.7462  0.6315
  730TIP3   OH223604   0.602   1.521  11.305  0.2177  0.0518 -0.1815
  730TIP3    H123605   0.577   1.598  11.255 -1.1695  0.2082  0.7003
  730TIP3    H223606   0.521   1.494  11.349  1.0056 -1.0702  0.6225
  731TIP3   OH223607   3.696   6.298   4.525  0.0267  0.3120 -0.0970
  731TIP3    H123608   3.655   6.296   4.612  0.2170  0.8718  0.0082
  731TIP3    H223609   3.639   6.356   4.473  0.1844  0.3731 -0.2019
  732TIP3   OH223610   5.005   6.528  15.987  0.0742  0.3169 -0.1523
  732TIP3    H123611   5.077   6.592  15.987  0.6613 -0.3214 -1.7870
  732TIP3    H223612   5.046   6.447  15.956 -1.2226 -0.2134 -0.4816
  733TIP3   OH223613   4.369   3.845   0.958  0.1879 -0.1345 -0.0321
  733TIP3    H123614   4.395   3.914   1.018  0.7734  0.2179 -0.6791
  733TIP3    H223615   4.447   3.829   0.905 -0.4605 -0.1004 -1.0141
  734TIP3   OH223616   1.425   0.839   0.015 -0.1047 -0.1052 -0.5846
  734TIP3    H123617   1.364   0.881   0.076 -0.4352 -1.0217 -0.2629
  734TIP3    H223618   1.471   0.911  -0.028 -0.4937  0.5673  0.1202
  735TIP3   OH223619   1.145   4.287  16.497 -0.3114  0.1976  0.5175
  735TIP3    H123620   1.156   4.329  16.583  1.5251  0.4401  0.1752
  735TIP3    H223621   1.196   4.341  16.437 -0.9963 -0.3935 -0.6120
  736TIP3   OH223622   1.277   3.010   5.886  0.2213 -0.6273 -0.3663
  736TIP3    H123623   1.283   2.928   5.935 -0.2140 -0.6817 -0.4079
  736TIP3    H223624   1.314   2.989   5.800  1.8143 -0.3030  0.2205
  737TIP3   OH223625   6.610   0.819  17.208  0.1684  0.5167  1.2838
  737TIP3    H123626   6.515   0.816  17.214  0.2559 -1.2863  2.2783
  737TIP3    H223627   6.636   0.898  17.255 -0.7245 -0.0248  2.7003
  738TIP3   OH223628   4.064   3.319   5.277 -0.7231  0.4397  0.0737
  738TIP3    H123629   4.056   3.291   5.368 -0.8520  1.2052  0.3056
  738TIP3    H223630   3.982   3.364   5.258 -0.2197  1.3232 -0.0470
  739TIP3   OH223631   0.791   0.547  16.582  0.8396 -0.3881  0.2264
  739TIP3    H123632   0.710   0.528  16.535  0.3426 -1.8387  1.6364
  739TIP3    H223633   0.852   0.478  16.556  0.2592 -1.7689  2.3923
  740TIP3   OH223634   4.061   3.532   1.708 -0.1592 -0.3728 -0.3896
  740TIP3    H123635   4.055   3.442   1.740 -0.3812 -0.9173 -1.9485
  740TIP3    H223636   4.123   3.574   1.768 -0.8712 -1.2586  0.9974
  741TIP3   OH223637   0.020   6.326  16.227  0.1353 -0.4409 -0.2841
  741TIP3    H123638   0.111   6.301  16.211 -0.1726 -0.6370 -1.8349
  741TIP3    H223639   0.025   6.400  16.288  1.2851 -1.0092  0.3210
  742TIP3   OH223640   1.194   2.236  14.235 -0.3231 -0.0604  0.0706
  742TIP3    H123641   1.099   2.238  14.248 -0.3365  1.0788 -0.1798
  742TIP3    H223642   1.228   2.304  14.293  0.3495 -0.4949  0.1927
  743TIP3   OH223643   6.337   3.301  12.555 -0.3600  0.3558  0.7452
  743TIP3    H123644   6.374   3.387  12.574 -2.0798  1.0496  1.0414
  743TIP3    H223645   6.251   3.319  12.517 -1.2318 -1.2332  1.8584
  744TIP3   OH223646   5.696   0.008  10.755 -0.1662  0.4015 -0.0153
  744TIP3    H123647   5.631   0.060  10.708  0.5467  1.5045  0.1887
  744TIP3    H223648   5.723   0.064  10.828  1.5898  0.2868 -0.5574
  745TIP3   OH223649   3.875   4.467   1.403 -0.0171  0.1976  0.2841
  745TIP3    H123650   3.933   4.534   1.370 -1.1688  0.0685 -2.1098
  745TIP3    H223651   3.915   4.384   1.376  0.1412 -0.0017  1.1057
  746TIP3   OH223652   6.214   0.508   0.574  0.5009 -0.3240 -0.1756
  746TIP3    H123653   6.188   0.579   0.632 -2.1174 -1.5488  0.2298
  746TIP3    H223654   6.282   0.461   0.623  2.3639  1.9114 -0.5133
  747TIP3   OH223655   1.404   6.019   4.180 -0.0841 -0.7056 -0.3159
  747TIP3    H123656   1.338   5.990   4.118 -0.4119 -1.9894  0.6165
  747TIP3    H223657   1.484   6.032   4.128 -0.5807 -0.9229 -1.1274
  748TIP3   OH223658   4.010   1.888  12.691 -0.1689  0.0109  0.1834
  748TIP3    H123659   4.045   1.977  12.684  0.9442 -0.3542  0.9664
  748TIP3    H223660   3.918   1.900  12.716 -1.2445  1.0313 -3.8746
  749TIP3   OH223661   6.447   3.306  14.109  0.1021 -0.1944 -0.1154
  749TIP3    H123662   6.494   3.359  14.045  0.5439 -1.1741 -0.6284
  749TIP3    H223663   6.363   3.350  14.120  0.1865  0.2187 -1.0581
  750TIP3   OH223664   5.071   0.007   5.702  0.2874 -0.3009 -0.0775
  750TIP3    H123665   5.118  -0.024   5.779  0.5724  0.4755  0.0676
  750TIP3    H223666   5.090   0.101   5.698  0.4717 -0.3682 -1.2231
  751TIP3   OH223667   6.191   1.246  11.570  0.5653  0.2243 -0.3846
  751TIP3    H123668   6.234   1.250  11.656  1.9819 -1.4052 -0.9833
  751TIP3    H223669   6.115   1.190  11.583  1.9700 -1.7754 -0.6545
  752TIP3   OH223670   2.792   0.267   0.898  0.2431 -0.2857 -0.6896
  752TIP3    H123671   2.778   0.186   0.948  0.4131 -1.4820 -2.5584
  752TIP3    H223672   2.885   0.287   0.912  0.6072 -1.3237 -1.5363
  753TIP3   OH223673   0.498   0.276   1.084 -0.0481  0.3841 -0.4901
  753TIP3    H123674   0.403   0.286   1.081  0.0573  1.4251 -0.2499
  753TIP3    H223675   0.519   0.274   1.177  0.2668  1.0737 -0.5477
  754TIP3   OH223676   5.001   0.937  10.121 -1.1171  0.1696  0.2188
  754TIP3    H123677   4.948   0.858  10.117 -0.7783 -0.0459 -0.0504
  754TIP3    H223678   5.018   0.959  10.029  0.8328 -0.8199  0.2991
  755TIP3   OH223679   3.436   2.706  16.339 -0.4203 -0.1925 -0.6311
  755TIP3    H123680   3.342   2.718  16.357 -0.2369 -0.8246  0.8436
  755TIP3    H223681   3.479   2.728  16.422  0.8912  1.8611 -1.8238
  756TIP3   OH223682   4.727   0.851   0.394 -0.2405 -0.2720  0.7364
  756TIP3    H123683   4.680   0.884   0.318 -3.4143 -0.0116  2.7514
  756TIP3    H223684   4.818   0.844   0.364 -0.9025  2.4934 -2.2011
  757TIP3   OH223685   4.383   2.610   1.304 -0.4678  0.0134  0.0612
  757TIP3    H123686   4.388   2.522   1.340 -0.0279  0.3338  0.8013
  757TIP3    H223687   4.403   2.668   1.378  0.9913  0.6506 -0.8052
  758TIP3   OH223688   1.601   4.971   1.011 -0.2373  0.5310  0.8216
  758TIP3    H123689   1.622   4.955   0.919 -1.0521  2.4287  0.2804
  758TIP3    H223690   1.570   4.886   1.044 -1.1226  0.1264 -0.9914
  759TIP3   OH223691   2.410   0.366   6.093 -0.2868  0.6470 -0.2073
  759TIP3    H123692   2.501   0.395   6.091 -0.1878  0.3053 -1.1716
  759TIP3    H223693   2.411   0.289   6.149  0.5299 -0.9476 -2.3282
  760TIP3   OH223694   4.400   4.689  16.276 -0.1167 -0.1362  0.3358
  760TIP3    H123695   4.385   4.595  16.266 -2.6263  0.3400 -0.6652
  760TIP3    H223696   4.412   4.721  16.186  0.2433  0.5746  0.6350
  761TIP3   OH223697   3.739   3.068  15.897 -0.3006 -0.0833  0.1689
  761TIP3    H123698   3.710   3.058  15.806  0.7011 -0.2804 -0.1378
  761TIP3    H223699   3.697   3.149  15.927 -0.7971 -0.1220 -0.4023
  762TIP3   OH223700   2.984   4.660  12.729  0.4259 -0.0447  0.4991
  762TIP3    H123701   2.949   4.609  12.802 -0.5669  0.2262  0.2230
  762TIP3    H223702   2.953   4.615  12.651 -0.5748  1.0573  0.2552
  763TIP3   OH223703   1.820   6.227   1.155  0.0728 -0.6094 -0.2869
  763TIP3    H123704   1.908   6.250   1.185  0.0076  0.6793 -1.0349
  763TIP3    H223705   1.765   6.236   1.233  0.5412 -1.0562  0.0966
  764TIP3   OH223706   5.573   1.295  13.770 -0.0060  0.0787  0.3700
  764TIP3    H123707   5.537   1.290  13.858 -0.7365 -0.6688  0.0363
  764TIP3    H223708   5.518   1.358  13.725 -0.5208 -0.5968  0.0425
  765TIP3   OH223709   0.174   5.421  14.280  0.1226 -0.1917 -0.8910
  765TIP3    H123710   0.108   5.490  14.291 -0.3839 -0.7233 -0.5638
  765TIP3    H223711   0.179   5.408  14.185  0.7625  0.8094 -0.9995
  766TIP3   OH223712   0.433   2.673   0.559 -0.1360  0.1882  0.2297
  766TIP3    H123713   0.430   2.751   0.504  0.0719 -1.0334 -1.5421
  766TIP3    H223714   0.349   2.673   0.605 -0.9897  0.3445 -1.3113
  767TIP3   OH223715   4.547   1.123   3.734 -0.1373 -0.1476  0.8043
  767TIP3    H123716   4.578   1.035   3.755  1.3702  0.6355  1.9020
  767TIP3    H223717   4.583   1.179   3.802 -1.5890  1.2526  0.4659
  768TIP3   OH223718   0.707   2.125   1.418  0.1849  0.4562 -0.0458
  768TIP3    H123719   0.658   2.047   1.390 -1.0706  1.2777 -0.1738
  768TIP3    H223720   0.706   2.183   1.342  0.7722  0.7748  0.1829
  769TIP3   OH223721   4.619   3.340  12.259 -0.3009 -0.4116  0.2154
  769TIP3    H123722   4.603   3.330  12.166 -0.2083 -0.2056  0.1766
  769TIP3    H223723   4.533   3.331  12.300  0.0069 -3.3604  0.3494
  770TIP3   OH223724   4.231   6.282   3.015  0.0249  0.0527 -0.0241
  770TIP3    H123725   4.193   6.202   3.049  1.1239 -1.1344 -1.5158
  770TIP3    H223726   4.319   6.258   2.988 -0.4863  1.1189 -2.8679
  771TIP3   OH223727   5.850   2.511  13.222 -0.1887  0.3755 -0.3573
  771TIP3    H123728   5.821   2.510  13.131 -0.2836 -0.0450 -0.3230
  771TIP3    H223729   5.772   2.533  13.273 -1.0348 -2.9315 -0.0735
  772TIP3   OH223730   6.610   2.282  14.699  0.2277  0.6150  0.0155
  772TIP3    H123731   6.560   2.346  14.648  1.1984  1.5387  0.1979
  772TIP3    H223732   6.701   2.308  14.686  0.7667 -1.8166 -1.3797
  773TIP3   OH223733   4.462   4.727  14.355 -0.1225  0.1017 -0.0526
  773TIP3    H123734   4.488   4.814  14.324  0.0044 -0.3198 -1.1535
  773TIP3    H223735   4.426   4.684  14.278  1.5816 -1.5147  0.0309
  774TIP3   OH223736   3.472   2.565   6.541  0.1863 -0.0823 -0.4437
  774TIP3    H123737   3.424   2.640   6.577  0.0713 -0.3596 -0.0032
  774TIP3    H223738   3.535   2.543   6.609  0.2087 -0.3917 -0.5651
  775TIP3   OH223739   0.566   5.309  13.101 -0.1333 -0.0540  0.0139
  775TIP3    H123740   0.511   5.385  13.118  0.3375  0.2624  0.0928
  775TIP3    H223741   0.588   5.316  13.008 -1.1786 -0.8003 -0.3039
  776TIP3   OH223742   1.624   5.785  13.408  0.0404  0.4132  0.0201
  776TIP3    H123743   1.549   5.772  13.465 -0.8903  2.9891 -0.5593
  776TIP3    H223744   1.619   5.713  13.345 -1.5514  0.1979  0.3739
  777TIP3   OH223745   1.019   5.555   0.332 -0.1265  0.6159  0.4006
  777TIP3    H123746   0.981   5.631   0.377  0.1622  0.4596  0.9073
  777TIP3    H223747   1.048   5.498   0.403  0.4363  0.4236  0.0104
  778TIP3   OH223748   4.250   6.643  16.333 -0.5774 -0.1962  0.3145
  778TIP3    H123749   4.184   6.590  16.289  0.5497 -0.1560 -1.4709
  778TIP3    H223750   4.250   6.726  16.285 -0.3304  0.3883  1.3058
  779TIP3   OH223751   5.816   4.996   1.757 -0.2102 -0.0246  0.3564
  779TIP3    H123752   5.808   4.906   1.725  0.3214 -0.4917  1.5043
  779TIP3    H223753   5.892   4.994   1.816 -0.7885  0.9396  1.1588
  780TIP3   OH223754   5.195   4.075   0.548 -1.2420 -0.2043 -0.3045
  780TIP3    H123755   5.215   3.981   0.551  0.1721  0.1349  1.3777
  780TIP3    H223756   5.112   4.083   0.594 -0.1848 -0.3497  1.6745
  781TIP3   OH223757   3.757   2.434   2.209  0.3895  0.2533 -0.0711
  781TIP3    H123758   3.836   2.486   2.223  0.4286  0.1247  0.1793
  781TIP3    H223759   3.721   2.420   2.296  0.6172 -0.5108 -0.0947
  782TIP3   OH223760   2.799   5.976  16.050  0.1456  0.4292  0.3759
  782TIP3    H123761   2.759   5.920  16.117 -1.3412 -0.0634 -0.9118
  782TIP3    H223762   2.748   6.057  16.054  0.3684  0.5787  0.1673
  783TIP3   OH223763   0.366   0.231  11.162 -0.0777 -0.8810 -0.0756
  783TIP3    H123764   0.356   0.198  11.073  0.1124 -1.3012  0.0534
  783TIP3    H223765   0.450   0.194  11.192 -0.3424 -1.0963  0.4221
  784TIP3   OH223766   5.762   4.296   1.885 -0.2110  0.5394  0.0920
  784TIP3    H123767   5.749   4.357   1.957 -1.0473  1.1292 -0.5518
  784TIP3    H223768   5.737   4.345   1.807 -0.6887 -0.5618 -0.4531
  785TIP3   OH223769   5.823   1.994   1.444  0.0029  0.1266  0.7180
  785TIP3    H123770   5.730   2.018   1.442  0.0098  0.4048  2.4321
  785TIP3    H223771   5.824   1.899   1.450 -0.1098 -0.0503 -1.6187
  786TIP3   OH223772   3.580   4.471  10.396 -0.0728 -0.1532 -0.3642
  786TIP3    H123773   3.670   4.476  10.363  0.1779 -0.4550  0.2622
  786TIP3    H223774   3.578   4.390  10.447 -1.0680 -0.8385 -1.4576
  787TIP3   OH223775   4.524   6.251  14.742  0.0007 -0.7571 -0.3481
  787TIP3    H123776   4.575   6.331  14.733 -0.1752 -0.5370  0.6356
  787TIP3    H223777   4.589   6.183  14.762  0.0212 -0.6525 -0.0576
  788TIP3   OH223778   6.429   2.402   6.060  0.2837  0.4565  0.3574
  788TIP3    H123779   6.507   2.346   6.059  0.1094  0.2183 -0.2923
  788TIP3    H223780   6.361   2.347   6.098 -0.1494 -0.1378 -1.2505
  789TIP3   OH223781   2.800   5.592   0.072  0.4123  0.4943 -0.4215
  789TIP3    H123782   2.733   5.537   0.112  2.3860 -1.5735  0.1683
  789TIP3    H223783   2.786   5.582  -0.022 -0.1127  0.0599 -0.3015
  790TIP3   OH223784   3.902   1.016  11.476  0.6318  0.1885 -0.4430
  790TIP3    H123785   3.880   1.107  11.456 -2.1707 -0.6385 -1.3509
  790TIP3    H223786   3.817   0.972  11.481  2.0513 -2.8751 -2.4363
  791TIP3   OH223787   2.430   5.281  12.501  0.0561 -0.1617  0.4794
  791TIP3    H123788   2.497   5.239  12.555  0.1801 -1.3295 -0.5601
  791TIP3    H223789   2.367   5.210  12.483 -0.5762  0.5093  0.0405
  792TIP3   OH223790   2.244   4.399  13.264 -0.2639 -0.0428 -0.4941
  792TIP3    H123791   2.205   4.320  13.226  0.6250 -1.3865  1.3241
  792TIP3    H223792   2.282   4.369  13.347  0.2676  2.2609  0.1104
  793TIP3   OH223793   0.709   2.088  14.205  0.4116  0.5274  0.1137
  793TIP3    H123794   0.634   2.095  14.146  1.1756  0.7084 -0.8449
  793TIP3    H223795   0.776   2.142  14.165  1.7593 -1.2860 -0.1464
  794TIP3   OH223796   5.381   1.120   1.918 -0.2516 -0.1398 -0.2343
  794TIP3    H123797   5.346   1.198   1.960 -0.3835  0.0145 -0.6317
  794TIP3    H223798   5.452   1.152   1.862  0.3857 -0.4237  0.4013
  795TIP3   OH223799   0.126   4.168  12.949 -0.3994  0.4458 -0.3283
  795TIP3    H123800   0.078   4.229  12.893 -1.1270  0.9847  0.8780
  795TIP3    H223801   0.061   4.104  12.978  0.0757 -0.1130 -0.4627
  796TIP3   OH223802   4.413   2.805   1.533  0.0833  0.3169  0.0937
  796TIP3    H123803   4.454   2.851   1.460 -0.4881  2.2599  0.9614
  796TIP3    H223804   4.473   2.817   1.607 -0.0389 -0.3925  0.3131
  797TIP3   OH223805   3.230   5.597   5.597 -0.0125  0.1211  0.0886
  797TIP3    H123806   3.235   5.684   5.639  0.0306 -0.9049  2.2737
  797TIP3    H223807   3.252   5.536   5.667  0.8348 -1.6155 -1.6681
  798TIP3   OH223808   1.905   1.651  12.526  0.5020  0.4905 -0.3336
  798TIP3    H123809   1.909   1.597  12.605  2.6446  0.6318 -0.3343
  798TIP3    H223810   1.812   1.675  12.519  0.1356 -0.2463  1.6407
  799TIP3   OH223811   1.687   0.093  16.696  0.7422 -0.2484  0.5914
  799TIP3    H123812   1.603   0.121  16.659  0.8368 -0.7364 -0.0033
  799TIP3    H223813   1.745   0.084  16.620  1.2878 -0.0591  0.9840
  800TIP3   OH223814   2.114   2.399  17.200 -0.2165 -0.0341 -0.2763
  800TIP3    H123815   2.106   2.362  17.288  0.0395 -1.0827 -0.6779
  800TIP3    H223816   2.163   2.480  17.212 -1.1158  0.3688  0.6782
  801TIP3   OH223817   5.331   6.559  15.841 -0.2352 -0.1825  0.2893
  801TIP3    H123818   5.385   6.581  15.766  0.4945  0.4914  1.0006
  801TIP3    H223819   5.377   6.486  15.883 -0.0698  0.1414  0.6782
  802TIP3   OH223820   3.439   2.021   0.693  0.5799  0.3306  0.4155
  802TIP3    H123821   3.412   1.945   0.642  1.7794  0.8395 -1.0177
  802TIP3    H223822   3.358   2.063   0.720 -0.1362 -2.4481  2.7595
  803TIP3   OH223823   2.066   2.473  10.750 -0.4226 -0.3011  0.1769
  803TIP3    H123824   2.019   2.552  10.776 -1.9723 -1.3041  0.5056
  803TIP3    H223825   2.099   2.492  10.663 -0.5579  0.7979  0.3609
  804TIP3   OH223826   0.892   4.874   4.134  0.1652  0.0689 -0.3151
  804TIP3    H123827   0.981   4.863   4.100  0.8010 -0.8536  1.6056
  804TIP3    H223828   0.854   4.787   4.132  0.0306  0.0975  0.8333
  805TIP3   OH223829   1.871   4.882   0.900  0.2633 -0.6381  0.5883
  805TIP3    H123830   1.929   4.951   0.868 -0.6757  0.1641  0.6158
  805TIP3    H223831   1.930   4.809   0.920  1.2413  0.1005  0.4250
  806TIP3   OH223832   2.794   0.583   1.238  0.0734  0.1891 -0.4158
  806TIP3    H123833   2.872   0.529   1.226  0.0803  0.1016 -0.0045
  806TIP3    H223834   2.771   0.613   1.150 -1.3965 -2.4919 -1.0200
  807TIP3   OH223835   1.943   2.998   3.833 -0.0609 -0.4561 -0.1974
  807TIP3    H123836   1.972   2.919   3.787 -1.3376 -0.2378 -1.4127
  807TIP3    H223837   1.847   2.990   3.836 -0.1515  0.7283  0.2315
  808TIP3   OH223838   1.882   1.093  13.675  0.0788 -0.1355 -0.3816
  808TIP3    H123839   1.952   1.155  13.696  0.6533 -1.1538  0.7683
  808TIP3    H223840   1.869   1.103  13.580  0.4086  1.4645 -0.2662
  809TIP3   OH223841   1.036   5.117   2.182  0.8002  0.2192  0.6184
  809TIP3    H123842   1.062   5.209   2.185  1.3970  0.1034 -0.5398
  809TIP3    H223843   1.114   5.072   2.148 -0.3139 -0.3669 -1.2032
  810TIP3   OH223844   3.861   4.886  16.767  0.5501 -0.0251 -0.3158
  810TIP3    H123845   3.929   4.914  16.829 -1.0421  1.1759  0.9218
  810TIP3    H223846   3.861   4.791  16.773  0.4763  0.0768  1.4548
  811TIP3   OH223847   4.643   0.586   3.456  0.4193 -0.1135 -0.0804
  811TIP3    H123848   4.599   0.573   3.540  2.4674  1.7223  1.3113
  811TIP3    H223849   4.728   0.544   3.465  0.8658  0.5428 -1.0460
  812TIP3   OH223850   6.774   4.455  11.834  0.0037  0.0795  0.8641
  812TIP3    H123851   6.853   4.420  11.875 -0.5413 -1.0730  0.9541
  812TIP3    H223852   6.742   4.385  11.778  0.8639  1.7317 -1.7641
  813TIP3   OH223853   1.094   5.376  13.080  0.0596 -0.4530  0.0593
  813TIP3    H123854   1.003   5.390  13.052  0.5153  2.6906 -0.1078
  813TIP3    H223855   1.090   5.381  13.175  0.1348  0.4786  0.0228
  814TIP3   OH223856   3.514   3.203   0.311 -0.2519  0.1213 -0.3935
  814TIP3    H123857   3.430   3.179   0.272 -0.2680  1.3365 -1.1360
  814TIP3    H223858   3.579   3.162   0.254 -0.3160  0.3761 -0.6528
  815TIP3   OH223859   1.279   1.265  15.411 -0.0564  0.0005  0.8287
  815TIP3    H123860   1.355   1.313  15.379 -1.4712  2.4768  1.0070
  815TIP3    H223861   1.284   1.180  15.368  1.5478  0.9695 -0.9727
  816TIP3   OH223862   5.535   1.195   4.152 -0.7815 -0.0953 -0.4800
  816TIP3    H123863   5.544   1.108   4.191 -0.9234  0.3090  0.4858
  816TIP3    H223864   5.551   1.182   4.059 -0.7923 -1.1537 -0.3394
  817TIP3   OH223865   4.611   5.118  16.604 -0.6067  0.3645 -0.1000
  817TIP3    H123866   4.589   5.042  16.550 -1.0842  0.5776 -0.2033
  817TIP3    H223867   4.662   5.175  16.547  1.8234 -0.9639  0.6702
  818TIP3   OH223868   1.435   5.159  10.510 -0.2468 -0.6456 -0.1695
  818TIP3    H123869   1.343   5.148  10.533 -1.4181  1.6632 -3.2297
  818TIP3    H223870   1.464   5.073  10.481 -1.2153 -1.5658  1.5813
  819TIP3   OH223871   4.868   3.600  14.223 -0.3573  0.2031  0.3247
  819TIP3    H123872   4.855   3.636  14.135 -2.0435 -0.3443  0.3330
  819TIP3    H223873   4.933   3.531  14.212  1.5375  1.9986 -0.0034
  820TIP3   OH223874   5.359   0.527   2.230 -0.0936 -0.3147  0.1429
  820TIP3    H123875   5.352   0.453   2.290 -1.2877  1.4537  2.2350
  820TIP3    H223876   5.449   0.559   2.241  0.5143 -1.5784 -0.9706
  821TIP3   OH223877   4.458   4.906  14.740 -0.3488  0.2187 -0.7115
  821TIP3    H123878   4.530   4.970  14.742  0.0058 -0.1880 -0.5176
  821TIP3    H223879   4.418   4.918  14.654  1.3771 -1.1278 -1.7351
  822TIP3   OH223880   5.738   2.570  14.004 -0.1734  0.4408 -0.5810
  822TIP3    H123881   5.815   2.592  13.951  0.0038 -0.1087 -0.5518
  822TIP3    H223882   5.736   2.475  14.005 -2.0868  0.4318 -2.3321
  823TIP3   OH223883   0.694   4.122   2.068  0.3532  0.6825  0.1425
  823TIP3    H123884   0.605   4.098   2.044  0.5305  0.5961 -0.4430
  823TIP3    H223885   0.719   4.189   2.005  0.3796  1.3775  0.8749
  824TIP3   OH223886   0.331   4.329   1.103 -0.6605  0.0305 -1.0327
  824TIP3    H123887   0.241   4.340   1.073 -0.4937  0.6479 -1.3185
  824TIP3    H223888   0.380   4.397   1.057  0.1077 -0.8487 -1.5368
  825TIP3   OH223889   0.740   6.241  17.213 -0.2678 -0.5440  0.5897
  825TIP3    H123890   0.758   6.183  17.139 -0.3864 -1.2176  1.0829
  825TIP3    H223891   0.787   6.322  17.192 -1.4627 -0.2036 -0.9081
  826TIP3   OH223892   2.915   0.568   2.713 -0.0461 -0.4692  0.1506
  826TIP3    H123893   2.848   0.519   2.761 -2.2062  2.2484  0.0416
  826TIP3    H223894   2.869   0.647   2.682  3.4029  1.8706  0.7233
  827TIP3   OH223895   6.476   0.280  16.252 -0.4578  0.4057 -0.8101
  827TIP3    H123896   6.471   0.375  16.241  2.8362  0.8114  0.6841
  827TIP3    H223897   6.464   0.245  16.164  1.4887  2.3995 -1.9101
  828TIP3   OH223898   0.994   3.965   6.045  0.3198  0.3369 -0.3048
  828TIP3    H123899   0.917   3.987   6.098 -1.4608 -0.7510 -2.3811
  828TIP3    H223900   1.016   3.876   6.072 -0.2878 -0.0371 -1.0456
  829TIP3   OH223901   0.389   5.706  15.241 -0.7208 -0.1872 -0.1773
  829TIP3    H123902   0.301   5.672  15.225 -0.6107 -0.0538 -1.0632
  829TIP3    H223903   0.418   5.740  15.157 -0.8730  2.2289  0.7033
  830TIP3   OH223904   4.776   1.129   1.898  0.3124 -0.2525 -0.1871
  830TIP3    H123905   4.752   1.200   1.837  1.3761  0.9450  0.7572
  830TIP3    H223906   4.702   1.123   1.957  0.2467  0.1298 -0.2258
  831TIP3   OH223907   3.644   6.758  12.574  0.4425  0.1241 -0.0146
  831TIP3    H123908   3.668   6.767  12.667 -0.0686 -0.9080  0.2321
  831TIP3    H223909   3.695   6.684  12.543 -1.5011 -1.3492  0.2125
  832TIP3   OH223910   2.199   6.590   1.142  0.2884 -0.0113  0.5121
  832TIP3    H123911   2.212   6.518   1.081 -0.1204 -0.2613  0.7209
  832TIP3    H223912   2.287   6.626   1.156  0.6087 -1.0342  1.1170
  833TIP3   OH223913   4.708   1.266   2.456 -0.4424 -0.1807  0.0636
  833TIP3    H123914   4.766   1.195   2.427 -1.3932 -0.8366 -0.2666
  833TIP3    H223915   4.637   1.267   2.392 -0.8555  0.5409  0.5210
  834TIP3   OH223916   5.985   0.133   4.272 -0.7606 -0.1217  0.1488
  834TIP3    H123917   6.058   0.072   4.278 -1.5638 -1.1060  0.0290
  834TIP3    H223918   5.987   0.164   4.182  0.1587  0.6734  0.4406
  835TIP3   OH223919   0.742   1.739  11.512 -0.1471 -0.0383 -0.0581
  835TIP3    H123920   0.788   1.799  11.571 -1.6032 -1.0299  2.1561
  835TIP3    H223921   0.663   1.787  11.487 -0.1576 -0.1136 -0.1654
  836TIP3   OH223922   5.009   0.024  14.910 -0.6432 -0.4538 -0.2860
  836TIP3    H123923   5.054   0.018  14.826  0.6324  0.1615  0.3378
  836TIP3    H223924   4.970   0.112  14.910  0.2551 -0.0489  0.1982
  837TIP3   OH223925   1.327   2.692   0.428 -0.0628 -0.2572  0.4209
  837TIP3    H123926   1.385   2.629   0.470  1.1793 -1.7264 -3.2936
  837TIP3    H223927   1.386   2.759   0.393 -1.0600  0.9294  0.9573
  838TIP3   OH223928   2.911   5.170  11.337 -0.0961  0.1903 -0.2374
  838TIP3    H123929   2.902   5.249  11.285 -0.6247 -0.8103 -1.7183
  838TIP3    H223930   2.821   5.145  11.359  0.0626 -0.0340  0.1556
  839TIP3   OH223931   1.762   3.847   0.869  0.3440  0.6261 -0.2414
  839TIP3    H123932   1.756   3.786   0.795  0.9037 -0.3707  0.5266
  839TIP3    H223933   1.673   3.855   0.901  0.4812 -0.8915  0.5325
  840TIP3   OH223934   4.330   2.042  14.013 -0.3438  0.1142  0.6878
  840TIP3    H123935   4.291   2.087  13.939  0.7685  1.1304  0.7125
  840TIP3    H223936   4.284   2.075  14.089 -0.9484 -0.3493  0.5291
  841TIP3   OH223937   2.512   2.202   1.989  0.1124 -0.1585  0.0606
  841TIP3    H123938   2.573   2.254   1.937  0.5442 -1.0052 -0.2978
  841TIP3    H223939   2.481   2.135   1.929 -2.2493  1.0813 -0.1720
  842TIP3   OH223940   3.532   6.284   3.421 -0.4945  0.2864 -0.3843
  842TIP3    H123941   3.522   6.378   3.403  1.6491  0.5853 -0.0924
  842TIP3    H223942   3.554   6.245   3.337  0.4575  0.3188 -0.1498
  843TIP3   OH223943   1.624   1.684  16.133 -0.4003 -0.1162 -0.0722
  843TIP3    H123944   1.616   1.588  16.126  1.9165 -0.2124 -2.0183
  843TIP3    H223945   1.695   1.697  16.196  0.3793  0.2880 -1.0320
  844TIP3   OH223946   3.000   0.134   0.223 -0.0786  0.4682 -0.1902
  844TIP3    H123947   3.083   0.117   0.180  0.1324 -0.4682  0.5805
  844TIP3    H223948   2.949   0.182   0.158  1.1778  1.3488 -0.5423
  845TIP3   OH223949   3.797   3.749  10.954  0.0095 -0.3225 -0.4549
  845TIP3    H123950   3.867   3.772  10.892 -0.4197  0.4847 -0.6425
  845TIP3    H223951   3.755   3.672  10.915  1.4741 -1.4745  0.1956
  846TIP3   OH223952   5.210   2.566  13.980 -0.2933 -0.1513  0.0394
  846TIP3    H123953   5.296   2.532  13.956 -0.7904 -0.2242 -1.7267
  846TIP3    H223954   5.183   2.513  14.055  1.0494 -0.3383  0.4048
  847TIP3   OH223955   6.449   3.093  11.428  0.4482 -0.0614  0.5605
  847TIP3    H123956   6.519   3.142  11.387 -0.9086 -0.2234 -2.0978
  847TIP3    H223957   6.489   3.010  11.454  1.7464  0.7436  1.1336
  848TIP3   OH223958   0.180   4.069   3.941 -0.0257 -0.1803 -0.1807
  848TIP3    H123959   0.155   4.124   3.867  0.6853  1.1993  0.5771
  848TIP3    H223960   0.188   4.130   4.014 -1.7870 -1.6697  1.3059
  849TIP3   OH223961   0.272   5.833  13.366 -0.3521  0.3907  0.0044
  849TIP3    H123962   0.248   5.866  13.280 -1.4052  0.7705  0.4342
  849TIP3    H223963   0.190   5.832  13.415  0.0567 -0.8330  0.6706
  850TIP3   OH223964   6.165   3.407   2.541 -0.0391 -0.3722  0.3176
  850TIP3    H123965   6.189   3.455   2.621  0.5569  0.5993 -0.4384
  850TIP3    H223966   6.249   3.383   2.502 -0.2246  2.4087 -1.9671
  851TIP3   OH223967   5.566   4.104  13.005  0.2790 -0.6108 -0.3745
  851TIP3    H123968   5.599   4.186  12.968  2.6888 -1.6491 -0.6382
  851TIP3    H223969   5.489   4.083  12.952  0.2849  0.9039 -1.0199
  852TIP3   OH223970   4.219   2.997   1.718  0.1185  1.2580 -0.1140
  852TIP3    H123971   4.238   3.049   1.640  0.0313  0.8119 -0.4378
  852TIP3    H223972   4.125   2.979   1.712  0.2438  0.6166 -0.2898
  853TIP3   OH223973   4.921   4.769   1.153  0.1641  0.5411  0.0410
  853TIP3    H123974   4.981   4.781   1.226  0.2702  1.8911 -0.2608
  853TIP3    H223975   4.973   4.790   1.075  0.0501 -0.8645 -0.4337
  854TIP3   OH223976   2.984   0.182  12.879  0.4528 -0.2711 -0.0836
  854TIP3    H123977   3.035   0.244  12.828  1.4683 -1.2845 -0.3198
  854TIP3    H223978   2.903   0.170  12.828  0.7237  0.0258 -0.5846
  855TIP3   OH223979   3.548   3.703   3.085 -0.5241  0.3501 -0.9236
  855TIP3    H123980   3.627   3.676   3.037  1.0706  1.9269  0.7154
  855TIP3    H223981   3.476   3.669   3.033  1.2661 -3.5912 -1.0452
  856TIP3   OH223982   2.239   6.317   2.266 -0.3768 -0.4669  0.3850
  856TIP3    H123983   2.231   6.412   2.275 -0.5929 -0.3628 -0.8857
  856TIP3    H223984   2.240   6.301   2.172 -0.4767 -1.7409  0.5865
  857TIP3   OH223985   1.650   1.990   5.067  0.0331  0.2979  0.2382
  857TIP3    H123986   1.617   1.928   5.002  2.2014  0.7147 -1.3048
  857TIP3    H223987   1.629   2.076   5.032 -0.1510  0.4965  0.8280
  858TIP3   OH223988   1.253   2.880  11.247  0.1508 -0.2419 -0.5341
  858TIP3    H123989   1.275   2.836  11.330 -1.6663  1.4683  0.8957
  858TIP3    H223990   1.213   2.811  11.194 -1.8090 -0.6133  1.3405
  859TIP3   OH223991   5.047   6.000  12.896 -0.0823 -0.1476 -0.5355
  859TIP3    H123992   4.964   5.985  12.850  0.4254  1.1780 -1.9577
  859TIP3    H223993   5.089   6.070  12.846  2.1676 -1.1980 -0.1831
  860TIP3   OH223994   3.515   2.701  11.409 -0.3676 -0.1118  0.3358
  860TIP3    H123995   3.568   2.724  11.333  0.5685  0.8796  1.2871
  860TIP3    H223996   3.506   2.606  11.403 -0.1915 -0.0668 -0.9294
  861TIP3   OH223997   6.050   3.106   5.669 -0.5858 -0.7362  0.3025
  861TIP3    H123998   6.099   3.181   5.701 -1.3163 -0.3475  0.5194
  861TIP3    H223999   5.999   3.141   5.595 -1.6142 -0.8083  0.9761
  862TIP3   OH224000   3.260   4.714   3.693 -0.1822 -0.0812 -0.1560
  862TIP3    H124001   3.175   4.750   3.669  0.2945  0.3703 -1.1727
  862TIP3    H224002   3.317   4.736   3.620  1.8549  3.2518  2.3008
  863TIP3   OH224003   1.537   3.236   1.430 -0.1834 -0.5838  0.2660
  863TIP3    H124004   1.616   3.191   1.399 -0.3198  0.6528 -1.9749
  863TIP3    H224005   1.465   3.176   1.410  0.1019 -1.5369  1.9462
  864TIP3   OH224006   6.021   5.978  12.885 -0.3184  0.0379  0.0682
  864TIP3    H124007   6.034   6.062  12.840  0.6909  0.2083  0.6661
  864TIP3    H224008   6.106   5.959  12.924 -0.5021 -1.3591 -0.2118
  865TIP3   OH224009   5.017   1.109  13.244 -0.3232  0.6620 -0.5780
  865TIP3    H124010   4.996   1.079  13.333 -0.8024  1.2707 -0.4821
  865TIP3    H224011   5.082   1.046  13.213  1.3462  1.5738  0.9379
  866TIP3   OH224012   0.981   1.564   3.298 -0.2573 -0.7258 -0.0299
  866TIP3    H124013   0.942   1.629   3.356  0.5909  0.2415 -0.5234
  866TIP3    H224014   1.063   1.539   3.342 -0.1974 -0.8818 -0.2288
  867TIP3   OH224015   1.496   6.667   0.551 -0.2971  0.0668 -0.1924
  867TIP3    H124016   1.590   6.656   0.569  0.1456  2.4356 -1.0058
  867TIP3    H224017   1.476   6.598   0.488  0.3919 -1.8240  1.5792
  868TIP3   OH224018   3.895   4.047   4.806  0.0107 -0.5632  0.1081
  868TIP3    H124019   3.904   4.000   4.723  0.6703  0.7230 -0.5575
  868TIP3    H224020   3.920   3.982   4.872 -0.2842 -1.5241 -0.7098
  869TIP3   OH224021   0.999   5.794  11.300  0.3522  0.2074 -0.1875
  869TIP3    H124022   1.018   5.749  11.382  2.1528 -1.6675 -1.5866
  869TIP3    H224023   0.926   5.852  11.321  1.8951  1.0339  3.1559
  870TIP3   OH224024   5.631   1.118  13.553  0.0452  0.0034  0.0952
  870TIP3    H124025   5.626   1.171  13.632 -1.2446  0.7869 -0.4963
  870TIP3    H224026   5.676   1.173  13.489  1.0031 -0.5914  0.2495
  871TIP3   OH224027   4.782   0.067   2.167  0.3201 -0.0683 -0.1049
  871TIP3    H124028   4.849   0.108   2.222 -2.4712  1.5045  2.3013
  871TIP3    H224029   4.786   0.115   2.084  3.6995 -1.5685 -0.8826
  872TIP3   OH224030   3.076   4.223  13.011  0.4171 -0.3306  0.4055
  872TIP3    H124031   3.012   4.228  13.082 -0.7536  1.0195 -0.7109
  872TIP3    H224032   3.151   4.273  13.042 -0.4453  1.0248  0.3527
  873TIP3   OH224033   5.175   4.232   4.410 -0.1778 -0.1381  0.2269
  873TIP3    H124034   5.211   4.145   4.429 -0.6070  0.1447  2.4918
  873TIP3    H224035   5.100   4.215   4.352  1.2469 -1.0329 -1.4044
  874TIP3   OH224036   1.283   3.091   1.383 -0.1922  0.0058 -0.4218
  874TIP3    H124037   1.204   3.125   1.425 -0.1133  0.2940 -0.5063
  874TIP3    H224038   1.326   3.039   1.451 -0.2742  0.1365 -0.2695
  875TIP3   OH224039   3.203   3.918  13.275 -0.4115 -0.8862  0.4471
  875TIP3    H124040   3.162   3.999  13.305  0.1963 -0.6814  0.7296
  875TIP3    H224041   3.212   3.930  13.180  0.4692 -0.2660  0.6092
  876TIP3   OH224042   0.879   5.723   1.632 -0.4973  0.1420  0.2576
  876TIP3    H124043   0.837   5.808   1.618  1.7847  1.3089  0.3334
  876TIP3    H224044   0.940   5.714   1.559 -0.8637 -1.5598  0.1301
  877TIP3   OH224045   1.693   1.202  16.206  0.8452  0.8363 -0.0236
  877TIP3    H124046   1.648   1.276  16.165  1.2346  2.5537  2.6098
  877TIP3    H224047   1.626   1.161  16.261  1.3171  0.7623  0.4971
  878TIP3   OH224048   0.235   3.042  11.887 -0.7532  0.1006 -0.1479
  878TIP3    H124049   0.272   2.954  11.899 -1.7734 -0.4092 -0.6984
  878TIP3    H224050   0.229   3.077  11.975  3.9390  1.4330 -0.1854
  879TIP3   OH224051   1.931   5.133   2.943 -0.1020 -0.0807  0.1289
  879TIP3    H124052   1.964   5.070   3.007 -0.3886 -0.3304  0.0319
  879TIP3    H224053   1.924   5.215   2.993  1.3461  0.1558 -0.0435
  880TIP3   OH224054   5.892   2.075   4.066 -0.0260 -0.1279  0.0422
  880TIP3    H124055   5.915   2.031   3.984  1.4320  1.9812 -0.7064
  880TIP3    H224056   5.950   2.035   4.131 -0.0474 -0.6598 -0.2623
  881TIP3   OH224057   4.729   3.874  12.828  0.2414 -0.1856  0.2150
  881TIP3    H124058   4.793   3.908  12.891  0.4493 -0.4189  0.1281
  881TIP3    H224059   4.752   3.916  12.745  0.7347 -0.8381  0.0246
  882TIP3   OH224060   5.321   2.423   2.236  0.4613 -0.1376 -0.4541
  882TIP3    H124061   5.302   2.330   2.245  1.4838 -0.5484 -2.3478
  882TIP3    H224062   5.361   2.432   2.150 -1.5915  2.3963 -1.2157
  883TIP3   OH224063   4.044   0.862  17.201 -0.3756 -0.1395  0.3931
  883TIP3    H124064   3.992   0.820  17.270 -1.4935 -0.7343 -0.8020
  883TIP3    H224065   4.090   0.791  17.159 -0.4481  0.1053 -0.1055
  884TIP3   OH224066   0.309   2.702   4.590  0.0801 -0.0022 -0.2316
  884TIP3    H124067   0.329   2.699   4.684 -1.5465 -0.7099  0.1128
  884TIP3    H224068   0.320   2.612   4.560 -1.1537 -0.1350 -0.3212
  885TIP3   OH224069   4.329   2.542   0.754  0.4928  0.3940 -0.5048
  885TIP3    H124070   4.353   2.566   0.665 -1.7150 -2.5581 -1.9669
  885TIP3    H224071   4.239   2.573   0.764  0.1537 -0.7444  0.0961
  886TIP3   OH224072   2.063   0.818   0.034 -0.1579  0.4900 -0.0766
  886TIP3    H124073   2.000   0.748   0.021  0.5914 -0.5632  1.6849
  886TIP3    H224074   2.066   0.830   0.129  1.2032  1.5243 -0.2257
  887TIP3   OH224075   4.687   1.382  12.738 -0.0756  0.0625  0.5929
  887TIP3    H124076   4.681   1.386  12.642  1.7288  2.6351  0.5377
  887TIP3    H224077   4.702   1.290  12.757 -0.6176 -0.5087 -1.5795
  888TIP3   OH224078   1.140   2.450  10.735  0.8177 -0.4192 -0.7934
  888TIP3    H124079   1.223   2.410  10.759  0.5494 -0.6717 -0.2828
  888TIP3    H224080   1.151   2.543  10.756 -0.2194 -1.0073  2.5391
  889TIP3   OH224081   6.591   5.314  13.039 -0.2609  0.1728  0.5093
  889TIP3    H124082   6.623   5.303  12.949 -2.0285  0.0215 -0.1284
  889TIP3    H224083   6.670   5.328  13.091  0.8534 -0.5145 -0.9514
  890TIP3   OH224084   6.340   4.552   4.366 -0.3603  0.0314  0.3680
  890TIP3    H124085   6.290   4.613   4.421 -2.6286 -1.0980 -0.3863
  890TIP3    H224086   6.384   4.608   4.302  0.2210  1.1281  1.6780
  891TIP3   OH224087   5.036   4.008   1.495 -0.6147  0.0530 -0.0710
  891TIP3    H124088   4.978   4.073   1.534  0.3039  1.9493 -1.7269
  891TIP3    H224089   5.119   4.055   1.483 -0.0267 -1.3284 -1.5936
  892TIP3   OH224090   0.733   0.055  13.579 -0.6107  0.0877  0.6621
  892TIP3    H124091   0.638   0.046  13.568 -0.4281  0.4401 -1.5438
  892TIP3    H224092   0.764  -0.036  13.584 -0.9127 -0.0790 -0.2778
  893TIP3   OH224093   3.733   2.452  13.065 -0.5720 -0.5928 -0.2113
  893TIP3    H124094   3.708   2.520  13.002 -0.5874  0.8146  1.2626
  893TIP3    H224095   3.799   2.400  13.020 -0.6381  0.3344 -1.4050
  894TIP3   OH224096   4.963   5.210  17.091  0.2821 -0.1208 -0.1527
  894TIP3    H124097   5.025   5.277  17.118 -1.0510  0.2937  1.9539
  894TIP3    H224098   4.878   5.255  17.088 -0.4666 -1.4667  0.3198
  895TIP3   OH224099   4.824   3.590   0.095 -0.0828  0.3521  0.2961
  895TIP3    H124100   4.742   3.567   0.139  0.0487 -0.1327  0.2975
  895TIP3    H224101   4.861   3.506   0.068  0.3793  0.5692  0.2364
  896TIP3   OH224102   3.126   2.490  15.163 -0.2108  0.0557 -0.0152
  896TIP3    H124103   3.035   2.467  15.183 -0.3435 -1.1554 -1.8656
  896TIP3    H224104   3.123   2.583  15.140 -0.8889  0.1609  0.4940
  897TIP3   OH224105   0.347   3.889  14.391 -0.2523  0.0410 -0.2179
  897TIP3    H124106   0.336   3.829  14.317 -0.9925 -2.0645  1.5490
  897TIP3    H224107   0.426   3.939  14.370 -0.9304  0.0756 -2.8135
  898TIP3   OH224108   0.920   4.578  12.187 -0.3092 -0.3382 -0.1028
  898TIP3    H124109   0.874   4.658  12.211  0.8009  0.3160 -0.1511
  898TIP3    H224110   0.904   4.569  12.092  0.3464  0.3243 -0.2733
  899TIP3   OH224111   3.903   4.621  16.043 -0.0449 -0.0697  0.7341
  899TIP3    H124112   3.930   4.583  16.127 -1.0693  3.1590  2.5984
  899TIP3    H224113   3.971   4.685  16.023  0.0419 -0.6283 -0.7928
  900TIP3   OH224114   6.708   1.586   5.551  0.0655  0.8751  0.4817
  900TIP3    H124115   6.654   1.642   5.608 -3.3521 -1.9118  0.1648
  900TIP3    H224116   6.701   1.627   5.465 -2.0318  0.2676  0.3371
  901TIP3   OH224117   6.340   6.754  12.050 -0.0978 -0.4065 -0.5812
  901TIP3    H124118   6.375   6.801  11.974  0.3500 -0.0352 -0.1516
  901TIP3    H224119   6.249   6.782  12.056 -0.1863 -0.5868 -1.1016
  902TIP3   OH224120   1.468   5.253  15.778 -0.2208  0.1947  0.2600
  902TIP3    H124121   1.488   5.332  15.728 -2.3261  0.4658 -0.2245
  902TIP3    H224122   1.429   5.193  15.714  0.3598 -0.8217  0.8489
  903TIP3   OH224123   3.711   4.828   3.342 -0.2966  0.4606  0.4381
  903TIP3    H124124   3.641   4.894   3.335 -0.3520  0.5081  1.4039
  903TIP3    H224125   3.675   4.751   3.299 -1.3922  0.1339  1.9147
  904TIP3   OH224126   0.627   6.061  16.701  0.2716  0.3897 -0.2988
  904TIP3    H124127   0.546   6.109  16.685  0.3910  0.5280 -0.4928
  904TIP3    H224128   0.668   6.054  16.615  2.3640  3.7521  0.3048
  905TIP3   OH224129   1.382   3.453  16.747 -0.1721  0.3082 -0.4993
  905TIP3    H124130   1.330   3.382  16.711 -1.9174  0.8307  0.9612
  905TIP3    H224131   1.362   3.454  16.840  0.1497  2.4293 -0.4161
  906TIP3   OH224132   6.375   5.415   5.893  0.1814  0.3807  0.0440
  906TIP3    H124133   6.430   5.471   5.839  0.0265  0.0716 -0.4361
  906TIP3    H224134   6.290   5.458   5.893  0.8397  1.7579  2.1608
  907TIP3   OH224135   3.066   5.195  15.400 -0.0658 -0.2756  0.2414
  907TIP3    H124136   3.092   5.157  15.316 -0.5875 -1.2830  0.5292
  907TIP3    H224137   3.013   5.271  15.377  0.5332 -0.0249 -0.3334
  908TIP3   OH224138   6.427   2.036   1.192 -0.6460 -0.4227  0.1150
  908TIP3    H124139   6.355   2.045   1.255 -0.2062 -0.8444  0.6789
  908TIP3    H224140   6.485   2.109   1.212 -0.5167 -0.5448  0.1840
  909TIP3   OH224141   2.094   2.097  10.528  0.0785  0.0566 -0.6885
  909TIP3    H124142   2.090   2.143  10.445  0.8539  1.3821  0.0046
  909TIP3    H224143   2.004   2.097  10.560  0.0998  1.2540 -0.6104
  910TIP3   OH224144   0.555   1.499  16.276  0.1139 -0.4514 -0.1860
  910TIP3    H124145   0.618   1.546  16.331  0.2097  0.7445 -1.2906
  910TIP3    H224146   0.607   1.433  16.231  0.8410  1.2684 -1.9578
  911TIP3   OH224147   4.129   2.592   3.248  0.3667  0.9181 -0.2108
  911TIP3    H124148   4.082   2.523   3.295  0.4435  1.3878  0.5535
  911TIP3    H224149   4.179   2.545   3.181 -0.0298  0.2840 -0.0686
  912TIP3   OH224150   2.125   5.652  10.727 -0.4037 -0.6037  0.1764
  912TIP3    H124151   2.043   5.604  10.737 -1.0656 -0.0738 -2.3745
  912TIP3    H224152   2.185   5.611  10.791 -2.2640 -1.7858  1.2062
  913TIP3   OH224153   1.041   5.324   1.848  0.8133  0.2076 -0.2920
  913TIP3    H124154   0.996   5.243   1.872 -0.4533  0.4950 -1.6026
  913TIP3    H224155   1.134   5.304   1.859  0.4757 -1.1972  0.0866
  914TIP3   OH224156   0.610   1.405   5.281 -0.0675 -0.2528  0.0666
  914TIP3    H124157   0.553   1.445   5.215 -0.6312  1.1296  1.3835
  914TIP3    H224158   0.568   1.322   5.301 -0.7008 -0.0102 -0.2258
  915TIP3   OH224159   0.629   3.063   3.053 -0.2658 -0.3319  1.0285
  915TIP3    H124160   0.606   3.026   2.968  0.4602 -0.2458  0.7949
  915TIP3    H224161   0.667   3.148   3.033 -0.4381 -0.1500  1.4670
  916TIP3   OH224162   6.310   0.499   5.721  0.0728  0.0103  0.1350
  916TIP3    H124163   6.224   0.470   5.688  0.4550 -0.2577 -0.6363
  916TIP3    H224164   6.365   0.421   5.713  0.4927  0.3009  0.2433
  917TIP3   OH224165   3.902   2.669  14.478 -0.1104 -0.6558 -0.0969
  917TIP3    H124166   3.939   2.659  14.565  0.7515 -1.2788 -0.5286
  917TIP3    H224167   3.826   2.611  14.478 -0.8418  0.2909  0.6407
  918TIP3   OH224168   3.889   4.573   4.798  0.2245 -0.0739  0.1321
  918TIP3    H124169   3.910   4.658   4.761 -2.4739  0.3542 -0.5464
  918TIP3    H224170   3.873   4.517   4.722  3.4155 -1.6193  0.5411
  919TIP3   OH224171   6.454   2.773  15.082  0.3653  0.6572  0.5399
  919TIP3    H124172   6.508   2.838  15.126  0.7372  1.0108 -0.4196
  919TIP3    H224173   6.371   2.773  15.130  1.0516  0.4217  1.7455
  920TIP3   OH224174   5.118   0.436   1.218  0.3506 -0.5979  0.6057
  920TIP3    H124175   5.115   0.531   1.212  1.4757 -0.6207 -0.5998
  920TIP3    H224176   5.099   0.405   1.129 -1.3711 -1.5435  1.2868
  921TIP3   OH224177   2.996   5.862  17.087 -0.3849 -0.1206  0.6121
  921TIP3    H124178   3.082   5.825  17.068 -0.2635  0.6182 -0.3724
  921TIP3    H224179   2.980   5.842  17.179  0.9313 -0.0892  0.8561
  922TIP3   OH224180   6.447   4.841  11.911 -0.4049  0.5460 -0.1681
  922TIP3    H124181   6.477   4.907  11.849  0.6333  1.7969  1.6266
  922TIP3    H224182   6.508   4.769  11.901  0.4522  1.2158  0.2280
  923TIP3   OH224183   1.476   6.057  12.608 -0.1386  0.3322  0.0560
  923TIP3    H124184   1.543   6.090  12.548 -0.2922  0.1078 -0.2415
  923TIP3    H224185   1.484   5.961  12.602 -1.9179  0.2587 -1.6183
  924TIP3   OH224186   4.636   2.938   1.995  0.9099 -0.1129  0.4471
  924TIP3    H124187   4.729   2.959   1.986  0.7102  0.5643 -0.0859
  924TIP3    H224188   4.594   3.023   2.008  0.1585 -0.2465 -1.1114
  925TIP3   OH224189   4.991   3.205   4.073  0.4882  0.0089  0.1627
  925TIP3    H124190   4.931   3.165   4.135 -0.0491  0.3278 -0.1451
  925TIP3    H224191   4.942   3.211   3.991  1.0897 -0.1407 -0.2185
  926TIP3   OH224192   3.192   1.129  14.887 -0.7630 -0.1201 -0.2932
  926TIP3    H124193   3.240   1.182  14.823 -0.5229  0.9017  0.7052
  926TIP3    H224194   3.100   1.144  14.867 -0.7090  1.1293  0.3091
  927TIP3   OH224195   0.341   2.208  17.199 -0.4469 -0.7010  0.2873
  927TIP3    H124196   0.287   2.240  17.271  0.3983  3.0435 -0.5989
  927TIP3    H224197   0.431   2.220  17.230 -0.0933 -0.9558 -0.6317
  928TIP3   OH224198   4.260   3.805   5.437  0.3995  0.5087 -0.3033
  928TIP3    H124199   4.247   3.724   5.386  0.8475  1.2797 -1.6447
  928TIP3    H224200   4.232   3.781   5.526 -0.4953 -0.8217 -0.9182
  929TIP3   OH224201   3.542   3.774  12.001 -0.2861  0.2200  0.5149
  929TIP3    H124202   3.534   3.867  12.020 -0.7749  0.3342 -0.2358
  929TIP3    H224203   3.634   3.762  11.978 -0.1636  0.4669  0.8788
  930TIP3   OH224204   4.692   1.565   1.524  0.2515 -0.4251 -0.0204
  930TIP3    H124205   4.720   1.626   1.593 -1.6291 -0.6125  0.9268
  930TIP3    H224206   4.610   1.602   1.491 -0.3856 -1.9047 -0.1321
  931TIP3   OH224207   3.311   2.910  14.413 -0.2182  0.0140 -0.4555
  931TIP3    H124208   3.218   2.927  14.428 -0.0439 -1.0966  2.1393
  931TIP3    H224209   3.313   2.829  14.361 -0.7049 -0.2330 -0.0923
  932TIP3   OH224210   3.168   3.354   1.260 -0.2897 -0.3653  0.5972
  932TIP3    H124211   3.188   3.446   1.276 -0.0407 -0.2123 -0.5692
  932TIP3    H224212   3.205   3.336   1.173 -0.8047 -1.4207  0.5886
  933TIP3   OH224213   2.448   0.943  13.312 -0.6192  0.1885  0.3960
  933TIP3    H124214   2.395   0.912  13.239 -0.8618 -0.5907  0.8984
  933TIP3    H224215   2.384   0.975  13.376 -0.3857  1.5910 -0.0393
  934TIP3   OH224216   0.989   3.717   5.270 -0.1692 -1.2048  0.3370
  934TIP3    H124217   1.051   3.753   5.334  0.6033 -1.9805  0.0410
  934TIP3    H224218   0.946   3.645   5.317 -0.7798 -0.7333  0.5076
  935TIP3   OH224219   2.508   5.564  15.164  0.1438 -0.1056  0.3992
  935TIP3    H124220   2.517   5.643  15.218  0.3509 -0.2644  0.5982
  935TIP3    H224221   2.546   5.494  15.218  2.5614  0.1375 -0.9236
  936TIP3   OH224222   2.718   1.775   5.405  0.4858 -0.1476  0.1818
  936TIP3    H124223   2.771   1.759   5.327 -1.1366  0.2531 -1.0351
  936TIP3    H224224   2.778   1.764   5.478  1.3054 -3.7036 -0.9477
  937TIP3   OH224225   2.306   1.351  16.750 -0.5045 -0.5124 -0.1913
  937TIP3    H124226   2.212   1.333  16.757 -0.1421 -1.4238  3.4310
  937TIP3    H224227   2.343   1.273  16.708 -0.8223 -2.1877  2.5136
  938TIP3   OH224228   6.428   0.323   4.914 -0.0342  0.7013  0.0675
  938TIP3    H124229   6.483   0.358   4.983  0.0825  1.2670 -0.3072
  938TIP3    H224230   6.472   0.348   4.833  1.2948 -2.3341 -0.1999
  939TIP3   OH224231   5.018   0.928   0.971  0.0907  0.9164 -0.4316
  939TIP3    H124232   5.086   0.861   0.977 -0.9685 -0.1909 -0.6123
  939TIP3    H224233   4.950   0.888   0.916 -2.1569  0.7543  2.3517
  940TIP3   OH224234   5.146   5.546  12.366  0.2594  0.4718  0.0290
  940TIP3    H124235   5.111   5.457  12.377 -0.0886  0.5916 -0.0768
  940TIP3    H224236   5.089   5.600  12.421 -0.3087  0.8036 -0.8682
  941TIP3   OH224237   2.570   0.784  10.813  0.3659 -0.3793 -0.3177
  941TIP3    H124238   2.577   0.773  10.907  0.8900 -0.4471 -0.3636
  941TIP3    H224239   2.476   0.788  10.796  0.2819 -0.0124  0.2447
  942TIP3   OH224240   4.226   2.729  14.536 -0.2813 -0.1824  0.2248
  942TIP3    H124241   4.283   2.656  14.510 -0.3633 -0.0165 -0.4115
  942TIP3    H224242   4.235   2.793  14.466 -0.9814 -0.0015  0.2982
  943TIP3   OH224243   0.809   5.356  13.284  0.1809 -0.0117 -0.1652
  943TIP3    H124244   0.877   5.288  13.286  0.6860  0.4606 -0.9052
  943TIP3    H224245   0.728   5.308  13.267  0.2167 -0.6559  1.3917
  944TIP3   OH224246   2.682   3.318  16.047 -0.2764 -0.0758 -0.7550
  944TIP3    H124247   2.709   3.301  16.137  0.1334  2.2261 -0.4076
  944TIP3    H224248   2.587   3.323  16.051 -0.5689 -3.9175 -1.2048
  945TIP3   OH224249   5.794   1.073  13.166 -0.0263  1.2200 -0.4539
  945TIP3    H124250   5.851   0.996  13.178  0.8721  1.9602  0.0777
  945TIP3    H224251   5.854   1.144  13.144 -0.9191  1.6403 -1.5802
  946TIP3   OH224252   6.382   1.881  15.966 -0.7428  0.1317  0.2210
  946TIP3    H124253   6.442   1.809  15.949  0.4323  0.4727  2.5402
  946TIP3    H224254   6.435   1.960  15.951 -0.7495  0.4418  1.7072
  947TIP3   OH224255   1.384   3.090   6.242  0.3315  0.1827  0.9916
  947TIP3    H124256   1.355   3.094   6.334 -1.7887 -1.0984  0.4148
  947TIP3    H224257   1.344   3.168   6.202 -0.0442 -0.0985  0.8156
  948TIP3   OH224258   5.198   3.039  12.230  0.4886 -0.0600 -0.7101
  948TIP3    H124259   5.280   3.067  12.270 -0.1868 -1.6376  1.8617
  948TIP3    H224260   5.181   3.106  12.163  3.3034  0.8594 -0.5837
  949TIP3   OH224261   3.067   4.314  14.079  0.1286 -0.1417 -0.3114
  949TIP3    H124262   2.983   4.269  14.075 -1.2166  2.2400 -0.2055
  949TIP3    H224263   3.086   4.337  13.988  0.6730 -0.6688 -0.3346
  950TIP3   OH224264   4.231   4.205   1.087 -0.4122  0.4807  0.9444
  950TIP3    H124265   4.305   4.155   1.052  0.6754  1.7586  1.3887
  950TIP3    H224266   4.174   4.138   1.126  0.4094 -0.5319  0.4573
  951TIP3   OH224267   4.090   1.154  16.513 -0.0125  0.1640  0.2299
  951TIP3    H124268   4.083   1.083  16.450 -0.6674  0.9313 -0.5689
  951TIP3    H224269   4.176   1.194  16.495  0.0483  0.0267  0.2129
  952TIP3   OH224270   4.123   4.687  16.604  0.1810 -0.2717  0.0762
  952TIP3    H124271   4.200   4.633  16.587 -0.7283 -1.8335  0.8379
  952TIP3    H224272   4.155   4.757  16.661  1.7230  0.9924 -2.2294
  953TIP3   OH224273   2.441   3.533   3.079 -0.3047 -0.1823  0.1966
  953TIP3    H124274   2.534   3.545   3.061 -0.3298 -0.6798 -0.2941
  953TIP3    H224275   2.439   3.490   3.165 -0.1217  0.7437  0.6662
  954TIP3   OH224276   2.830   2.296   5.517  0.4109 -0.2539  0.6804
  954TIP3    H124277   2.895   2.251   5.465  1.2084  0.9892  0.5751
  954TIP3    H224278   2.879   2.333   5.590 -0.5389 -1.1664  1.8016
  955TIP3   OH224279   4.898   6.676   1.545  0.2799 -0.3076  0.1580
  955TIP3    H124280   4.989   6.647   1.541  0.5733  0.1124  2.6482
  955TIP3    H224281   4.897   6.742   1.615 -1.9986 -0.5770  0.4327
  956TIP3   OH224282   4.667   3.387  16.711  0.3711 -0.0569  0.0234
  956TIP3    H124283   4.713   3.303  16.701 -0.0388 -0.0184 -2.4290
  956TIP3    H224284   4.736   3.453  16.711  0.5825 -0.2782  0.3408
  957TIP3   OH224285   3.663   2.557  10.896 -0.3677 -0.0401 -0.7604
  957TIP3    H124286   3.675   2.463  10.910 -0.7557 -0.6112 -3.8869
  957TIP3    H224287   3.579   2.564  10.852 -1.1315  1.9597  0.9352
  958TIP3   OH224288   1.269   6.208  15.095  0.0859 -0.5561 -0.4801
  958TIP3    H124289   1.323   6.265  15.040 -0.7924 -0.6936 -1.4831
  958TIP3    H224290   1.332   6.148  15.136  1.0528  1.2220  0.7429
  959TIP3   OH224291   3.864   1.495   0.807 -0.0188 -0.0691 -0.6797
  959TIP3    H124292   3.784   1.495   0.754  0.0673 -0.7814 -0.8231
  959TIP3    H224293   3.921   1.560   0.764 -0.4866  0.3822 -0.6212
  960TIP3   OH224294   2.666   3.669   3.376  0.1350  0.0871 -0.6657
  960TIP3    H124295   2.752   3.640   3.406  1.1208  3.8120  0.3647
  960TIP3    H224296   2.685   3.734   3.308 -1.9410 -0.3587 -1.7238
  961TIP3   OH224297   6.708   5.863   3.050 -0.3423  0.1171  0.5144
  961TIP3    H124298   6.644   5.933   3.061  1.2435  1.6421  0.0978
  961TIP3    H224299   6.719   5.855   2.955 -0.1540 -0.3824  0.5746
  962TIP3   OH224300   2.221   5.931  13.165 -0.5902  0.2384  0.0534
  962TIP3    H124301   2.150   5.872  13.139 -0.8465  0.1046  1.0434
  962TIP3    H224302   2.191   6.017  13.138 -1.2860  0.2280  0.7547
  963TIP3   OH224303   4.404   4.747  16.700 -0.2717  0.3031  0.4220
  963TIP3    H124304   4.460   4.790  16.765  0.5934  0.5832 -0.4921
  963TIP3    H224305   4.410   4.802  16.623 -1.7845  0.2898  0.2869
  964TIP3   OH224306   4.000   4.738   2.030  0.0938 -0.0537  0.1749
  964TIP3    H124307   4.026   4.675   1.963 -0.8015 -0.1162 -0.1298
  964TIP3    H224308   3.978   4.685   2.106  0.9280  0.0047  0.4545
  965TIP3   OH224309   2.187   3.716  13.200  0.1753  0.7995  0.4079
  965TIP3    H124310   2.210   3.650  13.265 -0.9475 -1.1154 -1.0835
  965TIP3    H224311   2.132   3.779  13.248  3.3551  2.1443  2.4808
  966TIP3   OH224312   0.862   4.585   4.214  0.0215 -0.5909 -0.3188
  966TIP3    H124313   0.840   4.504   4.261  1.0202 -0.8920 -0.3381
  966TIP3    H224314   0.956   4.597   4.232 -0.7078  2.0832  1.9799
  967TIP3   OH224315   2.711   5.818   3.362 -0.0518  0.0092  1.0237
  967TIP3    H124316   2.667   5.837   3.279 -0.4879  1.7960  1.6300
  967TIP3    H224317   2.759   5.737   3.346  0.3707  0.6638 -1.1653
  968TIP3   OH224318   2.720   1.863  15.159  0.2900 -0.0754 -0.3202
  968TIP3    H124319   2.794   1.829  15.209 -0.1751 -0.3299  0.2068
  968TIP3    H224320   2.734   1.958  15.156 -1.0378  0.2918  2.6286
  969TIP3   OH224321   4.535   3.743  11.818  0.4161 -0.0240 -0.0646
  969TIP3    H124322   4.568   3.821  11.863 -0.4866 -0.2711  1.0497
  969TIP3    H224323   4.556   3.671  11.877  1.0990 -0.6078 -1.0147
  970TIP3   OH224324   6.726   4.083   6.096  0.5494 -0.1088  0.0877
  970TIP3    H124325   6.794   4.026   6.060  1.1944  1.6668 -1.5866
  970TIP3    H224326   6.649   4.064   6.043  0.5291 -0.0571  0.0988
  971TIP3   OH224327   2.410   0.890   5.565 -1.0949 -0.2711  0.3815
  971TIP3    H124328   2.366   0.971   5.541 -0.4604 -0.3972 -1.2694
  971TIP3    H224329   2.433   0.849   5.481  1.0733 -0.8006  1.1942
  972TIP3   OH224330   2.270   3.329  10.795 -0.1424 -0.1358  0.4680
  972TIP3    H124331   2.258   3.260  10.730  0.5140  1.8571 -1.8947
  972TIP3    H224332   2.352   3.307  10.838  0.0702 -0.8411 -0.2808
  973TIP3   OH224333   4.629   5.349  12.811 -0.0654 -0.1323 -0.0003
  973TIP3    H124334   4.585   5.353  12.896  0.3600 -0.1640  0.2257
  973TIP3    H224335   4.573   5.293  12.758  0.1245 -0.8574  0.5491
  974TIP3   OH224336   5.743   6.007   1.530  0.1777  0.0186 -0.1075
  974TIP3    H124337   5.789   6.090   1.540  1.9074 -0.7269 -1.5687
  974TIP3    H224338   5.664   6.029   1.481  0.2522  0.9197  0.1752
  975TIP3   OH224339   1.724   5.347  14.549  0.1457  0.3256  0.1736
  975TIP3    H124340   1.637   5.356  14.511  0.4389  2.0135 -0.1404
  975TIP3    H224341   1.709   5.306  14.634 -1.0271  1.1987  0.4052
  976TIP3   OH224342   3.739   1.042  11.207 -0.0998  0.5938  0.0410
  976TIP3    H124343   3.665   0.983  11.224 -0.4744  1.2343  0.6844
  976TIP3    H224344   3.717   1.084  11.124  1.1876 -1.7116 -1.5401
  977TIP3   OH224345   2.628   0.860   3.861 -0.6242 -0.2059  0.4968
  977TIP3    H124346   2.544   0.822   3.836 -0.6207  0.8538 -1.2248
  977TIP3    H224347   2.693   0.797   3.831 -0.6727  0.5361 -1.2050
  978TIP3   OH224348   4.797   3.876  11.741 -0.0324  0.4440  0.2747
  978TIP3    H124349   4.757   3.897  11.657 -0.5839 -2.1198 -0.1599
  978TIP3    H224350   4.887   3.906  11.733 -0.2823  0.8968 -0.9715
  979TIP3   OH224351   1.451   0.557   0.050 -0.4729  0.0511 -0.4695
  979TIP3    H124352   1.470   0.641   0.010  1.0639 -0.0296  0.0326
  979TIP3    H224353   1.504   0.556   0.130 -1.5935 -0.7935  0.2799
  980TIP3   OH224354   6.383   1.554  16.543 -0.1053  0.4226 -0.7446
  980TIP3    H124355   6.352   1.531  16.456  0.4794 -1.9323 -0.3551
  980TIP3    H224356   6.305   1.558  16.597 -0.1737 -1.1621 -0.7151
  981TIP3   OH224357   0.225   4.901   0.742 -0.3529  0.2779  0.0006
  981TIP3    H124358   0.145   4.848   0.744 -0.0179 -0.2848 -1.0947
  981TIP3    H224359   0.209   4.971   0.805 -2.4345  1.1915 -1.4677
  982TIP3   OH224360   5.952   0.080  15.720 -0.1993  0.0933  0.0294
  982TIP3    H124361   5.884   0.015  15.738 -0.1449 -0.1385 -0.5829
  982TIP3    H224362   5.912   0.139  15.656 -1.6776  2.9886  3.4202
  983TIP3   OH224363   0.427   4.720  11.847  0.3473 -0.2864 -0.1394
  983TIP3    H124364   0.370   4.689  11.776  0.1592 -1.7260  0.6417
  983TIP3    H224365   0.439   4.644  11.903  2.4255  0.2220  0.1222
  984TIP3   OH224366   1.245   6.751   1.142  0.1935  0.5059  0.4966
  984TIP3    H124367   1.235   6.846   1.144  0.1701  0.4898  1.5685
  984TIP3    H224368   1.320   6.734   1.200  1.3638  0.0171 -1.1322
  985TIP3   OH224369   4.235   2.045   4.093  0.0565  0.0140  0.2162
  985TIP3    H124370   4.284   1.998   4.026 -0.7475 -0.3076 -0.1440
  985TIP3    H224371   4.241   2.137   4.068  0.1698 -0.0588 -0.0206
  986TIP3   OH224372   2.649   5.065   5.150  0.5949 -0.1338  0.4216
  986TIP3    H124373   2.592   5.086   5.224  0.3379  0.0294  0.1791
  986TIP3    H224374   2.676   5.150   5.115  1.2945 -0.2074  0.7661
  987TIP3   OH224375   0.058   1.815  16.375  0.1988  0.3191  0.0056
  987TIP3    H124376   0.087   1.724  16.382  2.2524  1.0949  2.2993
  987TIP3    H224377  -0.036   1.812  16.395  0.4645 -1.1610  1.1024
  988TIP3   OH224378   4.093   0.434  12.725 -0.0021  0.0705  0.6011
  988TIP3    H124379   4.075   0.364  12.787  0.8271 -0.1126  0.6302
  988TIP3    H224380   4.124   0.507  12.779  0.6409 -0.0625  0.4093
  989TIP3   OH224381   1.550   2.409   5.474 -0.4135 -0.3577 -0.4496
  989TIP3    H124382   1.568   2.493   5.516  0.7114 -0.1744 -1.2730
  989TIP3    H224383   1.628   2.391   5.422 -1.4655 -0.9095 -1.8968
  990TIP3   OH224384   0.056   6.077  14.085 -0.5888 -0.1521 -0.1101
  990TIP3    H124385   0.078   5.986  14.063 -2.3739 -0.4877 -0.5583
  990TIP3    H224386   0.006   6.071  14.166 -2.5800  0.2125 -1.2709
  991TIP3   OH224387   5.451   0.634  10.911 -0.0245 -0.2326 -0.2753
  991TIP3    H124388   5.368   0.592  10.935 -0.5269  0.9509  0.1144
  991TIP3    H224389   5.489   0.576  10.845 -0.9472 -1.0244 -0.1268
  992TIP3   OH224390   2.254   3.875  11.562  0.2039 -0.2977 -0.4428
  992TIP3    H124391   2.303   3.931  11.621 -2.7373 -0.0175  1.8530
  992TIP3    H224392   2.283   3.786  11.583 -0.9909 -0.2233  1.6810
  993TIP3   OH224393   4.888   2.395  10.621  0.6133 -0.7191 -0.2958
  993TIP3    H124394   4.919   2.462  10.561  1.2676 -0.9160 -0.1901
  993TIP3    H224395   4.795   2.413  10.632  0.9351  0.6229  0.3145
  994TIP3   OH224396   2.428   2.020  12.666 -0.1229 -0.2207 -0.0760
  994TIP3    H124397   2.356   2.005  12.727 -1.5243  1.7269 -1.2145
  994TIP3    H224398   2.454   2.111  12.681  0.1565 -0.0222 -1.6757
  995TIP3   OH224399   5.871   1.884   3.865 -0.2153 -0.1255 -0.6283
  995TIP3    H124400   5.956   1.882   3.821  0.3958 -0.1285  0.5340
  995TIP3    H224401   5.822   1.812   3.826 -0.4122  1.1061 -2.7403
  996TIP3   OH224402   2.284   6.449  15.356 -0.6600 -0.1592  0.6144
  996TIP3    H124403   2.249   6.459  15.445 -0.5716 -1.5704  0.8163
  996TIP3    H224404   2.215   6.483  15.299 -0.6263  0.9671  1.2250
  997TIP3   OH224405   3.913   0.595   0.444 -0.0201 -0.0693  0.2603
  997TIP3    H124406   3.961   0.630   0.519 -0.6222 -0.4044  0.8076
  997TIP3    H224407   3.823   0.586   0.475 -0.2340 -0.3919 -0.4428
  998TIP3   OH224408   0.303   6.251   0.890  0.1417  0.2965 -0.8045
  998TIP3    H124409   0.368   6.180   0.888  0.1094  0.2987 -2.4781
  998TIP3    H224410   0.307   6.289   0.802 -2.0048  0.4051 -0.8674
  999TIP3   OH224411   5.878   6.074  12.049  0.4278  0.0252 -0.0863
  999TIP3    H124412   5.801   6.126  12.029  0.0599 -0.6495 -0.4156
  999TIP3    H224413   5.861   5.988  12.011  1.0779 -0.3127  0.3606
 1000TIP3   OH224414   4.939   4.670   4.279  0.1893 -0.6347 -1.0130
 1000TIP3    H124415   4.922   4.715   4.196 -0.3293  0.3860 -0.3770
 1000TIP3    H224416   4.969   4.740   4.338 -3.7033 -0.4635  0.9190
 1001TIP3   OH224417   1.073   1.213  15.843 -0.4524  0.6049  0.3556
 1001TIP3    H124418   1.010   1.143  15.858 -0.7623  1.1205  1.4624
 1001TIP3    H224419   1.157   1.178  15.874 -0.1860 -0.0473 -1.0360
 1002TIP3   OH224420   1.589   1.246   0.746  0.1217 -0.1371 -0.3351
 1002TIP3    H124421   1.577   1.208   0.833 -1.3229  0.4914 -0.2440
 1002TIP3    H224422   1.571   1.174   0.686  0.3417 -0.3697 -0.1244
 1003TIP3   OH224423   4.372   6.430   1.088  0.0662 -0.4005  0.0167
 1003TIP3    H124424   4.303   6.372   1.056  0.5763  0.1087 -2.1546
 1003TIP3    H224425   4.325   6.500   1.133 -0.8705 -0.1332 -1.3148
 1004TIP3   OH224426   1.196   5.353   5.159  0.9527  0.3282 -0.4208
 1004TIP3    H124427   1.190   5.393   5.072  0.1404  0.2292 -0.4144
 1004TIP3    H224428   1.213   5.427   5.218  0.6368  0.5048 -0.5529
 1005TIP3   OH224429   2.552   0.030   0.162  0.9457  0.1963 -0.6340
 1005TIP3    H124430   2.549   0.025   0.066  0.8204 -1.2043 -0.5678
 1005TIP3    H224431   2.464   0.059   0.187  0.7466 -0.1628 -0.9094
 1006TIP3   OH224432   6.279   2.109   3.551  0.1972  0.7070  0.1193
 1006TIP3    H124433   6.348   2.168   3.584  0.2166  0.4602  0.5187
 1006TIP3    H224434   6.320   2.064   3.477  0.6573  0.1394  0.7139
 1007TIP3   OH224435   5.340   0.260  15.033 -0.6495  0.0308  0.1713
 1007TIP3    H124436   5.430   0.285  15.054 -0.4694 -0.1279 -0.3832
 1007TIP3    H224437   5.288   0.337  15.055 -0.0723  1.0256 -1.7588
 1008TIP3   OH224438   3.106   4.952  15.501 -0.2943  0.7524 -0.1151
 1008TIP3    H124439   3.026   4.909  15.528 -0.5625  2.0453  1.2513
 1008TIP3    H224440   3.079   5.042  15.481  0.7568  1.1415  0.1672
 1009TIP3   OH224441   0.080   1.625   3.371  0.2283 -0.5575  0.2130
 1009TIP3    H124442   0.170   1.647   3.392  0.4221  0.3718 -1.4592
 1009TIP3    H224443   0.059   1.551   3.428  1.7344 -0.2043  1.2604
 1010TIP3   OH224444   2.883   3.897   0.430  0.5098 -0.0894 -0.1180
 1010TIP3    H124445   2.852   3.885   0.519 -1.2587 -0.8581 -0.8180
 1010TIP3    H224446   2.829   3.838   0.377  2.3204 -0.5361 -1.5529
 1011TIP3   OH224447   5.220   1.413  15.420  0.1819 -0.2500 -0.6676
 1011TIP3    H124448   5.181   1.421  15.508 -0.8634  0.6839 -1.1947
 1011TIP3    H224449   5.286   1.345  15.429 -1.1278 -1.4134  0.4232
 1012TIP3   OH224450   3.348   4.845   1.866  0.3869 -0.0327 -0.3237
 1012TIP3    H124451   3.322   4.811   1.781  0.4545 -0.8831 -0.0105
 1012TIP3    H224452   3.269   4.887   1.900  0.5021  0.7416 -1.0165
 1013TIP3   OH224453   3.151   0.098  15.242 -0.2452  0.1426  0.1274
 1013TIP3    H124454   3.202   0.071  15.318  0.1866 -0.4085 -0.3574
 1013TIP3    H224455   3.067   0.125  15.279 -0.0587 -0.1730  0.7988
 1014TIP3   OH224456   1.142   4.565  13.802 -0.2797  0.0244 -0.0321
 1014TIP3    H124457   1.099   4.570  13.716 -0.0973  1.1102 -0.0644
 1014TIP3    H224458   1.075   4.593  13.864 -0.0552  0.3252  0.0691
 1015TIP3   OH224459   0.341   1.644   1.566 -0.2415  0.2911 -0.0655
 1015TIP3    H124460   0.333   1.596   1.483  0.4800 -1.0004  0.5951
 1015TIP3    H224461   0.432   1.630   1.593 -0.1979  1.5202  0.4648
 1016TIP3   OH224462   1.310   5.514  14.238 -0.4582 -0.4103 -0.1349
 1016TIP3    H124463   1.232   5.475  14.278 -0.5137 -0.1000  0.0583
 1016TIP3    H224464   1.325   5.462  14.159 -0.9417 -0.3834 -0.2441
 1017TIP3   OH224465   0.270   0.853  15.942 -0.3140 -0.7704  0.3056
 1017TIP3    H124466   0.340   0.788  15.933  0.0285 -0.4917  1.0128
 1017TIP3    H224467   0.312   0.931  15.977 -0.9846 -0.6101  0.7666
 1018TIP3   OH224468   0.562   1.493  16.713  0.8459 -0.4343 -0.0058
 1018TIP3    H124469   0.503   1.446  16.654  0.3002  0.8035 -0.4538
 1018TIP3    H224470   0.504   1.542  16.771  1.4191  2.2717 -1.6453
 1019TIP3   OH224471   3.781   5.398  16.121 -0.8800  0.5105 -0.5430
 1019TIP3    H124472   3.800   5.315  16.079  0.3217  1.6550 -2.3473
 1019TIP3    H224473   3.711   5.436  16.068 -2.1349  0.2252  0.8696
 1020TIP3   OH224474   5.467   5.185  15.117 -0.6519  0.2008 -0.3334
 1020TIP3    H124475   5.488   5.106  15.067 -1.9555 -1.3954  1.5698
 1020TIP3    H224476   5.435   5.247  15.051  3.0274  0.1943 -2.2727
 1021TIP3   OH224477   6.386   1.223  15.414 -0.2916 -0.1345 -0.6763
 1021TIP3    H124478   6.435   1.239  15.495  0.1656 -0.8151 -0.8186
 1021TIP3    H224479   6.337   1.304  15.400  0.0763  0.2059 -0.0309
 1022TIP3   OH224480   4.892   2.634  10.485  0.4627  0.1264 -0.5835
 1022TIP3    H124481   4.842   2.715  10.475 -0.7339 -0.6118 -0.5777
 1022TIP3    H224482   4.968   2.660  10.538 -2.3147  0.3047  3.6052
 1023TIP3   OH224483   2.459   0.456   1.611 -0.1894 -0.8475  0.1070
 1023TIP3    H124484   2.509   0.432   1.533  0.1857  0.5087 -0.0671
 1023TIP3    H224485   2.438   0.549   1.600 -2.4160 -1.2778  0.3491
 1024TIP3   OH224486   6.148   2.819  15.680 -0.1582 -0.4530  0.4456
 1024TIP3    H124487   6.127   2.878  15.608 -0.5510  1.0328  1.7414
 1024TIP3    H224488   6.112   2.862  15.757  0.1066 -2.0955  1.5138
 1025TIP3   OH224489   0.057   2.091  15.924  0.6661  0.1390 -0.3202
 1025TIP3    H124490   0.130   2.040  15.957  0.0572  0.1148  1.0080
 1025TIP3    H224491   0.029   2.145  15.998 -1.0262 -0.2856 -0.6260
 1026TIP3   OH224492   2.462   1.557   6.560 -0.4045 -0.6211 -0.2568
 1026TIP3    H124493   2.464   1.465   6.535  1.3146 -0.4856 -0.6789
 1026TIP3    H224494   2.520   1.600   6.497  1.2657  0.2626  1.8312
 1027TIP3   OH224495   2.982   4.162   4.152  0.0766 -0.2958  0.2695
 1027TIP3    H124496   2.894   4.175   4.117  0.7175  2.9974 -0.3083
 1027TIP3    H224497   2.981   4.074   4.189 -3.3223 -0.4600 -0.0974
 1028TIP3   OH224498   6.635   0.914   2.669  0.3373 -0.1319 -0.1719
 1028TIP3    H124499   6.566   0.967   2.630 -0.9335 -0.1626  1.9409
 1028TIP3    H224500   6.624   0.827   2.631 -0.6209 -0.0637 -0.0513
 1029TIP3   OH224501   5.143   2.989   5.277 -0.9290  0.2951  0.8385
 1029TIP3    H124502   5.173   2.997   5.186 -0.4643 -1.1386  0.8493
 1029TIP3    H224503   5.160   3.074   5.316  2.5698 -0.2832  0.6637
 1030TIP3   OH224504   6.588   3.599   0.525 -0.0091 -0.3144 -0.0280
 1030TIP3    H124505   6.616   3.691   0.517 -0.4792 -0.1698 -0.0381
 1030TIP3    H224506   6.645   3.563   0.593 -1.9115  0.8493  2.2876
 1031TIP3   OH224507   4.529   3.288  13.817 -0.3689 -0.1426 -0.2763
 1031TIP3    H124508   4.616   3.267  13.851 -0.2704  0.1267 -0.3641
 1031TIP3    H224509   4.490   3.203  13.797  0.4188 -0.2118 -1.5886
 1032TIP3   OH224510   4.929   4.405   6.751 -0.3896  0.3291 -0.5119
 1032TIP3    H124511   5.023   4.409   6.735 -0.3147 -0.6864 -0.3675
 1032TIP3    H224512   4.907   4.491   6.787  0.4996  0.5424 -0.4643
 1033TIP3   OH224513   4.118   4.270  11.119 -0.2178 -0.3142 -0.3119
 1033TIP3    H124514   4.168   4.329  11.176 -1.7328  0.6777  0.0337
 1033TIP3    H224515   4.139   4.299  11.030 -0.0010 -0.0374 -0.1734
 1034TIP3   OH224516   1.248   3.141   5.550 -0.3961 -0.2334  0.5174
 1034TIP3    H124517   1.268   3.219   5.602  0.2436  0.3637 -0.6001
 1034TIP3    H224518   1.303   3.150   5.472  0.7166 -2.5059  1.0113
 1035TIP3   OH224519   4.929   5.036  15.504 -0.2618 -0.3678 -0.5354
 1035TIP3    H124520   5.021   5.060  15.513 -0.4144 -0.0478  0.2928
 1035TIP3    H224521   4.927   4.971  15.434  0.8307 -1.7028  0.6379
 1036TIP3   OH224522   5.000   2.182  17.064 -0.4878  0.0692  0.0882
 1036TIP3    H124523   5.083   2.137  17.046 -1.5221 -1.1917 -1.6487
 1036TIP3    H224524   5.025   2.273  17.082  1.5515 -0.9469  2.7460
 1037TIP3   OH224525   6.111   3.291   6.103  0.4711  0.1298 -0.3040
 1037TIP3    H124526   6.100   3.206   6.146 -1.2267 -0.7695 -2.4433
 1037TIP3    H224527   6.138   3.350   6.174 -0.4850 -1.7078  1.6392
 1038TIP3   OH224528   3.309   0.388  13.723  0.2593  0.3464 -0.1365
 1038TIP3    H124529   3.369   0.456  13.753  1.9557 -0.8965 -0.6247
 1038TIP3    H224530   3.280   0.345  13.803 -0.5875  1.4426  0.1568
 1039TIP3   OH224531   1.370   2.023   4.618  0.2433  0.0732  0.1971
 1039TIP3    H124532   1.426   2.029   4.541 -0.0457  1.2631  0.0585
 1039TIP3    H224533   1.304   2.091   4.605 -0.5134 -0.5163  0.9274
 1040TIP3   OH224534   6.018   2.382   6.176  0.0371  0.1368 -0.3559
 1040TIP3    H124535   6.113   2.378   6.167 -0.0468  1.9250 -2.4984
 1040TIP3    H224536   5.986   2.301   6.134  0.6332 -1.1796  1.6409
 1041TIP3   OH224537   3.985   2.957   5.061  0.1815  0.0106  0.0433
 1041TIP3    H124538   4.035   2.990   4.986 -2.5096  0.5082 -1.5994
 1041TIP3    H224539   3.963   2.867   5.038 -2.1169  0.6934 -0.5956
 1042TIP3   OH224540   3.516   5.839  12.105 -0.8729  0.0304 -1.2025
 1042TIP3    H124541   3.519   5.929  12.073 -2.3513  0.9167  1.0632
 1042TIP3    H224542   3.426   5.827  12.135 -0.4656 -1.9254 -0.7052
 1043TIP3   OH224543   6.440   2.176   4.692 -0.7924  0.4133  0.7904
 1043TIP3    H124544   6.445   2.233   4.615  0.8472  1.2696  1.4868
 1043TIP3    H224545   6.401   2.232   4.760 -0.8700  0.1337  0.9760
 1044TIP3   OH224546   2.973   5.937   0.384 -0.0050 -0.2045  0.1714
 1044TIP3    H124547   3.006   5.852   0.412  1.0076  0.5452  1.2972
 1044TIP3    H224548   2.885   5.942   0.420  0.0060 -0.7044  0.2605
 1045TIP3   OH224549   1.033   4.272   4.604 -0.5369 -0.0497 -0.1718
 1045TIP3    H124550   0.984   4.349   4.634 -0.6861 -0.2891  0.2046
 1045TIP3    H224551   1.082   4.244   4.681  1.0985  0.8839 -0.8596
 1046TIP3   OH224552   1.380   5.428   0.351 -0.1470 -0.4729  0.8351
 1046TIP3    H124553   1.355   5.515   0.382  0.1576 -0.1805  0.2763
 1046TIP3    H224554   1.297   5.385   0.332 -0.3078  1.9901 -5.1084
 1047TIP3   OH224555   3.135   0.223  14.397  0.3231 -0.3209  0.0692
 1047TIP3    H124556   3.124   0.196  14.306 -0.7055  1.0583 -0.2432
 1047TIP3    H224557   3.054   0.194  14.440  0.4203 -0.1952  0.3362
 1048TIP3   OH224558   4.363   5.613  12.325 -0.4229 -0.0405 -0.1677
 1048TIP3    H124559   4.298   5.645  12.262 -1.0961 -0.6405  0.2245
 1048TIP3    H224560   4.417   5.690  12.345 -2.1605  0.9152  0.9199
 1049TIP3   OH224561   3.005   0.395   1.701 -0.6498  0.2301 -0.1251
 1049TIP3    H124562   3.092   0.426   1.727  0.4397 -1.8371 -1.1559
 1049TIP3    H224563   2.959   0.380   1.783  0.6481 -0.4459  0.4901
 1050TIP3   OH224564   4.620   5.506  10.700 -0.0545  0.2226  0.5006
 1050TIP3    H124565   4.709   5.482  10.674  0.1434  2.3574 -0.9331
 1050TIP3    H224566   4.608   5.595  10.666 -2.3136  0.4282  1.7222
 1051TIP3   OH224567   3.829   3.743  17.123  0.3959 -0.6063  0.2155
 1051TIP3    H124568   3.904   3.694  17.157  2.3866  1.5792 -0.9087
 1051TIP3    H224569   3.793   3.789  17.199  0.8777 -0.7770  0.5498
 1052TIP3   OH224570   4.863   3.197  14.768 -0.2948  0.4033 -0.0696
 1052TIP3    H124571   4.795   3.170  14.706 -0.0113  0.4368 -0.4017
 1052TIP3    H224572   4.902   3.114  14.797 -0.9301  0.3473  0.6483
 1053TIP3   OH224573   0.034   4.298   5.681 -0.0743 -0.2479 -0.0546
 1053TIP3    H124574  -0.056   4.267   5.687 -0.2748  0.5166  0.9281
 1053TIP3    H224575   0.081   4.249   5.749  0.2066 -0.4814 -0.4155
 1054TIP3   OH224576   0.955   5.071  11.997 -0.6996  0.4817 -0.0231
 1054TIP3    H124577   1.026   5.128  12.024 -0.6550  1.2638 -1.7268
 1054TIP3    H224578   0.997   5.001  11.947 -1.2304  1.7178 -2.2629
 1055TIP3   OH224579   5.181   5.470  14.092 -0.0897  0.0664 -0.2821
 1055TIP3    H124580   5.177   5.462  14.188  2.4409  1.2724 -0.0351
 1055TIP3    H224581   5.123   5.542  14.071  0.8199  1.0612  0.5595
 1056TIP3   OH224582   2.640   2.159  16.855  0.1265  0.0432  0.0714
 1056TIP3    H124583   2.663   2.070  16.881 -2.4933 -0.3345  1.2397
 1056TIP3    H224584   2.604   2.150  16.767  0.2612  0.0314  0.0152
 1057TIP3   OH224585   6.399   4.544  16.381  0.3391  0.1253 -0.4916
 1057TIP3    H124586   6.424   4.472  16.438 -0.6774 -0.5226 -0.8503
 1057TIP3    H224587   6.436   4.622  16.422 -1.2300 -0.1945  1.5949
 1058TIP3   OH224588   6.536   3.502  13.946 -0.0145 -0.2866  0.1434
 1058TIP3    H124589   6.631   3.500  13.932 -0.2788  0.6361 -2.0637
 1058TIP3    H224590   6.519   3.590  13.982  0.0356 -0.7020  1.1978
 1059TIP3   OH224591   1.984   2.233   4.393 -0.2024  0.6551  0.7265
 1059TIP3    H124592   2.055   2.205   4.452  0.1465 -3.6106 -1.5141
 1059TIP3    H224593   1.918   2.164   4.402 -1.1389  1.1422 -2.1463
 1060TIP3   OH224594   3.662   0.316  16.264  0.1241  0.3199 -0.1488
 1060TIP3    H124595   3.733   0.292  16.324  0.0295  0.1259 -0.1108
 1060TIP3    H224596   3.652   0.239  16.208  0.2676  0.5325 -0.4682
 1061TIP3   OH224597   5.619   3.035  11.145 -0.5159 -0.4987 -0.0211
 1061TIP3    H124598   5.611   3.038  11.240  0.9716  0.9760  0.0788
 1061TIP3    H224599   5.534   3.063  11.113  0.0322  2.4177  0.9208
 1062TIP3   OH224600   6.076   4.931   0.824 -0.0811  0.0687  0.1324
 1062TIP3    H124601   6.004   4.948   0.763 -0.5978  1.8717  1.2257
 1062TIP3    H224602   6.034   4.896   0.902  0.3787 -0.2716  0.2300
 1063TIP3   OH224603   3.496   3.335  14.923 -0.5054 -0.1012 -0.1023
 1063TIP3    H124604   3.461   3.286  14.997 -1.3870  1.2655  0.4205
 1063TIP3    H224605   3.441   3.414  14.919  1.1591  1.0621 -0.6056
 1064TIP3   OH224606   0.371   2.233   3.227 -0.9202  0.0802 -0.0798
 1064TIP3    H124607   0.313   2.267   3.296 -0.3577  0.9738 -0.0493
 1064TIP3    H224608   0.414   2.158   3.267 -0.3807  0.7695  0.6368
 1065TIP3   OH224609   2.863   5.656  13.419 -0.0053 -0.8015  0.4281
 1065TIP3    H124610   2.836   5.579  13.369 -1.5083 -0.7701  1.1540
 1065TIP3    H224611   2.931   5.696  13.366 -0.9460 -1.2616 -1.1820
 1066TIP3   OH224612   6.197   3.468  14.137 -0.0230  0.3398  0.4398
 1066TIP3    H124613   6.208   3.540  14.074  0.7838 -0.3037 -0.1712
 1066TIP3    H224614   6.119   3.492  14.188  0.3094  1.7008  0.3242
 1067TIP3   OH224615   0.583   3.931  12.211  0.3003 -0.1093 -0.4327
 1067TIP3    H124616   0.557   4.017  12.244  0.1215  0.0839 -1.0707
 1067TIP3    H224617   0.649   3.950  12.145 -0.6215 -0.3946 -1.4433
 1068TIP3   OH224618   5.743   4.004   2.506 -0.0292 -0.0495 -0.8550
 1068TIP3    H124619   5.796   4.069   2.551 -1.2393 -0.4982  1.2606
 1068TIP3    H224620   5.796   3.925   2.506  0.1605  0.0778 -0.6407
 1069TIP3   OH224621   0.985   5.029  11.718 -0.1418 -0.5760  0.6128
 1069TIP3    H124622   0.975   5.061  11.807 -0.3787 -3.0613  1.5122
 1069TIP3    H224623   0.911   5.068  11.671 -0.0640  0.6812  1.4954
 1070TIP3   OH224624   0.571   0.376  16.721  0.5539  0.3913  0.8007
 1070TIP3    H124625   0.620   0.331  16.790  0.5684 -0.8470 -0.0085
 1070TIP3    H224626   0.595   0.330  16.641 -0.2355  1.1821  0.1032
 1071TIP3   OH224627   1.619   3.498  15.426 -0.4919 -0.0582  0.4800
 1071TIP3    H124628   1.572   3.581  15.434 -0.3175 -0.0396  1.4654
 1071TIP3    H224629   1.707   3.523  15.398 -0.9017 -0.0490 -0.8216
 1072TIP3   OH224630   6.115   5.856  16.794  0.1063 -0.2433  0.6660
 1072TIP3    H124631   6.141   5.777  16.746  1.0195  0.3942  0.1105
 1072TIP3    H224632   6.054   5.824  16.860 -1.2321 -1.1302 -0.9624
 1073TIP3   OH224633   5.322   6.717   4.544  0.3723  0.0363 -0.4398
 1073TIP3    H124634   5.290   6.757   4.625  1.6968  1.9574 -0.8263
 1073TIP3    H224635   5.367   6.637   4.572  0.5250  0.5105  0.6834
 1074TIP3   OH224636   1.818   4.628  14.431  0.0124 -0.0781  0.4516
 1074TIP3    H124637   1.818   4.717  14.396 -2.3130  1.0691  3.1987
 1074TIP3    H224638   1.790   4.574  14.357  1.2878  1.4785 -1.2026
 1075TIP3   OH224639   0.946   3.061  15.520  0.1262  0.1365 -0.0550
 1075TIP3    H124640   0.896   3.061  15.602  0.0849  0.7117 -0.0774
 1075TIP3    H224641   0.950   2.969  15.495 -1.5208  0.1467 -0.4210
 1076TIP3   OH224642   1.224   2.452  11.445 -0.2461 -0.4695  0.3686
 1076TIP3    H124643   1.253   2.543  11.440 -2.2374  0.4997  4.2049
 1076TIP3    H224644   1.285   2.410  11.505  0.0950 -1.4790 -0.6542
 1077TIP3   OH224645   0.362   6.567  15.879 -0.0569 -0.5964  0.3609
 1077TIP3    H124646   0.325   6.616  15.806 -1.6269  0.1070  1.5761
 1077TIP3    H224647   0.454   6.592  15.881 -0.6819  1.8939  0.5535
 1078TIP3   OH224648   3.916   5.073  12.716  0.3173  0.1882 -0.3906
 1078TIP3    H124649   3.918   5.132  12.791  1.1232 -1.1283  0.6455
 1078TIP3    H224650   3.956   5.123  12.645 -1.2784  1.7718 -0.2239
 1079TIP3   OH224651   0.585   3.941  13.192 -0.5689 -0.0964  0.2106
 1079TIP3    H124652   0.605   3.849  13.208  0.1968 -0.1576 -1.0011
 1079TIP3    H224653   0.507   3.939  13.136 -0.3458 -0.0243 -0.1056
 1080TIP3   OH224654   1.119   6.015   3.452  0.2352 -0.3393 -0.4193
 1080TIP3    H124655   1.138   5.926   3.423  0.3951 -0.8531  1.2035
 1080TIP3    H224656   1.043   6.005   3.509 -0.4884  0.7345 -1.1708
 1081TIP3   OH224657   4.095   3.451  11.572  0.1168  0.1475 -0.0141
 1081TIP3    H124658   4.139   3.366  11.569 -2.7792 -1.4984  0.9029
 1081TIP3    H224659   4.123   3.490  11.655  0.6846 -0.3879  0.0428
 1082TIP3   OH224660   5.292   4.923  15.080  0.0707  0.0270  0.2689
 1082TIP3    H124661   5.242   4.954  15.005 -0.4367 -0.2847  0.4761
 1082TIP3    H224662   5.292   4.996  15.141 -0.0529  0.0591  0.2295
 1083TIP3   OH224663   5.990   5.247   4.377 -0.0177 -0.0391 -0.0589
 1083TIP3    H124664   5.896   5.232   4.389 -0.6200  4.6502  1.9550
 1083TIP3    H224665   6.028   5.230   4.463  1.0289 -1.8478 -0.8491
 1084TIP3   OH224666   1.026   2.091   4.865  0.3827 -0.6052 -0.6204
 1084TIP3    H124667   1.012   2.016   4.922 -0.0567 -0.2195 -0.2200
 1084TIP3    H224668   1.102   2.136   4.902 -0.3614  0.0647  0.1061
 1085TIP3   OH224669   4.110   1.680  11.588 -0.0122 -0.1218  0.2078
 1085TIP3    H124670   4.082   1.592  11.615 -1.7114  1.1393  2.7277
 1085TIP3    H224671   4.041   1.709  11.528  0.2631 -0.3175 -0.1978
 1086TIP3   OH224672   6.115   3.809  12.018 -0.5150 -0.0778  0.1702
 1086TIP3    H124673   6.112   3.715  12.035 -0.9997 -0.2245 -0.7067
 1086TIP3    H224674   6.081   3.819  11.929  0.2332  0.8552 -0.0259
 1087TIP3   OH224675   3.831   2.841   3.162  0.8042 -0.0264  0.0053
 1087TIP3    H124676   3.789   2.790   3.231 -0.1247 -0.4381 -0.8302
 1087TIP3    H224677   3.924   2.841   3.184  0.6727 -1.1673  0.6141
 1088TIP3   OH224678   0.781   3.261   0.174  0.2426  0.7833 -0.2031
 1088TIP3    H124679   0.855   3.291   0.226  0.5085  1.7739 -1.1397
 1088TIP3    H224680   0.789   3.308   0.091 -0.1849 -0.7681 -1.1445
 1089TIP3   OH224681   1.508   4.693   1.645 -0.6703  0.1144  0.4872
 1089TIP3    H124682   1.482   4.701   1.737 -2.1827  3.0108 -0.1095
 1089TIP3    H224683   1.443   4.745   1.598 -0.0007 -1.4659 -2.2485
 1090TIP3   OH224684   1.864   1.129  12.353 -0.0407  0.4182 -0.6343
 1090TIP3    H124685   1.939   1.154  12.300 -0.0030  0.9643 -0.3260
 1090TIP3    H224686   1.852   1.035  12.335 -0.5629  0.7833 -2.2699
 1091TIP3   OH224687   2.695   6.106   4.933  0.3488  1.0368  0.2210
 1091TIP3    H124688   2.605   6.096   4.902  0.7541  0.1953 -0.7083
 1091TIP3    H224689   2.727   6.185   4.890  1.5550 -1.1607 -3.1978
 1092TIP3   OH224690   5.213   4.220   1.308 -0.3495  0.3225 -0.3993
 1092TIP3    H124691   5.307   4.201   1.311 -0.3483  0.3166 -0.4800
 1092TIP3    H224692   5.197   4.270   1.388 -0.4590 -0.5088  0.1100
 1093TIP3   OH224693   6.710   3.098   3.825 -0.6486 -0.4614 -0.1172
 1093TIP3    H124694   6.724   3.008   3.798  0.4196 -1.1466  2.5540
 1093TIP3    H224695   6.798   3.132   3.844 -1.1389  0.7598  0.0512
 1094TIP3   OH224696   4.847   1.076  14.149  0.0326  0.2724 -0.0578
 1094TIP3    H124697   4.842   1.012  14.219 -0.8267 -0.8865 -1.1488
 1094TIP3    H224698   4.841   1.024  14.068  0.3501  1.6281 -0.9815
 1095TIP3   OH224699   3.548   2.997   2.147  0.5017  0.5373 -0.0504
 1095TIP3    H124700   3.523   2.922   2.093  0.6035 -0.4625  1.2471
 1095TIP3    H224701   3.617   2.963   2.204  0.7142  1.6905  0.3961
 1096TIP3   OH224702   5.920   4.695  12.712  0.6673  0.5708  0.0488
 1096TIP3    H124703   5.997   4.641  12.694  1.0855  1.0153  0.5112
 1096TIP3    H224704   5.883   4.713  12.625  0.1318 -1.0294 -0.0651
 1097TIP3   OH224705   0.382   5.342  16.105  0.1813 -0.2894 -0.1424
 1097TIP3    H124706   0.290   5.336  16.130  0.7964 -2.3966  1.8814
 1097TIP3    H224707   0.403   5.256  16.069  1.4531  0.0209 -0.1782
 1098TIP3   OH224708   3.733   5.665   3.698 -0.3501  0.2096  0.1335
 1098TIP3    H124709   3.808   5.714   3.732 -1.1395  0.9703  0.8273
 1098TIP3    H224710   3.747   5.575   3.727  0.6117  0.2193 -0.2912
 1099TIP3   OH224711   6.306   0.919  13.270  0.1766  0.4148  0.3190
 1099TIP3    H124712   6.348   0.847  13.318  0.3552 -0.8175 -1.6080
 1099TIP3    H224713   6.274   0.878  13.190 -2.0978  1.9646  0.4046
 1100TIP3   OH224714   0.177   1.012   1.175  0.6392  0.3976  0.2002
 1100TIP3    H124715   0.173   1.065   1.254 -1.7640  0.7218 -0.1173
 1100TIP3    H224716   0.092   1.024   1.132  1.0020 -1.6390 -1.2127
 1101TIP3   OH224717   1.226   6.628   2.560 -0.6403 -0.4736  0.2670
 1101TIP3    H124718   1.271   6.687   2.620 -1.0231 -0.8775  0.9585
 1101TIP3    H224719   1.154   6.680   2.524  0.7919  0.4028 -1.3959
 1102TIP3   OH224720   4.305   3.590  12.202 -0.3681  0.8802 -0.2415
 1102TIP3    H124721   4.251   3.631  12.270  0.3220  0.3576  0.6309
 1102TIP3    H224722   4.388   3.637  12.206  0.0212  0.1823 -0.0339
 1103TIP3   OH224723   5.327   4.587  11.355  0.1334  0.1362 -0.8968
 1103TIP3    H124724   5.265   4.514  11.350  0.1001  0.1786 -1.1440
 1103TIP3    H224725   5.293   4.651  11.292  0.0571  0.4479 -0.5389
 1104TIP3   OH224726   3.459   4.766   6.422  1.1584 -0.5256 -0.2601
 1104TIP3    H124727   3.380   4.821   6.431  1.1238 -0.3692 -1.5307
 1104TIP3    H224728   3.432   4.681   6.458  1.0326  0.0921  1.1796
 1105TIP3   OH224729   6.637   4.215   2.967  0.3001  0.2545  0.5514
 1105TIP3    H124730   6.625   4.204   3.062 -0.0394 -1.2860  0.3403
 1105TIP3    H224731   6.726   4.250   2.959  0.4569  0.0852  1.4193
 1106TIP3   OH224732   1.607   0.725   4.703  0.2667  0.8761  0.0705
 1106TIP3    H124733   1.581   0.650   4.756 -0.0194  1.8605  1.3306
 1106TIP3    H224734   1.645   0.686   4.624 -0.0589 -0.5908  0.6229
 1107TIP3   OH224735   1.579   0.701  15.216 -0.2113 -0.0435  0.1686
 1107TIP3    H124736   1.609   0.791  15.227 -1.3165  0.3557 -0.0878
 1107TIP3    H224737   1.509   0.690  15.280  0.2084 -0.8679  0.5073
 1108TIP3   OH224738   2.009   2.595   5.045 -0.2178  0.3856 -0.2080
 1108TIP3    H124739   2.100   2.567   5.050 -0.9989 -2.3670 -0.3578
 1108TIP3    H224740   1.991   2.600   4.951 -0.8569 -1.4574 -0.2143
 1109TIP3   OH224741   3.629   4.077   1.435  0.1570  0.2370 -0.7179
 1109TIP3    H124742   3.542   4.072   1.394  0.5922 -2.8589 -1.3775
 1109TIP3    H224743   3.681   4.011   1.389  2.1068  0.2021  1.4657
 1110TIP3   OH224744   4.270   4.033  15.903 -0.2298  0.4931 -0.0698
 1110TIP3    H124745   4.179   4.038  15.875 -0.6320 -0.4489  1.0221
 1110TIP3    H224746   4.289   4.120  15.940 -0.9842  0.3940  0.5607
 1111TIP3   OH224747   4.135   1.843  11.106 -0.2753 -0.4683  0.4705
 1111TIP3    H124748   4.113   1.755  11.074  2.8078 -1.5146  0.9896
 1111TIP3    H224749   4.163   1.829  11.196  2.0805  0.7236 -0.0298
 1112TIP3   OH224750   5.225   1.153   3.819  0.1864 -0.2294  0.0672
 1112TIP3    H124751   5.174   1.219   3.772 -0.7877 -0.1602  1.1947
 1112TIP3    H224752   5.168   1.126   3.891  2.0556  0.4116  1.8308
 1113TIP3   OH224753   3.290   6.385  17.186 -0.0994  0.0924 -0.5630
 1113TIP3    H124754   3.205   6.426  17.174 -0.1340  0.1991  0.0289
 1113TIP3    H224755   3.324   6.423  17.267 -0.0194 -0.8457 -0.1486
 1114TIP3   OH224756   3.346   3.179   4.890  0.3398 -0.1445 -0.3869
 1114TIP3    H124757   3.353   3.180   4.986 -0.7861  0.8658 -0.2958
 1114TIP3    H224758   3.356   3.271   4.865 -0.2074 -0.3008 -1.1717
 1115TIP3   OH224759   6.479   5.681  12.151 -0.6046  0.4529  0.1945
 1115TIP3    H124760   6.391   5.719  12.140 -1.2177 -1.2661 -1.0883
 1115TIP3    H224761   6.531   5.724  12.083 -1.3202 -1.0130 -1.3182
 1116TIP3   OH224762   5.406   0.242   3.677  0.2929 -0.0623  0.0337
 1116TIP3    H124763   5.442   0.200   3.599  0.1286 -0.0901 -0.0265
 1116TIP3    H224764   5.334   0.185   3.704  1.8479 -1.3337  1.5688
 1117TIP3   OH224765   0.826   5.280  15.154  0.4477  0.2730 -0.2088
 1117TIP3    H124766   0.871   5.319  15.079  1.2503 -2.1041 -1.0032
 1117TIP3    H224767   0.793   5.197  15.121 -1.1839  0.2462  1.4579
 1118TIP3   OH224768   2.476   6.773   1.830 -0.0683 -0.2681  0.1621
 1118TIP3    H124769   2.415   6.799   1.898 -1.3589 -1.0504 -0.6820
 1118TIP3    H224770   2.503   6.855   1.788 -3.2817 -0.1528 -1.7979
 1119TIP3   OH224771   0.381   0.882  16.642 -0.2388 -0.3478 -0.6759
 1119TIP3    H124772   0.312   0.832  16.686 -1.1038 -0.1349 -1.7573
 1119TIP3    H224773   0.462   0.835  16.663 -0.9232 -1.6341 -0.8706
 1120TIP3   OH224774   3.344   5.047   3.705 -0.0417 -0.0290 -0.7752
 1120TIP3    H124775   3.376   4.966   3.664  0.5117 -0.0457 -0.3021
 1120TIP3    H224776   3.406   5.066   3.774 -1.4813 -0.4973  0.6796
 1121TIP3   OH224777   0.185   2.147  13.184  0.0476  0.1717  0.0433
 1121TIP3    H124778   0.195   2.239  13.159  2.0833  0.2314  0.9465
 1121TIP3    H224779   0.259   2.103  13.144  0.7784 -0.5218  2.0849
 1122TIP3   OH224780   1.164   4.566   3.191 -0.1463 -0.3324 -0.4750
 1122TIP3    H124781   1.258   4.562   3.210 -0.1629  0.3193 -0.2694
 1122TIP3    H224782   1.122   4.562   3.276 -0.3466 -1.9043 -0.6370
 1123TIP3   OH224783   5.416   3.336  15.171 -0.5218 -0.2784 -0.8022
 1123TIP3    H124784   5.406   3.395  15.096  3.1323  3.1067  1.1835
 1123TIP3    H224785   5.365   3.378  15.241  0.4871 -0.5117  0.0828
 1124TIP3   OH224786   6.547   2.525   4.651 -0.8348 -0.4673 -0.4980
 1124TIP3    H124787   6.478   2.571   4.603 -0.5686  0.4939  0.0305
 1124TIP3    H224788   6.609   2.499   4.584 -2.1236 -2.1068 -1.0949
 1125TIP3   OH224789   4.282   4.142   3.521  0.0614  0.0582 -0.9087
 1125TIP3    H124790   4.211   4.203   3.504  0.2703  0.1815 -1.3455
 1125TIP3    H224791   4.239   4.056   3.526 -0.1272  0.1388 -1.1173
 1126TIP3   OH224792   1.800   1.437   1.849 -0.1014 -0.1192  0.7599
 1126TIP3    H124793   1.763   1.401   1.769 -0.4815 -3.2141  2.2435
 1126TIP3    H224794   1.879   1.481   1.821 -0.8945 -0.0416 -1.4767
 1127TIP3   OH224795   1.715   2.477   2.779  0.2270 -0.3052 -0.1187
 1127TIP3    H124796   1.663   2.494   2.700  1.4597 -1.6322 -1.2543
 1127TIP3    H224797   1.657   2.427   2.836 -0.5829  0.4140 -0.2998
 1128TIP3   OH224798   2.026   5.466  12.582 -0.6832 -0.3217  0.9724
 1128TIP3    H124799   1.972   5.486  12.505 -1.0275 -0.0263  1.2876
 1128TIP3    H224800   1.978   5.396  12.627 -0.6468 -0.2706  1.0901
 1129TIP3   OH224801   3.781   5.467  14.147 -0.2953 -0.6701  0.4228
 1129TIP3    H124802   3.839   5.391  14.149  2.2746  1.1050 -2.0584
 1129TIP3    H224803   3.762   5.486  14.239  1.5487 -2.4229  1.1879
 1130TIP3   OH224804   5.149   2.425  13.465  0.2642  0.2578 -0.2777
 1130TIP3    H124805   5.105   2.434  13.550 -1.3590 -3.5614 -0.6192
 1130TIP3    H224806   5.078   2.409  13.403  1.6346  0.7144 -1.9951
 1131TIP3   OH224807   5.591   5.307  13.586  0.2464 -0.3703 -0.0776
 1131TIP3    H124808   5.499   5.330  13.569  0.2095 -0.6536 -0.2562
 1131TIP3    H224809   5.592   5.212  13.590  0.5646 -0.3762 -0.2456
 1132TIP3   OH224810   0.559   3.881   3.938  0.5155  0.2433  0.1256
 1132TIP3    H124811   0.595   3.792   3.933 -0.6351 -0.1223 -2.8556
 1132TIP3    H224812   0.470   3.869   3.972  0.1610  0.1868 -0.8169
 1133TIP3   OH224813   5.942   3.033  12.570  0.1951  0.2255 -0.5131
 1133TIP3    H124814   5.922   3.121  12.603  1.7048  0.2219  0.4631
 1133TIP3    H224815   6.034   3.038  12.545 -0.7736  0.1211 -4.4173
 1134TIP3   OH224816   0.755   6.292   6.671  0.2892  0.0830  0.2538
 1134TIP3    H124817   0.799   6.229   6.615  0.2293  1.0770 -0.9332
 1134TIP3    H224818   0.717   6.356   6.610  1.6328  2.1061  1.4875
 1135TIP3   OH224819   0.313   0.081   1.697  0.3198 -0.1149 -0.3761
 1135TIP3    H124820   0.338   0.142   1.627  1.8306  0.2960  0.5075
 1135TIP3    H224821   0.396   0.040   1.723 -0.6855 -2.6537 -1.0398
 1136TIP3   OH224822   3.299   0.699  16.315  1.0236  0.1234 -0.6372
 1136TIP3    H124823   3.384   0.657  16.311  0.0159 -1.8057 -2.5109
 1136TIP3    H224824   3.293   0.750  16.235  1.4635  2.4161  0.7394
 1137TIP3   OH224825   1.145   5.449   4.907 -0.2014  0.5719 -0.5601
 1137TIP3    H124826   1.187   5.391   4.844  1.0925  1.2495 -0.3283
 1137TIP3    H224827   1.176   5.537   4.884 -1.1131  1.0278 -0.0877
 1138TIP3   OH224828   0.991   5.384   0.928 -0.3324 -0.1436  0.1924
 1138TIP3    H124829   1.001   5.293   0.957  0.6447  0.0304  0.3847
 1138TIP3    H224830   1.025   5.384   0.838 -2.5809 -0.4970 -0.6978
 1139TIP3   OH224831   1.646   3.571   3.328  0.5337 -0.3587 -0.0836
 1139TIP3    H124832   1.682   3.546   3.243 -0.0538 -1.0109 -0.1484
 1139TIP3    H224833   1.596   3.494   3.356  0.7771 -0.1734  0.8816
 1140TIP3   OH224834   6.547   5.222  13.786  0.6145 -0.0638 -0.4875
 1140TIP3    H124835   6.535   5.174  13.868 -0.4838  0.2253 -0.4608
 1140TIP3    H224836   6.571   5.311  13.813 -0.6668  0.2807 -0.4413
 1141TIP3   OH224837   2.797   1.782   2.322 -0.1703 -0.4119  0.2528
 1141TIP3    H124838   2.816   1.777   2.416  0.4361 -1.9438  0.0577
 1141TIP3    H224839   2.768   1.694   2.298 -1.3129  0.2261 -0.8048
 1142TIP3   OH224840   4.534   3.766  16.547 -0.2730  0.4368  0.0682
 1142TIP3    H124841   4.611   3.746  16.493 -0.9989  0.4536 -0.9846
 1142TIP3    H224842   4.511   3.856  16.526 -0.2986  0.5948  0.7416
 1143TIP3   OH224843   1.245   6.664   0.584 -0.2552  0.3379 -0.0471
 1143TIP3    H124844   1.339   6.681   0.580 -0.1407  0.1497  1.4214
 1143TIP3    H224845   1.231   6.630   0.673 -1.4422 -1.2657 -0.8257
 1144TIP3   OH224846   3.288   4.197   4.040  0.1075  0.0249  0.0032
 1144TIP3    H124847   3.293   4.156   4.127 -0.4038  0.4117  0.2143
 1144TIP3    H224848   3.203   4.239   4.038  1.4218  2.8237  0.5518
 1145TIP3   OH224849   3.189   1.526  14.553  0.3349 -0.0650 -0.1578
 1145TIP3    H124850   3.108   1.576  14.540 -0.3795 -1.1312  0.1699
 1145TIP3    H224851   3.209   1.536  14.646 -1.7995 -3.3443  0.7240
 1146TIP3   OH224852   3.007   0.343  12.219 -0.1912  0.3183 -0.1978
 1146TIP3    H124853   3.075   0.381  12.275  0.6609  0.3206 -1.2312
 1146TIP3    H224854   2.927   0.389  12.244  0.2140  0.4334  0.9102
 1147TIP3   OH224855   1.347   2.653  14.269 -0.0849 -0.3451 -0.1935
 1147TIP3    H124856   1.271   2.705  14.244 -0.0917 -0.3616 -0.2072
 1147TIP3    H224857   1.420   2.714  14.266 -0.1175 -0.2988 -0.0591
 1148TIP3   OH224858   1.697   0.236  13.503  0.4076 -0.7244 -0.2117
 1148TIP3    H124859   1.699   0.330  13.483  1.7352 -0.6061  0.4187
 1148TIP3    H224860   1.604   0.213  13.500  0.0415  0.6788 -0.0556
 1149TIP3   OH224861   6.643   3.103  13.176 -0.2487 -0.5566  0.1923
 1149TIP3    H124862   6.672   3.014  13.195 -3.5518 -1.9286 -0.7589
 1149TIP3    H224863   6.654   3.112  13.081  0.1822  0.1018  0.3043
 1150TIP3   OH224864   4.148   4.103  17.134 -0.0130  0.1598 -0.0649
 1150TIP3    H124865   4.081   4.048  17.094 -0.5224 -0.1331  1.1859
 1150TIP3    H224866   4.101   4.182  17.161 -0.1639 -0.6731  2.1644
 1151TIP3   OH224867   6.554   5.120   3.662 -0.0474 -0.0175  0.1037
 1151TIP3    H124868   6.468   5.090   3.631  0.4531 -1.1618 -0.1931
 1151TIP3    H224869   6.534   5.193   3.720 -1.4034 -1.7349  1.8786
 1152TIP3   OH224870   4.051   4.898   6.635 -0.4820 -0.7269 -0.1839
 1152TIP3    H124871   4.013   4.886   6.722  1.7278 -1.0477  0.7747
 1152TIP3    H224872   4.021   4.823   6.585 -3.1166  0.2961 -0.2206
 1153TIP3   OH224873   6.133   0.557  17.093  0.1823 -0.3074 -0.0849
 1153TIP3    H124874   6.059   0.536  17.150 -0.1459  0.0845 -0.3660
 1153TIP3    H224875   6.136   0.652  17.092 -0.4660 -0.2965 -1.5526
 1154TIP3   OH224876   5.262   2.659   0.432  0.3406 -0.7543  0.0251
 1154TIP3    H124877   5.273   2.729   0.368 -2.2206  0.3383  0.7224
 1154TIP3    H224878   5.281   2.579   0.383 -0.3649  0.1549 -1.7854
 1155TIP3   OH224879   2.671   1.945   3.719 -0.1330 -0.4722 -0.1520
 1155TIP3    H124880   2.639   1.954   3.809 -0.5250  0.0412 -0.3379
 1155TIP3    H224881   2.765   1.960   3.725 -0.2233  0.0114  0.1110
 1156TIP3   OH224882   4.128   5.127  16.774  0.1507  0.6038 -0.2333
 1156TIP3    H124883   4.173   5.070  16.836  1.4528  3.5682  1.6379
 1156TIP3    H224884   4.177   5.118  16.693 -0.4852 -1.9377 -0.3733
 1157TIP3   OH224885   0.478   5.791  11.992  0.3991  0.5409 -0.1568
 1157TIP3    H124886   0.409   5.769  11.928  1.1551  1.0289 -1.1469
 1157TIP3    H224887   0.484   5.886  11.989 -0.3091  0.6596  1.4491
 1158TIP3   OH224888   3.902   5.025  11.541 -0.2581  0.4168  0.4860
 1158TIP3    H124889   3.917   4.974  11.461  0.5875 -1.0820  1.5702
 1158TIP3    H224890   3.979   5.082  11.548 -0.1006  0.2022  0.4941
 1159TIP3   OH224891   3.793   2.873   4.750  0.7180 -0.2336 -0.3208
 1159TIP3    H124892   3.765   2.786   4.781  0.6770 -0.1651 -0.1648
 1159TIP3    H224893   3.766   2.876   4.658  2.5227 -1.1798 -0.9173
 1160TIP3   OH224894   4.921   5.182  13.781 -0.2209 -0.1066 -0.5787
 1160TIP3    H124895   4.972   5.109  13.746 -0.0173  1.2878 -3.3849
 1160TIP3    H224896   4.830   5.160  13.761 -0.3456 -0.5469  0.4532
 1161TIP3   OH224897   3.017   3.236  16.073  0.4516 -0.3807 -0.4834
 1161TIP3    H124898   3.036   3.323  16.107 -1.4917 -0.1170 -0.0450
 1161TIP3    H224899   3.030   3.244  15.978  1.0537  0.1623 -0.3582
 1162TIP3   OH224900   6.078   3.536   6.246  0.4279  0.4311 -0.1123
 1162TIP3    H124901   6.148   3.494   6.296 -0.2955 -0.0396  0.5248
 1162TIP3    H224902   6.062   3.618   6.292  0.5163  0.5071 -0.2175
 1163TIP3   OH224903   4.730   3.650  12.516  0.4149  0.1160 -0.1756
 1163TIP3    H124904   4.807   3.612  12.557  0.2624  1.5096  1.4247
 1163TIP3    H224905   4.659   3.634  12.578 -0.2680  0.2846 -0.9042
 1164TIP3   OH224906   6.203   2.608  15.314 -0.1038  0.3990  0.4265
 1164TIP3    H124907   6.213   2.514  15.304  1.4841  0.6438 -0.4761
 1164TIP3    H224908   6.112   2.620  15.342 -0.6666 -1.2921 -0.6262
 1165TIP3   OH224909   0.665   3.551  10.905 -0.6570 -0.4912 -0.4069
 1165TIP3    H124910   0.718   3.626  10.930 -0.9511 -0.5121  0.2990
 1165TIP3    H224911   0.690   3.532  10.815  0.4500 -0.4291 -0.1189
 1166TIP3   OH224912   4.502   0.687   5.885 -0.1917  0.3940 -0.0714
 1166TIP3    H124913   4.510   0.758   5.949 -1.6369  0.9763 -0.5310
 1166TIP3    H224914   4.418   0.645   5.904  1.2842 -2.1785  1.1607
 1167TIP3   OH224915   1.054   1.596   3.824 -0.0501  0.2443  0.0735
 1167TIP3    H124916   0.978   1.648   3.851 -0.2175 -0.0389  0.1529
 1167TIP3    H224917   1.063   1.529   3.892  0.1020  0.1085 -0.0786
 1168TIP3   OH224918   5.890   6.327  13.917 -0.0666 -0.4839  0.3909
 1168TIP3    H124919   5.890   6.240  13.956 -0.0832 -0.5304  0.2890
 1168TIP3    H224920   5.979   6.339  13.884  0.2652  0.0103  1.4401
 1169TIP3   OH224921   1.615   4.811   1.322  0.4826 -0.2812 -0.1453
 1169TIP3    H124922   1.558   4.887   1.307 -0.3179 -0.4246  1.9104
 1169TIP3    H224923   1.696   4.831   1.276  0.1370  1.6778  0.0666
 1170TIP3   OH224924   1.769   2.674  16.281 -0.5534 -0.3226  0.0317
 1170TIP3    H124925   1.707   2.728  16.232 -0.4069 -0.5758 -0.4408
 1170TIP3    H224926   1.757   2.700  16.372  0.1229  1.1296 -0.2736
 1171TIP3   OH224927   4.542   3.186   1.441 -0.5075  0.3524 -0.4316
 1171TIP3    H124928   4.536   3.101   1.396 -4.4131  0.0546  0.3899
 1171TIP3    H224929   4.583   3.165   1.525  1.7260 -0.0581 -1.5820
 1172TIP3   OH224930   0.491   4.484  11.511 -0.6231 -0.0935 -0.5472
 1172TIP3    H124931   0.430   4.543  11.556  0.6367  1.2926 -0.6455
 1172TIP3    H224932   0.532   4.538  11.444 -0.7839 -1.5519 -1.8696
 1173TIP3   OH224933   2.113   4.716   4.351 -0.3449 -0.2623 -0.0963
 1173TIP3    H124934   2.068   4.795   4.381  0.2007  0.2555 -0.6297
 1173TIP3    H224935   2.048   4.647   4.360 -1.4756  0.5889 -1.4370
 1174TIP3   OH224936   5.415   2.936   3.374 -0.3440  0.2944 -0.2273
 1174TIP3    H124937   5.337   2.955   3.321 -0.7350  0.6126  0.4531
 1174TIP3    H224938   5.393   2.854   3.419  0.6221 -0.8378 -1.7730
 1175TIP3   OH224939   0.416   4.250  14.641  0.1527  0.2270  0.1251
 1175TIP3    H124940   0.479   4.241  14.713 -1.6198  0.4715  1.7402
 1175TIP3    H224941   0.336   4.209  14.674 -0.8820  0.8983 -1.4950
 1176TIP3   OH224942   3.137   6.104  13.963 -0.1504 -0.3561  0.4535
 1176TIP3    H124943   3.228   6.113  13.992  0.2610  0.5047 -1.0291
 1176TIP3    H224944   3.127   6.011  13.945  0.5703 -0.4053  0.2568
 1177TIP3   OH224945   1.645   1.645   4.780 -0.2672  0.0389 -0.2002
 1177TIP3    H124946   1.580   1.715   4.768 -0.0861  0.2543  0.0730
 1177TIP3    H224947   1.670   1.621   4.691 -1.5118 -0.7856 -0.3403
 1178TIP3   OH224948   4.611   1.241   1.602  0.1277 -0.3101 -0.0029
 1178TIP3    H124949   4.586   1.256   1.694  0.3498  1.0013 -0.1422
 1178TIP3    H224950   4.529   1.247   1.553  0.5167  3.2297 -0.3692
 1179TIP3   OH224951   2.534   1.347  15.779 -0.1150  0.1355 -0.2697
 1179TIP3    H124952   2.505   1.303  15.859  1.3023 -0.7800 -0.2451
 1179TIP3    H224953   2.522   1.440  15.797  0.4453 -0.0457  1.1221
 1180TIP3   OH224954   6.779   3.156   1.562  0.0076  0.3650  0.0115
 1180TIP3    H124955   6.873   3.142   1.567 -0.1749 -0.2404  2.4412
 1180TIP3    H224956   6.770   3.248   1.537  1.2991  1.4362  3.1712
 1181TIP3   OH224957   0.079   3.898   3.391 -0.0444 -0.7065 -0.3257
 1181TIP3    H124958   0.032   3.815   3.379  1.9284 -1.3521 -4.4630
 1181TIP3    H224959   0.171   3.873   3.392  0.4912  1.2699  0.3342
 1182TIP3   OH224960   0.968   5.343   4.082 -0.5202  0.1037 -0.1847
 1182TIP3    H124961   1.019   5.356   4.003 -1.0629  0.8013 -0.4176
 1182TIP3    H224962   0.878   5.357   4.056 -0.6534  0.9135  0.6880
 1183TIP3   OH224963   1.589   0.125   4.238 -0.3653 -0.4819  0.6433
 1183TIP3    H124964   1.494   0.118   4.240 -0.4109  0.1511  0.7753
 1183TIP3    H224965   1.620   0.053   4.294 -0.8097  0.0941  1.6480
 1184TIP3   OH224966   5.102   3.023  11.856  0.0866 -0.1650  0.5543
 1184TIP3    H124967   5.129   3.024  11.764 -1.6362  0.5501  0.0367
 1184TIP3    H224968   5.155   3.092  11.897  0.0570  0.2784 -0.1413
 1185TIP3   OH224969   3.356   0.969   5.262  0.2419 -0.3874  0.0081
 1185TIP3    H124970   3.391   0.970   5.173 -0.7056 -1.2718 -0.3900
 1185TIP3    H224971   3.267   1.003   5.252  0.5780  0.7577  0.8237
 1186TIP3   OH224972   6.184   1.658   3.886 -0.0658  0.1512  0.3861
 1186TIP3    H124973   6.199   1.749   3.862  0.4049  0.4931  1.8919
 1186TIP3    H224974   6.103   1.661   3.938 -0.7194 -0.4673 -0.5907
 1187TIP3   OH224975   4.227   2.182   3.626 -0.0788 -0.5734  0.6111
 1187TIP3    H124976   4.140   2.141   3.628 -0.4849  0.2292 -0.3024
 1187TIP3    H224977   4.272   2.146   3.703 -1.3745 -0.6457  1.3522
 1188TIP3   OH224978   2.399   1.427  17.001 -0.7370 -0.0869 -0.4088
 1188TIP3    H124979   2.475   1.460  16.952 -0.5025 -0.2082 -0.1212
 1188TIP3    H224980   2.339   1.397  16.933 -0.2929 -0.5079 -0.6142
 1189TIP3   OH224981   6.015   2.068  16.385 -0.7076  0.3066  0.5326
 1189TIP3    H124982   5.965   2.131  16.436  0.1491  0.0188  1.7412
 1189TIP3    H224983   6.103   2.104  16.381 -0.5961 -0.0289 -0.1347
 1190TIP3   OH224984   4.128   1.513  15.089 -0.3710  0.1031  0.3367
 1190TIP3    H124985   4.176   1.454  15.031  1.2943  1.5462  0.1770
 1190TIP3    H224986   4.067   1.457  15.136 -0.8284 -1.2866 -1.8583
 1191TIP3   OH224987   3.967   0.290   4.454  0.3621 -0.0538  0.1967
 1191TIP3    H124988   4.058   0.271   4.477 -0.2266 -1.1391  1.7805
 1191TIP3    H224989   3.957   0.256   4.365  1.6063  0.4243 -0.1313
 1192TIP3   OH224990   4.188   6.716  15.938 -0.6199 -0.1345 -0.1155
 1192TIP3    H124991   4.260   6.705  15.877  0.8599 -0.3471  1.6383
 1192TIP3    H224992   4.113   6.738  15.883  0.2861 -1.9498 -2.1628
 1193TIP3   OH224993   4.631   2.634   6.836  0.5029 -0.2321 -0.2922
 1193TIP3    H124994   4.703   2.602   6.783 -0.0800  0.3812 -1.4823
 1193TIP3    H224995   4.565   2.564   6.832  0.1799  0.1088 -0.9493
 1194TIP3   OH224996   3.637   1.216   0.607 -0.0786 -0.6381 -0.1543
 1194TIP3    H124997   3.724   1.199   0.572  0.4453 -1.3547  1.4387
 1194TIP3    H224998   3.581   1.151   0.565  0.4934 -1.3167  0.1184
 1195TIP3   OH224999   6.515   6.668   3.620 -0.7424  0.1263 -0.0383
 1195TIP3    H125000   6.529   6.634   3.708  1.6965  2.7727  0.6840
 1195TIP3    H225001   6.594   6.644   3.571 -0.2788  2.0709 -0.3190
 1196TIP3   OH225002   5.102   4.885   0.973  0.2818 -0.4571 -0.0781
 1196TIP3    H125003   5.067   4.967   1.008 -0.6084 -1.1285  0.6221
 1196TIP3    H225004   5.149   4.910   0.894  0.6420  0.8325  0.5283
 1197TIP3   OH225005   3.755   4.403  17.043 -0.1208 -0.6739  0.4035
 1197TIP3    H125006   3.685   4.338  17.031  0.4354 -0.8377 -2.1980
 1197TIP3    H225007   3.710   4.487  17.042 -0.4864 -0.8614  0.6869
 1198TIP3   OH225008   6.346   0.584  14.908  0.0016 -0.4717 -0.0413
 1198TIP3    H125009   6.343   0.495  14.944  1.4298 -1.1734 -1.5725
 1198TIP3    H225010   6.264   0.594  14.860  0.5854 -1.5943 -1.2817
 1199TIP3   OH225011   5.046   3.178  13.794  0.1216 -0.7941 -0.0068
 1199TIP3    H125012   4.980   3.127  13.747 -0.2466  1.3812 -1.9503
 1199TIP3    H225013   5.063   3.253  13.737  4.2796 -1.2785  0.4259
 1200TIP3   OH225014   4.366   0.822   0.850  0.4791  0.2856 -1.0360
 1200TIP3    H125015   4.407   0.743   0.884  0.5146  0.3657 -0.8898
 1200TIP3    H225016   4.406   0.835   0.765  0.2779 -0.0014 -1.1738
 1201TIP3   OH225017   5.947   2.097  13.542 -0.3481  0.6259 -0.1945
 1201TIP3    H125018   5.937   2.153  13.466  0.8554 -1.1240 -1.6898
 1201TIP3    H225019   5.858   2.068  13.562 -0.6875  1.1959 -0.8562
 1202TIP3   OH225020   0.818   3.326  16.993  0.2802  0.4692  0.4641
 1202TIP3    H125021   0.868   3.269  17.051  1.1244 -0.2457 -0.9318
 1202TIP3    H225022   0.863   3.410  16.997  2.6070 -0.5795 -1.9735
 1203TIP3   OH225023   0.128   6.042   0.978  0.1084 -0.2463 -0.6740
 1203TIP3    H125024   0.073   6.107   1.021  0.7669 -1.5197  2.2471
 1203TIP3    H225025   0.194   6.093   0.931 -0.8852  1.2247 -0.4751
 1204TIP3   OH225026   0.440   6.342   4.569 -1.0008  0.0876  0.0486
 1204TIP3    H125027   0.389   6.271   4.531 -1.5420  0.6601 -0.3002
 1204TIP3    H225028   0.378   6.393   4.620 -0.9971  1.3191 -1.1245
 1205TIP3   OH225029   2.261   0.466   3.975 -0.1766  0.3430 -0.2919
 1205TIP3    H125030   2.353   0.444   3.962 -0.1534 -0.2143  0.7527
 1205TIP3    H225031   2.214   0.383   3.959 -0.3276  0.1708  1.0321
 1206TIP3   OH225032   5.229   2.788  12.346  0.5911  0.1362 -0.1289
 1206TIP3    H125033   5.323   2.779  12.359  0.5637  2.4077  1.8882
 1206TIP3    H225034   5.217   2.876  12.311 -0.7739 -0.2029 -0.5642
 1207TIP3   OH225035   1.822   0.972   0.802  0.0005  0.3983 -0.0303
 1207TIP3    H125036   1.859   0.887   0.825 -0.9446  0.2411  0.9707
 1207TIP3    H225037   1.740   0.977   0.853 -1.0019  1.0165 -1.6621
 1208TIP3   OH225038   2.425   2.113   3.288 -0.0775  0.2777  0.5091
 1208TIP3    H125039   2.507   2.124   3.337 -0.4562  0.3403  1.1291
 1208TIP3    H225040   2.361   2.088   3.354 -0.1394 -1.6532 -0.2564
 1209TIP3   OH225041   2.028   5.752  12.029  0.0374  0.6751  0.5554
 1209TIP3    H125042   1.979   5.714  11.956  1.0811  1.7461 -0.7193
 1209TIP3    H225043   1.985   5.835  12.047  1.7070  1.8859 -0.9425
 1210TIP3   OH225044   3.314   0.907  13.519 -0.2464  0.1090 -0.3533
 1210TIP3    H125045   3.249   0.912  13.589 -1.8112  2.2924 -1.8985
 1210TIP3    H225046   3.299   0.822  13.478  0.5670 -1.1209  1.7937
 1211TIP3   OH225047   3.913   3.411   0.229 -0.0915 -0.2676  0.4662
 1211TIP3    H125048   3.834   3.443   0.186  0.0345  0.3386  0.6802
 1211TIP3    H225049   3.888   3.324   0.262 -0.9110  0.2340  1.1938
 1212TIP3   OH225050   4.921   5.916  13.277  0.4934 -0.0897 -0.3455
 1212TIP3    H125051   4.926   6.009  13.255  0.2064 -0.0993 -0.4560
 1212TIP3    H225052   4.998   5.877  13.235 -0.0382 -0.1014 -1.3168
 1213TIP3   OH225053   0.956   1.739  12.883 -0.0561 -0.4466  0.1505
 1213TIP3    H125054   1.021   1.687  12.836  0.3084 -0.2892  0.4876
 1213TIP3    H225055   1.006   1.790  12.946 -0.4849 -0.1805  0.2771
 1214TIP3   OH225056   5.437   2.871  13.841 -0.0669  0.1738 -0.1130
 1214TIP3    H125057   5.523   2.908  13.863  1.6668 -2.0222 -2.8963
 1214TIP3    H225058   5.430   2.793  13.896 -0.2825  0.2959  0.0375
 1215TIP3   OH225059   5.456   1.401   0.645  0.1565 -0.3176  0.1662
 1215TIP3    H125060   5.401   1.419   0.569 -0.3463 -0.5889  0.4568
 1215TIP3    H225061   5.484   1.487   0.676  0.8828 -0.2343 -0.6955
 1216TIP3   OH225062   0.050   3.392  16.855  0.1683 -0.0046  0.3882
 1216TIP3    H125063   0.048   3.313  16.910  0.4142 -0.5450 -0.3663
 1216TIP3    H225064  -0.015   3.375  16.787  1.2926 -0.2129 -0.6477
 1217TIP3   OH225065   2.022   3.047  11.219  0.6637 -0.3805 -0.2571
 1217TIP3    H125066   2.101   3.076  11.174 -0.2950  3.9622  0.6646
 1217TIP3    H225067   1.959   3.031  11.149  1.3176 -0.5557 -0.8163
 1218TIP3   OH225068   5.162   3.405  12.616  0.3060  0.4902 -0.6715
 1218TIP3    H125069   5.175   3.369  12.529  1.5294  2.2235 -1.2443
 1218TIP3    H225070   5.233   3.469  12.626 -1.1405  1.9177  0.7228
 1219TIP3   OH225071   4.497   1.954   0.556 -0.1193 -0.3731 -0.0593
 1219TIP3    H125072   4.516   2.043   0.527 -0.2716 -0.2855  0.1172
 1219TIP3    H225073   4.481   1.905   0.475 -0.4774 -0.1420 -0.1234
 1220TIP3   OH225074   5.941   6.137  15.087 -0.4031 -0.1686 -0.4670
 1220TIP3    H125075   5.944   6.207  15.021 -1.4602  2.8450  2.5291
 1220TIP3    H225076   5.964   6.181  15.169 -1.6108 -3.2763  1.6103
 1221TIP3   OH225077   2.039   1.518  11.749  0.0285  0.2023  0.1252
 1221TIP3    H125078   1.963   1.464  11.729 -0.2107  1.0645 -1.4015
 1221TIP3    H225079   2.095   1.463  11.804 -1.7916 -0.3536  1.4365
 1222TIP3   OH225080   2.342   4.220  12.981 -0.1232  0.0502  0.2177
 1222TIP3    H125081   2.292   4.140  12.965  1.6198 -1.1197  0.5271
 1222TIP3    H225082   2.377   4.245  12.895 -1.0879  0.7841  0.0287
 1223TIP3   OH225083   2.766   1.277   0.068  0.5643 -0.5783  0.1776
 1223TIP3    H125084   2.682   1.282   0.023  0.5898  1.9566  0.2957
 1223TIP3    H225085   2.796   1.188   0.055 -1.6600 -1.2202 -0.7520
 1224TIP3   OH225086   0.223   2.125   4.754 -0.8833  0.3259 -0.1745
 1224TIP3    H125087   0.225   2.220   4.748 -0.5738  0.4078  1.0082
 1224TIP3    H225088   0.143   2.099   4.708 -1.7622  1.2687  0.8000
 1225TIP3   OH225089   2.231   5.413   6.395  0.0235 -0.4300  0.0431
 1225TIP3    H125090   2.326   5.404   6.387  0.1322  1.2663 -0.7784
 1225TIP3    H225091   2.198   5.324   6.385  1.6559 -1.3977  2.5348
 1226TIP3   OH225092   1.254   3.904  15.266 -0.1577  0.5250  0.1163
 1226TIP3    H125093   1.219   3.830  15.216 -1.6227  0.7546  0.7695
 1226TIP3    H225094   1.283   3.966  15.199 -1.7539  0.6709 -0.4747
 1227TIP3   OH225095   1.497   2.834   3.349 -0.5980  0.2394 -0.0801
 1227TIP3    H125096   1.538   2.787   3.421  1.7493 -1.5572 -2.5113
 1227TIP3    H225097   1.552   2.912   3.336 -1.5888  1.0865  0.6633
 1228TIP3   OH225098   0.916   3.629  14.499  0.1332 -0.3722 -0.4206
 1228TIP3    H125099   0.893   3.640  14.407 -1.3695 -2.5755 -0.3748
 1228TIP3    H225100   0.838   3.588  14.538  0.9799 -0.0432  1.6887
 1229TIP3   OH225101   5.722   4.553   4.790 -0.1536 -0.2622 -0.2216
 1229TIP3    H125102   5.778   4.589   4.858 -0.8498  0.7284 -0.1648
 1229TIP3    H225103   5.760   4.467   4.771  0.4277 -0.2767  0.9492
 1230TIP3   OH225104   4.321   6.321   4.763  0.1421  0.2997 -0.6158
 1230TIP3    H125105   4.241   6.353   4.804  0.7623 -0.2486  1.0813
 1230TIP3    H225106   4.305   6.228   4.748  0.0041  0.4530 -1.4030
 1231TIP3   OH225107   0.722   0.519  12.792  0.5749  0.0744  0.6726
 1231TIP3    H125108   0.717   0.501  12.698 -0.4305  0.2451  0.6888
 1231TIP3    H225109   0.778   0.596  12.800  0.6528  0.0631  0.2145
 1232TIP3   OH225110   1.489   5.729  14.280  0.3097 -0.4911  0.3208
 1232TIP3    H125111   1.477   5.771  14.195  0.6146  1.2144  1.0997
 1232TIP3    H225112   1.441   5.646  14.273 -1.2803  0.4959 -0.8585
 1233TIP3   OH225113   3.765   2.608  11.540 -0.7541 -0.1033  0.1822
 1233TIP3    H125114   3.759   2.686  11.484 -0.1605 -1.7867 -2.3224
 1233TIP3    H225115   3.675   2.593  11.569 -0.9327  1.2992  0.3965
 1234TIP3   OH225116   2.627   0.615   3.099  0.3864 -0.2993 -0.3266
 1234TIP3    H125117   2.714   0.603   3.062  0.3275  1.2486 -0.9936
 1234TIP3    H225118   2.577   0.540   3.067  0.6681  0.3652 -2.4039
 1235TIP3   OH225119   0.268   3.856  11.177 -0.8429 -0.1232  0.2396
 1235TIP3    H125120   0.199   3.792  11.160 -0.7743 -0.0667 -0.2521
 1235TIP3    H225121   0.239   3.935  11.133 -0.2357 -0.2365 -0.3646
 1236TIP3   OH225122   2.008   5.198   3.743  0.3208 -0.1080  0.3371
 1236TIP3    H125123   2.096   5.174   3.772  0.1617 -0.4881  0.5151
 1236TIP3    H225124   1.997   5.289   3.770 -0.2955 -0.8176  2.6030
 1237TIP3   OH225125   1.486   4.013   5.630 -0.1907  0.3608  0.0502
 1237TIP3    H125126   1.482   4.023   5.725  1.1209 -3.1297  0.5546
 1237TIP3    H225127   1.395   4.005   5.603 -0.5278  0.3056  1.1722
 1238TIP3   OH225128   6.345   2.354   4.454 -0.8462 -0.6453  0.4200
 1238TIP3    H125129   6.265   2.310   4.481 -1.5236  1.1103  1.3141
 1238TIP3    H225130   6.384   2.295   4.389 -2.6985 -1.6505  0.1900
 1239TIP3   OH225131   4.741   2.678  13.958 -0.0246  0.1225  0.0163
 1239TIP3    H125132   4.700   2.606  13.911 -2.6144  1.7791 -0.3323
 1239TIP3    H225133   4.685   2.754  13.942  3.6383  2.7455 -1.2294
 1240TIP3   OH225134   4.299   5.224  11.192 -0.3603  0.1006 -0.2040
 1240TIP3    H125135   4.338   5.310  11.205 -0.6017  0.3145 -0.8773
 1240TIP3    H225136   4.338   5.170  11.260  0.1124  0.6407 -0.0391
 1241TIP3   OH225137   5.425   4.593   1.053 -0.9804  0.2425  0.1463
 1241TIP3    H125138   5.408   4.575   1.146  0.9568 -0.7360  0.3287
 1241TIP3    H225139   5.372   4.527   1.007 -0.5015 -0.4779  0.6093
 1242TIP3   OH225140   3.182   0.262   2.482  0.5812  0.5333  0.1227
 1242TIP3    H125141   3.139   0.198   2.539  0.1478 -2.3587 -3.2944
 1242TIP3    H225142   3.116   0.330   2.469  0.1900  0.5246  1.8917
 1243TIP3   OH225143   6.511   0.818   3.506 -0.0403 -0.6721  0.2461
 1243TIP3    H125144   6.423   0.793   3.478  0.4242 -1.9142 -0.1393
 1243TIP3    H225145   6.522   0.775   3.591  0.9694 -2.3119 -0.6748
 1244TIP3   OH225146   1.390   1.503  14.826 -0.1095  0.4161 -0.2118
 1244TIP3    H125147   1.350   1.421  14.797  3.6402 -1.5531 -0.1307
 1244TIP3    H225148   1.409   1.550  14.744  0.6375 -0.2743 -0.4501
 1245TIP3   OH225149   5.575   1.287   5.778  0.3463 -0.0096 -0.5580
 1245TIP3    H125150   5.606   1.212   5.727  0.9906 -0.0443 -0.1186
 1245TIP3    H225151   5.619   1.362   5.739  1.0172 -0.0623  0.0840
 1246TIP3   OH225152   0.961   6.385   1.705 -0.0228  0.4561  0.1084
 1246TIP3    H125153   1.033   6.366   1.766 -0.6011  0.5035  0.8188
 1246TIP3    H225154   0.996   6.452   1.647  0.1616  1.2347  1.1049
 1247TIP3   OH225155   0.015   4.379   2.529 -0.3429  0.2456 -0.0310
 1247TIP3    H125156  -0.039   4.443   2.484  0.9233  0.6853 -0.9706
 1247TIP3    H225157   0.095   4.374   2.476  0.6042 -0.2455  1.4051
 1248TIP3   OH225158   3.846   5.724   2.123  0.1230 -0.2896 -0.0219
 1248TIP3    H125159   3.760   5.765   2.109 -0.4417 -0.5268  2.5369
 1248TIP3    H225160   3.842   5.643   2.073 -0.2200  0.8513 -1.9060
 1249TIP3   OH225161   6.624   1.874  13.387 -0.1798  0.2049  0.1676
 1249TIP3    H125162   6.650   1.934  13.317 -0.5143  1.8867  1.4388
 1249TIP3    H225163   6.706   1.855  13.433 -0.3067  0.9973  0.7399
 1250TIP3   OH225164   4.825   4.928   3.225 -0.2919 -0.0802 -0.0269
 1250TIP3    H125165   4.732   4.905   3.233  0.1034 -1.6943  0.0817
 1250TIP3    H225166   4.825   5.009   3.174 -1.6563 -1.3303 -2.0873
 1251TIP3   OH225167   4.967   2.762  12.763  0.1343 -0.3793  0.1661
 1251TIP3    H125168   5.033   2.694  12.775 -0.8442 -1.3842 -0.0089
 1251TIP3    H225169   4.923   2.769  12.848 -0.0768 -0.2858  0.0504
 1252TIP3   OH225170   2.722   5.816   4.366  0.3548  0.5131  0.2600
 1252TIP3    H125171   2.658   5.874   4.326  0.0162 -0.3324 -0.4408
 1252TIP3    H225172   2.791   5.807   4.300 -0.7065 -1.7269 -0.6163
 1253TIP3   OH225173   0.483   5.767   3.372 -0.0099  0.5057  0.5869
 1253TIP3    H125174   0.500   5.835   3.307  1.3806 -0.6532 -0.2924
 1253TIP3    H225175   0.396   5.735   3.350  0.6426 -0.2319 -1.0832
 1254TIP3   OH225176   4.138   5.086  14.004 -0.0976 -0.2878  0.0856
 1254TIP3    H125177   4.192   5.164  14.014  0.6113 -0.8814  0.9257
 1254TIP3    H225178   4.116   5.084  13.911  1.8227 -0.3675 -0.3819
 1255TIP3   OH225179   6.164   1.053   0.747 -0.4995 -0.2130 -0.1124
 1255TIP3    H125180   6.182   0.959   0.748  1.1071  0.0740  0.8127
 1255TIP3    H225181   6.082   1.062   0.699 -0.1609 -2.0002 -1.0557
 1256TIP3   OH225182   2.221   3.538  16.366  0.1000 -0.4508 -0.1207
 1256TIP3    H125183   2.300   3.569  16.322 -1.0773  3.0157  0.0348
 1256TIP3    H225184   2.202   3.454  16.324  2.7626 -0.4233 -1.5019
 1257TIP3   OH225185   4.211   4.931   6.419 -0.1694  0.1003  0.4828
 1257TIP3    H125186   4.145   4.952   6.485 -1.2652  0.1995 -0.6111
 1257TIP3    H225187   4.169   4.866   6.363  0.1681  1.0910 -0.9799
 1258TIP3   OH225188   2.560   0.167  12.302 -0.2541 -0.0037  0.3970
 1258TIP3    H125189   2.475   0.125  12.289 -0.6733 -0.0339  2.9761
 1258TIP3    H225190   2.622   0.111  12.255 -1.2789 -1.5328  0.8275
 1259TIP3   OH225191   0.409   3.113   4.784 -0.1514 -0.0284  0.2406
 1259TIP3    H125192   0.475   3.117   4.715 -1.1270 -0.6857 -0.7577
 1259TIP3    H225193   0.457   3.132   4.865  0.9092  1.2232 -0.6748
 1260TIP3   OH225194   3.786   4.677  16.349  0.2703 -0.4976  0.2673
 1260TIP3    H125195   3.873   4.660  16.384  0.6200  1.6070  0.4241
 1260TIP3    H225196   3.784   4.627  16.267  1.6876 -0.3841  0.1556
 1261TIP3   OH225197   5.268   2.122  16.999 -0.4303  0.4763  0.3670
 1261TIP3    H125198   5.256   2.072  16.918 -0.3385 -0.4969  0.9485
 1261TIP3    H225199   5.312   2.203  16.971 -0.4843  0.1904 -0.5616
 1262TIP3   OH225200   2.302   3.023   2.934  0.1664  0.2196 -0.3780
 1262TIP3    H125201   2.376   2.978   2.975 -1.2899 -1.1850  0.7504
 1262TIP3    H225202   2.331   3.114   2.927  2.4139 -0.4895 -0.9341
 1263TIP3   OH225203   5.747   1.011  12.391  0.3102  0.2343  0.4084
 1263TIP3    H125204   5.754   0.949  12.463  0.1617  1.4420  1.4818
 1263TIP3    H225205   5.757   1.097  12.432  0.2941  0.9362 -1.0168
 1264TIP3   OH225206   5.717   1.465  15.451 -0.1683 -0.5761 -0.0968
 1264TIP3    H125207   5.742   1.552  15.480  0.8365 -0.4172 -1.4218
 1264TIP3    H225208   5.622   1.471  15.436 -0.0181  0.4284 -0.6867
 1265TIP3   OH225209   1.494   0.250   1.172 -0.1107  0.4710 -0.4141
 1265TIP3    H125210   1.461   0.307   1.102 -0.5547 -1.4845 -1.8489
 1265TIP3    H225211   1.589   0.255   1.164 -0.1570  0.4119 -1.0243
 1266TIP3   OH225212   4.221   1.238   4.939  0.8637  0.1131 -0.5710
 1266TIP3    H125213   4.239   1.208   5.028  1.9922  1.0975 -0.4571
 1266TIP3    H225214   4.127   1.258   4.939  1.0904  1.3074  0.7779
 1267TIP3   OH225215   6.665   0.156  13.286 -0.5418  0.6675 -0.4546
 1267TIP3    H125216   6.598   0.105  13.241 -1.4054  2.0238 -0.7546
 1267TIP3    H225217   6.746   0.137  13.239 -0.7812 -0.7215 -0.3110
 1268TIP3   OH225218   0.953   6.211   0.212  0.1021 -0.7579 -0.3115
 1268TIP3    H125219   0.950   6.167   0.127  1.0563 -0.1013 -0.6996
 1268TIP3    H225220   0.942   6.304   0.191  0.1864 -0.6103  0.2925
 1269TIP3   OH225221   2.147   0.619   3.363  0.5777  0.0430 -0.2031
 1269TIP3    H125222   2.109   0.638   3.449 -1.6951 -0.2701 -1.0894
 1269TIP3    H225223   2.151   0.705   3.320  2.6483  0.3439  0.5588
 1270TIP3   OH225224   5.943   5.029  16.588 -0.1897 -0.0984 -0.2832
 1270TIP3    H125225   5.867   4.984  16.625  0.7537 -0.6401  1.0182
 1270TIP3    H225226   5.906   5.086  16.520 -1.7437 -0.4054  0.2830
 1271TIP3   OH225227   6.501   5.265   1.877  0.5453 -0.9818 -0.4532
 1271TIP3    H125228   6.579   5.251   1.823  1.8338 -1.4383  1.4959
 1271TIP3    H225229   6.512   5.206   1.951 -2.9659 -3.0739 -1.4697
 1272TIP3   OH225230   1.863   3.143  10.901 -0.3856 -0.5918  0.4345
 1272TIP3    H125231   1.782   3.164  10.853  0.4544  0.4611 -0.5394
 1272TIP3    H225232   1.870   3.048  10.895 -0.2390 -0.4697 -1.6373
 1273TIP3   OH225233   5.991   6.712  14.479 -0.0097  0.2312  0.1763
 1273TIP3    H125234   5.924   6.764  14.523 -0.7913  0.8261 -1.6799
 1273TIP3    H225235   5.955   6.695  14.392  2.2125  0.4992 -0.8331
 1274TIP3   OH225236   4.948   4.061  15.822 -0.4217  0.0017 -0.4727
 1274TIP3    H125237   4.981   4.089  15.736 -1.6466  2.0373 -0.2985
 1274TIP3    H225238   4.857   4.037  15.807 -0.1646 -1.2813 -0.0580
 1275TIP3   OH225239   1.199   6.553   3.158  0.0142  0.2540  0.0095
 1275TIP3    H125240   1.234   6.627   3.207  0.1923  1.2514 -1.5626
 1275TIP3    H225241   1.118   6.529   3.204  0.2141  1.1018  0.8202
 1276TIP3   OH225242   5.035   3.306   2.296  0.2694 -0.2613  0.1225
 1276TIP3    H125243   4.947   3.342   2.310  0.3096 -0.3508  0.6133
 1276TIP3    H225244   5.075   3.306   2.383  0.3113 -1.4012  0.1076
 1277TIP3   OH225245   3.083   3.640   5.662 -0.1837  0.2521  0.0633
 1277TIP3    H125246   3.018   3.609   5.599  0.8916 -1.0243 -0.4423
 1277TIP3    H225247   3.062   3.733   5.675 -3.1839 -0.5390  1.2373
 1278TIP3   OH225248   2.879   1.705  12.228  0.2818 -0.2597  0.1632
 1278TIP3    H125249   2.870   1.637  12.295  0.6846 -0.2407  0.2397
 1278TIP3    H225250   2.942   1.767  12.265  0.0687  0.0499  0.0091
 1279TIP3   OH225251   2.752   2.096  12.947 -0.0600 -0.2130 -0.2994
 1279TIP3    H125252   2.830   2.141  12.917 -0.3498 -0.1036 -0.9000
 1279TIP3    H225253   2.745   2.019  12.890 -0.2370 -0.3697 -0.0708
 1280TIP3   OH225254   3.321   3.604  13.807 -0.6447  0.4018  0.4044
 1280TIP3    H125255   3.375   3.682  13.797  0.9216 -0.8397 -1.1834
 1280TIP3    H225256   3.381   3.531  13.788 -2.8275 -1.0225 -1.2011
 1281TIP3   OH225257   3.360   1.288  11.156 -0.0487  0.6374 -0.3983
 1281TIP3    H125258   3.297   1.350  11.121  0.4159  0.3540 -1.7392
 1281TIP3    H225259   3.414   1.340  11.216 -1.9319  0.7444  1.2599
 1282TIP3   OH225260   3.683   6.690   2.875 -0.3958 -0.3874 -0.2934
 1282TIP3    H125261   3.741   6.619   2.901  2.1273  1.8517  0.4322
 1282TIP3    H225262   3.720   6.722   2.793 -2.5234 -0.9821 -1.5220
 1283TIP3   OH225263   1.187   5.791   4.480  0.0447  0.6169  0.4805
 1283TIP3    H125264   1.202   5.880   4.447 -1.8894  0.9837  0.5370
 1283TIP3    H225265   1.094   5.775   4.464  0.5298 -1.6833 -0.2019
 1284TIP3   OH225266   2.986   2.379   4.620 -0.1420 -0.4151 -0.3026
 1284TIP3    H125267   3.006   2.453   4.677  1.5754 -0.1319 -1.2079
 1284TIP3    H225268   3.020   2.405   4.534 -1.6741 -1.2814 -1.1876
 1285TIP3   OH225269   0.931   5.071  12.870 -0.0880  0.5150 -0.0193
 1285TIP3    H125270   0.947   5.021  12.950 -1.9259  1.5631  1.0064
 1285TIP3    H225271   1.019   5.097  12.841  0.7027 -1.1058  0.8307
 1286TIP3   OH225272   0.928   3.161  12.323 -0.1425  0.3985 -0.1003
 1286TIP3    H125273   1.008   3.148  12.272 -0.0784 -0.2949  0.1620
 1286TIP3    H225274   0.891   3.242  12.291  1.2075  1.2622  0.4731
 1287TIP3   OH225275   0.624   6.455   0.659 -0.0788  0.5757 -0.5035
 1287TIP3    H125276   0.645   6.364   0.638 -0.7749  0.8910 -2.6843
 1287TIP3    H225277   0.668   6.506   0.591  0.9015  1.9375  1.1184
 1288TIP3   OH225278   0.767   6.000   5.638 -0.2218 -0.3066 -0.4099
 1288TIP3    H125279   0.853   6.037   5.618 -0.4857  0.1130 -0.7752
 1288TIP3    H225280   0.749   5.940   5.566 -0.7994  0.5665 -0.9975
 1289TIP3   OH225281   0.352   2.751  12.690 -0.3719  0.2551 -0.5724
 1289TIP3    H125282   0.373   2.783  12.778 -0.3505 -1.2589 -0.0185
 1289TIP3    H225283   0.396   2.812  12.631  1.9822 -0.3623  0.5144
 1290TIP3   OH225284   1.184   5.562   3.605  0.6806 -0.0908 -0.1705
 1290TIP3    H125285   1.255   5.498   3.603  0.8409  0.0690 -3.5267
 1290TIP3    H225286   1.106   5.510   3.626  1.0464 -1.1875 -1.4277
 1291TIP3   OH225287   6.089   4.648  11.111 -0.0588  0.2174  0.6799
 1291TIP3    H125288   6.042   4.714  11.163 -0.7580 -0.3022  0.7144
 1291TIP3    H225289   6.026   4.577  11.100  0.0244  0.3782 -1.0191
 1292TIP3   OH225290   4.956   4.832   2.837  0.0043  0.4242  0.0728
 1292TIP3    H125291   4.896   4.758   2.830  2.6562 -2.1417  2.7080
 1292TIP3    H225292   5.043   4.793   2.827  1.4435  3.3670  0.5858
 1293TIP3   OH225293   5.215   5.285  13.170  0.3668 -0.2938  0.1458
 1293TIP3    H125294   5.201   5.361  13.226 -0.4928 -0.3306 -0.0120
 1293TIP3    H225295   5.300   5.250  13.198 -0.5655 -0.9888  2.2037
 1294TIP3   OH225296   1.004   3.635  11.040 -0.5946 -0.7283 -0.1774
 1294TIP3    H125297   0.927   3.692  11.033 -2.0074 -2.5145  0.2769
 1294TIP3    H225298   1.035   3.626  10.950  0.0162  1.2124 -0.1854
 1295TIP3   OH225299   6.224   4.412  13.068 -0.0520 -0.5516  0.3122
 1295TIP3    H125300   6.199   4.466  13.143  0.7960  0.5761 -0.2184
 1295TIP3    H225301   6.227   4.472  12.994 -0.2100 -1.5363 -0.4979
 1296TIP3   OH225302   4.448   2.235  17.231  0.3035  0.2050 -0.0180
 1296TIP3    H125303   4.375   2.290  17.201 -1.5926 -1.0673  2.1612
 1296TIP3    H225304   4.467   2.179  17.156 -0.5874  0.9061 -0.7935
 1297TIP3   OH225305   4.250   2.939   3.638  0.6172 -0.0624 -0.0703
 1297TIP3    H125306   4.272   3.031   3.622  0.0586  0.0423 -0.2656
 1297TIP3    H225307   4.154   2.938   3.645  0.7337 -0.3099  1.9883
 1298TIP3   OH225308   1.803   1.433  15.935  0.0629  0.2920  0.1574
 1298TIP3    H125309   1.765   1.521  15.938  1.0333  0.7532 -0.9959
 1298TIP3    H225310   1.727   1.376  15.920 -0.5438  0.9433  0.6890
 1299TIP3   OH225311   4.076   3.617   4.476  0.0542  0.8052  0.1532
 1299TIP3    H125312   4.165   3.650   4.475  1.3461 -2.4759  0.0775
 1299TIP3    H225313   4.065   3.575   4.390 -1.3655  0.7078  0.3623
 1300TIP3   OH225314   0.396   6.529   3.897  0.0720  0.2152 -0.0427
 1300TIP3    H125315   0.345   6.466   3.949  0.9826  1.0821  1.9369
 1300TIP3    H225316   0.359   6.614   3.921  0.2276  0.6022 -1.1581
 1301TIP3   OH225317   4.901   3.456  11.333 -0.3506 -0.2470  0.3591
 1301TIP3    H125318   4.823   3.409  11.301 -0.1386 -0.9563  0.8707
 1301TIP3    H225319   4.937   3.498  11.255 -0.2317 -1.3882 -0.2053
 1302TIP3   OH225320   1.344   2.008   6.342  0.3845  0.3334  0.2573
 1302TIP3    H125321   1.395   1.934   6.376  0.2574 -0.2019 -0.6871
 1302TIP3    H225322   1.410   2.073   6.318  0.5473  0.1776  0.2821
 1303TIP3   OH225323   0.266   6.348   4.062 -0.3481  0.7125  0.4096
 1303TIP3    H125324   0.302   6.379   4.145 -2.3529 -0.7925  1.8927
 1303TIP3    H225325   0.173   6.333   4.080 -0.6886 -0.2473 -1.9362
 1304TIP3   OH225326   1.541   0.829   2.370 -0.5825 -0.8586  0.0767
 1304TIP3    H125327   1.509   0.744   2.399  0.3554 -1.2076  0.1053
 1304TIP3    H225328   1.599   0.858   2.441 -0.2763 -0.5657 -0.2913
 1305TIP3   OH225329   5.248   0.163   2.635 -0.1213 -0.0728  0.3135
 1305TIP3    H125330   5.164   0.134   2.597 -0.5234 -0.1477  1.2522
 1305TIP3    H225331   5.270   0.097   2.700  0.0037  0.6303  0.9998
 1306TIP3   OH225332   3.569   6.116  14.604  0.1397  0.6589  0.4201
 1306TIP3    H125333   3.651   6.108  14.651 -0.7472  1.3318  2.1250
 1306TIP3    H225334   3.509   6.056  14.649 -0.5926  0.9556 -0.1368
 1307TIP3   OH225335   4.368   1.062   4.245 -0.2625 -0.9682  0.0045
 1307TIP3    H125336   4.430   1.005   4.198  0.5159 -0.5846  0.5542
 1307TIP3    H225337   4.402   1.065   4.335  1.4117  2.7139 -0.6425
 1308TIP3   OH225338   2.842   2.906   4.646 -0.5298  0.9125 -0.5886
 1308TIP3    H125339   2.871   2.883   4.734 -1.2653 -3.2407 -1.3001
 1308TIP3    H225340   2.915   2.953   4.608  1.4936 -0.9346  0.8755
 1309TIP3   OH225341   3.702   3.948  15.947  0.3745  0.0502 -1.1194
 1309TIP3    H125342   3.655   3.903  15.877 -0.9896 -0.0307 -0.1841
 1309TIP3    H225343   3.792   3.954  15.916 -0.4589  1.1664 -3.4357
 1310TIP3   OH225344   4.421   5.452   0.562  0.2812  0.4783 -0.3262
 1310TIP3    H125345   4.389   5.376   0.515 -0.3717  0.5854 -0.0602
 1310TIP3    H225346   4.488   5.418   0.621  0.5527  0.2314 -0.7780
 1311TIP3   OH225347   4.637   5.047  16.067  0.2915  0.6504  0.0857
 1311TIP3    H125348   4.622   5.139  16.046 -0.1201  0.4227 -0.6252
 1311TIP3    H225349   4.649   5.046  16.162 -3.1935  1.0097  0.6135
 1312TIP3   OH225350   1.192   1.759  13.882 -0.0833  0.3077 -0.3170
 1312TIP3    H125351   1.132   1.711  13.826 -1.5235  2.9783 -1.1740
 1312TIP3    H225352   1.242   1.815  13.822 -0.2987  1.7948  0.8404
 1313TIP3   OH225353   3.470   0.118   4.851 -0.2013  0.0435 -0.4964
 1313TIP3    H125354   3.441   0.051   4.913 -1.6639  0.3680 -0.8261
 1313TIP3    H225355   3.507   0.187   4.905  1.6435 -1.1593 -0.1631
 1314TIP3   OH225356   3.846   4.003  13.092 -0.0274 -0.0368 -0.1958
 1314TIP3    H125357   3.916   4.049  13.045  1.0310 -0.5902  0.8164
 1314TIP3    H225358   3.868   3.910  13.083  0.4259 -0.1426  1.7080
 1315TIP3   OH225359   5.774   6.758  12.266  0.1459 -0.2712 -0.0603
 1315TIP3    H125360   5.762   6.745  12.360 -1.3360 -0.0495 -0.2092
 1315TIP3    H225361   5.857   6.716  12.246  1.4571  1.4233  1.7031
 1316TIP3   OH225362   3.191   3.456  11.560  0.0103 -0.4221  0.3179
 1316TIP3    H125363   3.269   3.440  11.507 -0.6202  0.8380 -1.0142
 1316TIP3    H225364   3.149   3.531  11.519 -0.2377  0.9141  2.9001
 1317TIP3   OH225365   3.130   1.828  12.123  0.3402  0.1011 -0.1887
 1317TIP3    H125366   3.045   1.787  12.108  0.5058  0.4613 -2.3794
 1317TIP3    H225367   3.120   1.877  12.205 -1.4146 -0.2188 -0.1990
 1318TIP3   OH225368   4.123   4.790  13.702  0.2529  0.1936 -0.5183
 1318TIP3    H125369   4.082   4.822  13.782 -1.0214  0.9459 -1.4523
 1318TIP3    H225370   4.059   4.731  13.663  1.6537 -1.7064 -0.0078
 1319TIP3   OH225371   1.597   4.623  12.130  0.1150  0.4662  0.3142
 1319TIP3    H125372   1.649   4.679  12.072  0.3017  0.1150  0.1452
 1319TIP3    H225373   1.656   4.553  12.156 -0.1523  0.2877  0.4483
 1320TIP3   OH225374   3.028   5.467  14.071 -0.8876 -0.0383  0.0227
 1320TIP3    H125375   3.120   5.446  14.088 -1.1546 -1.2645 -0.0135
 1320TIP3    H225376   3.028   5.561  14.053  0.6481 -0.3584 -1.8558
 1321TIP3   OH225377   1.585   2.308   1.777  0.1235  0.2983  0.2419
 1321TIP3    H125378   1.599   2.219   1.744  0.8709  1.0036 -1.4287
 1321TIP3    H225379   1.651   2.318   1.846  1.4182  0.2459 -0.9647
 1322TIP3   OH225380   1.677   3.810   4.616  0.1089 -0.4824  0.5298
 1322TIP3    H125381   1.705   3.875   4.552 -0.4041  0.0537  0.8418
 1322TIP3    H225382   1.689   3.725   4.572  0.6284 -0.1694  0.0677
 1323TIP3   OH225383   1.321   6.447  12.897  0.1161  0.1329 -0.0478
 1323TIP3    H125384   1.229   6.443  12.869 -0.6388  0.6255  2.2620
 1323TIP3    H225385   1.351   6.357  12.894 -0.3959 -0.0212 -0.9020
 1324TIP3   OH225386   0.649   1.256   2.854 -1.2013 -0.0702  0.1123
 1324TIP3    H125387   0.641   1.162   2.842  1.1596 -0.0881 -1.6319
 1324TIP3    H225388   0.648   1.269   2.949 -1.6183 -1.8276  0.3535
 1325TIP3   OH225389   0.470   1.223  11.970 -0.0416 -0.2472 -0.0189
 1325TIP3    H125390   0.456   1.315  11.945  2.6246  0.3725  0.6640
 1325TIP3    H225391   0.396   1.204  12.028 -1.9467  0.6980 -2.0370
 1326TIP3   OH225392   1.000   4.280   1.192 -0.1889 -1.0204 -0.3133
 1326TIP3    H125393   0.956   4.209   1.239 -1.4348  1.1987  1.9662
 1326TIP3    H225394   0.965   4.274   1.103 -1.5574 -2.2151  0.2679
 1327TIP3   OH225395   0.087   0.936   6.295 -0.0750  0.5977  0.0015
 1327TIP3    H125396   0.036   0.900   6.223  0.6359  0.3501 -0.3817
 1327TIP3    H225397   0.112   1.024   6.267 -0.8996  1.0011  0.4942
 1328TIP3   OH225398   6.503   5.679   0.471 -0.5781  0.5979 -0.1903
 1328TIP3    H125399   6.535   5.665   0.382 -0.1387 -0.7801  0.1604
 1328TIP3    H225400   6.579   5.712   0.519 -0.8363  1.4178 -0.3505
 1329TIP3   OH225401   3.827   2.672   3.843  0.2107 -0.0180  0.0041
 1329TIP3    H125402   3.759   2.728   3.880  0.9148  0.1845  1.0176
 1329TIP3    H225403   3.852   2.615   3.915  0.7183 -0.4669 -0.5286
 1330TIP3   OH225404   4.905   1.708   3.682  0.0689  0.2377 -0.3809
 1330TIP3    H125405   4.829   1.653   3.699  0.2137 -0.1920 -1.1251
 1330TIP3    H225406   4.968   1.683   3.750 -0.9432  1.5506  1.0816
 1331TIP3   OH225407   1.714   5.585  14.185  0.5644  0.4537  0.5676
 1331TIP3    H125408   1.737   5.628  14.102 -1.0599 -1.4900 -0.9425
 1331TIP3    H225409   1.640   5.636  14.218 -1.5248 -1.2113 -1.3458
 1332TIP3   OH225410   1.444   1.726  16.339  0.1505 -0.2358 -0.0228
 1332TIP3    H125411   1.520   1.726  16.281 -0.4805  0.8730 -0.8706
 1332TIP3    H225412   1.439   1.637  16.372  1.6587 -0.3921 -0.1653
 1333TIP3   OH225413   3.318   2.133   6.536  0.7838 -0.4264 -0.5483
 1333TIP3    H125414   3.255   2.178   6.479  1.1640 -2.4852 -2.6557
 1333TIP3    H225415   3.401   2.178   6.520  1.0034 -1.3535 -2.0554
 1334TIP3   OH225416   1.088   4.163   4.362  0.6037 -0.2062 -0.6440
 1334TIP3    H125417   1.075   4.225   4.434 -1.4890  0.1125 -1.2478
 1334TIP3    H225418   1.120   4.083   4.404 -0.0463  0.1597  0.5747
 1335TIP3   OH225419   5.386   5.722  15.177  0.3041 -0.2312  0.3182
 1335TIP3    H125420   5.334   5.665  15.233 -0.6769  0.0857 -0.2643
 1335TIP3    H225421   5.392   5.675  15.094 -0.4115  0.4577 -0.1275
 1336TIP3   OH225422   2.669   2.616   2.191 -0.3028  0.2275  0.2704
 1336TIP3    H125423   2.634   2.617   2.281 -0.5925 -1.1920  0.1783
 1336TIP3    H225424   2.764   2.615   2.202 -0.3471 -0.9270  0.5764
 1337TIP3   OH225425   6.362   5.987   0.225  0.3508  0.6105 -0.2856
 1337TIP3    H125426   6.432   6.011   0.164  0.9330  1.8138  0.8396
 1337TIP3    H225427   6.406   5.976   0.309 -0.5510 -0.3734  0.0672
 1338TIP3   OH225428   6.519   1.882  13.978 -0.4375  0.1023 -0.2964
 1338TIP3    H125429   6.561   1.898  13.893  0.0669  1.1813  0.1510
 1338TIP3    H225430   6.426   1.890  13.960 -0.2774  1.6892 -0.4846
 1339TIP3   OH225431   4.241   6.514   3.389  0.7384 -0.0494 -0.1889
 1339TIP3    H125432   4.267   6.542   3.301  0.1329  1.6068  0.1405
 1339TIP3    H225433   4.324   6.489   3.431  0.7441 -3.4641 -2.0746
 1340TIP3   OH225434   1.695   0.910   5.195  0.2927  0.5268  0.2123
 1340TIP3    H125435   1.758   0.925   5.265  0.3224  0.8604  0.1155
 1340TIP3    H225436   1.643   0.990   5.191  0.7890  0.8197 -0.6516
 1341TIP3   OH225437   6.010   5.652  12.354 -0.7201 -0.5114  0.1623
 1341TIP3    H125438   5.919   5.655  12.325 -0.3594  0.3689 -0.9399
 1341TIP3    H225439   6.050   5.584  12.300 -0.6078 -0.5105  0.2439
 1342TIP3   OH225440   2.281   5.290  12.943 -0.7452  0.2098 -0.0296
 1342TIP3    H125441   2.308   5.211  12.896 -0.4522  0.1556  0.2208
 1342TIP3    H225442   2.275   5.358  12.876 -2.5971 -0.4025 -0.5087
 1343TIP3   OH225443   1.419   5.351   0.818  0.4153 -0.1970 -0.2404
 1343TIP3    H125444   1.439   5.441   0.846 -0.9736 -0.1801  0.7256
 1343TIP3    H225445   1.440   5.350   0.724  0.2563  1.1896 -0.3040
 1344TIP3   OH225446   6.500   3.120   5.469 -0.4733  0.1550 -0.4568
 1344TIP3    H125447   6.491   3.126   5.564 -1.7958 -2.7002 -0.3580
 1344TIP3    H225448   6.559   3.046   5.455  1.2352  1.7199 -1.8558
 1345TIP3   OH225449   3.222   6.134   3.797 -0.1699  0.4656 -1.0462
 1345TIP3    H125450   3.134   6.152   3.828 -0.1856 -0.2723 -0.6221
 1345TIP3    H225451   3.215   6.049   3.754  1.0014 -1.3858  2.1735
 1346TIP3   OH225452   0.569   6.674  14.476 -0.7375 -0.3328 -0.2174
 1346TIP3    H125453   0.639   6.622  14.438 -1.3018 -0.7402 -0.7067
 1346TIP3    H225454   0.613   6.750  14.513 -0.0899 -0.3391 -0.9622
 1347TIP3   OH225455   6.574   2.948  13.606 -0.0865 -0.0851 -0.4050
 1347TIP3    H125456   6.570   2.919  13.697  1.0367  0.7975 -0.0711
 1347TIP3    H225457   6.667   2.954  13.586 -0.3263 -0.6053 -1.7279
 1348TIP3   OH225458   5.053   3.665  15.092 -0.0784  0.8157 -0.2645
 1348TIP3    H125459   4.995   3.615  15.035  1.1530  2.2109 -2.8289
 1348TIP3    H225460   5.134   3.615  15.095  0.5389  1.7426 -1.3706
 1349TIP3   OH225461   5.187   1.533   5.749  0.3781 -0.4816  0.1903
 1349TIP3    H125462   5.241   1.608   5.724  0.7386 -1.3303 -1.6610
 1349TIP3    H225463   5.248   1.460   5.755 -0.2749 -1.0463  0.0377
 1350TIP3   OH225464   5.040   5.076  15.137  0.2955  0.9161  0.1425
 1350TIP3    H125465   5.113   5.044  15.190  0.6265 -0.8962 -1.3260
 1350TIP3    H225466   5.061   5.167  15.119  1.1880  0.9712  1.4215
 1351TIP3   OH225467   2.233   4.829   2.416  0.1963 -0.2495 -0.0911
 1351TIP3    H125468   2.244   4.921   2.442 -1.5017  0.0250 -0.2948
 1351TIP3    H225469   2.289   4.819   2.339  0.0680  0.7180 -0.3093
 1352TIP3   OH225470   6.027   1.190  15.615  0.0224  0.2139 -0.2470
 1352TIP3    H125471   6.008   1.108  15.659 -0.7570  1.1550  1.2119
 1352TIP3    H225472   6.018   1.170  15.521  2.7231 -2.0302 -0.0576
 1353TIP3   OH225473   6.690   3.867   5.255  0.7121  0.3482  0.2097
 1353TIP3    H125474   6.627   3.797   5.267  1.2424 -0.2099 -0.2353
 1353TIP3    H225475   6.709   3.898   5.343 -0.7400  1.0303  0.3056
 1354TIP3   OH225476   2.718   1.701   1.085 -0.4939  0.4995  0.1792
 1354TIP3    H125477   2.701   1.759   1.160 -0.4610  1.2392 -0.3793
 1354TIP3    H225478   2.751   1.759   1.016 -2.5376  0.1750 -1.1190
 1355TIP3   OH225479   3.300   1.806   4.531  0.2077 -0.3413 -0.0972
 1355TIP3    H125480   3.320   1.868   4.602  0.8370 -1.5376  0.7916
 1355TIP3    H225481   3.224   1.758   4.563  1.3376 -1.8438  0.4048
 1356TIP3   OH225482   6.208   5.560   3.798  0.2215 -0.1234 -0.1855
 1356TIP3    H125483   6.136   5.622   3.784 -1.6050 -1.9579  0.9879
 1356TIP3    H225484   6.193   5.491   3.734  1.7233  0.1128 -0.8338
 1357TIP3   OH225485   1.542   3.871  15.299 -0.0126 -0.5002  0.1649
 1357TIP3    H125486   1.528   3.799  15.361 -0.4278  0.0703  0.7377
 1357TIP3    H225487   1.455   3.908  15.284  0.0272 -0.9008 -1.0932
 1358TIP3   OH225488   5.977   3.665   4.265 -0.1745 -0.2262  0.0050
 1358TIP3    H125489   5.986   3.620   4.181 -0.5369 -0.1001 -0.1003
 1358TIP3    H225490   6.067   3.689   4.289  0.1195 -1.6622  0.4203
 1359TIP3   OH225491   0.464   0.121  16.221 -0.0548  0.0227  0.9917
 1359TIP3    H125492   0.521   0.044  16.223 -0.9428 -0.6481  0.5739
 1359TIP3    H225493   0.474   0.155  16.132 -0.8499 -0.5081  0.6970
 1360TIP3   OH225494   3.150   4.607   5.061 -0.0243  0.2984 -0.2692
 1360TIP3    H125495   3.202   4.652   4.994  0.6954 -2.2609 -1.5128
 1360TIP3    H225496   3.215   4.572   5.122 -0.5609  0.8146  0.6087
 1361TIP3   OH225497   4.179   1.423  12.297  0.5915  0.3677  0.1804
 1361TIP3    H125498   4.217   1.438  12.383 -0.7298 -0.6368  0.9519
 1361TIP3    H225499   4.242   1.367  12.252  0.8453  0.1402  0.8186
 1362TIP3   OH225500   5.260   6.027  16.826 -0.1289 -0.1492 -0.3723
 1362TIP3    H125501   5.299   6.095  16.881 -0.0114  0.4757 -1.2079
 1362TIP3    H225502   5.329   5.961  16.816  0.3480  0.4335 -0.9570
 1363TIP3   OH225503   2.703   0.800   2.802  0.4517  0.8984 -0.5403
 1363TIP3    H125504   2.620   0.759   2.779  0.9161 -0.1242 -0.4260
 1363TIP3    H225505   2.723   0.766   2.889  2.2305 -0.8474 -1.6056
 1364TIP3   OH225506   0.662   5.036  15.300  0.0363  0.1319 -0.4890
 1364TIP3    H125507   0.729   4.981  15.259  1.3541  1.2171  0.1654
 1364TIP3    H225508   0.622   4.980  15.366  1.1016 -0.1736 -0.0961
 1365TIP3   OH225509   1.937   4.918  15.000 -0.0968  0.4322  0.0623
 1365TIP3    H125510   1.936   4.864  15.079 -0.2429  0.5954  0.1722
 1365TIP3    H225511   1.845   4.944  14.988 -0.0816  0.3791 -0.1804
 1366TIP3   OH225512   1.280   4.865  15.359 -0.2274  0.8949  0.1038
 1366TIP3    H125513   1.245   4.797  15.301 -0.6751  2.5348 -1.5800
 1366TIP3    H225514   1.362   4.892  15.317  0.5175  0.6455  1.3579
 1367TIP3   OH225515   4.445   5.347  13.446 -0.0962 -0.1312 -0.0624
 1367TIP3    H125516   4.367   5.364  13.498 -0.3680 -2.5508  0.3860
 1367TIP3    H225517   4.510   5.411  13.477 -1.9945  2.1764 -0.7395
 1368TIP3   OH225518   3.847   3.862   0.762  0.2317  0.0651 -0.0224
 1368TIP3    H125519   3.882   3.809   0.833 -1.0355 -0.4431  0.2319
 1368TIP3    H225520   3.822   3.799   0.695 -0.2056  0.4107 -0.1914
 1369TIP3   OH225521   5.055   0.884   1.489 -0.2515 -0.2537  0.0967
 1369TIP3    H125522   5.003   0.957   1.522  0.6569  0.3001  0.3307
 1369TIP3    H225523   5.066   0.904   1.396 -1.0262 -0.7254 -0.1019
 1370TIP3   OH225524   6.595   4.189  13.551  0.5860 -0.7399  0.4906
 1370TIP3    H125525   6.656   4.199  13.477  3.2879 -4.0999  2.1416
 1370TIP3    H225526   6.510   4.173  13.510  1.5950 -0.2805 -1.8738
 1371TIP3   OH225527   3.958   0.179  12.134  0.1763  0.2373 -0.2658
 1371TIP3    H125528   4.016   0.240  12.088  1.4440 -0.4229  0.4451
 1371TIP3    H225529   4.016   0.127  12.189 -1.0100 -0.9419 -0.0994
 1372TIP3   OH225530   0.732   2.626   5.913  0.6779  0.0508 -0.3286
 1372TIP3    H125531   0.749   2.694   5.979 -1.5489  0.3123  0.0136
 1372TIP3    H225532   0.703   2.550   5.963 -2.1224  0.6121 -1.0412
 1373TIP3   OH225533   0.651   6.351   0.924 -0.2124  0.2667  0.0240
 1373TIP3    H125534   0.693   6.394   0.850  0.2591 -0.1721  0.0331
 1373TIP3    H225535   0.629   6.422   0.984 -2.9508  0.9146 -1.6684
 1374TIP3   OH225536   3.691   4.271   3.883  0.0222  0.3894 -0.2152
 1374TIP3    H125537   3.703   4.184   3.923  0.3576  0.7566  0.4912
 1374TIP3    H225538   3.776   4.313   3.893 -0.1490  0.8098 -0.5464
 1375TIP3   OH225539   6.392   4.677   1.912 -0.5651  0.1624 -0.8676
 1375TIP3    H125540   6.485   4.654   1.918 -0.0181  2.3961 -0.6744
 1375TIP3    H225541   6.368   4.657   1.822  0.9924  2.7918 -1.9144
 1376TIP3   OH225542   4.949   0.789  17.116  0.2987  0.4412  0.5433
 1376TIP3    H125543   5.040   0.780  17.146  0.4574 -0.7714 -0.2680
 1376TIP3    H225544   4.957   0.832  17.031  0.2059 -0.9065 -0.1478
 1377TIP3   OH225545   4.560   3.930   0.228 -0.2269  0.3522 -0.6145
 1377TIP3    H125546   4.509   3.919   0.148  0.9030  0.9065 -1.4333
 1377TIP3    H225547   4.642   3.969   0.198  0.7504 -0.6865  0.6343
 1378TIP3   OH225548   1.309   2.080  12.537  0.0663  0.5743 -0.0381
 1378TIP3    H125549   1.248   2.035  12.596 -1.7616  1.6098 -1.1086
 1378TIP3    H225550   1.307   2.171  12.567  1.8258  0.4453  0.5174
 1379TIP3   OH225551   6.251   0.537  16.023 -0.4856  0.6153 -0.2808
 1379TIP3    H125552   6.200   0.483  16.083  0.1674 -0.1442 -0.4007
 1379TIP3    H225553   6.233   0.627  16.050  1.4101  0.2418  2.3851
 1380TIP3   OH225554   4.368   0.371   1.153 -0.0589  0.2988 -0.1590
 1380TIP3    H125555   4.336   0.283   1.137 -1.1581  0.6929 -0.2015
 1380TIP3    H225556   4.322   0.400   1.231  2.3547 -0.1665  1.4818
 1381TIP3   OH225557   4.757   1.742  16.403 -0.0165  0.1382  0.1949
 1381TIP3    H125558   4.840   1.791  16.400  0.1322 -0.1345 -3.4667
 1381TIP3    H225559   4.781   1.653  16.377 -1.3845 -0.0185 -0.5837
 1382TIP3   OH225560   3.869   3.872   1.697  0.2869  0.4711  0.4835
 1382TIP3    H125561   3.790   3.900   1.742  0.2423  1.3518 -0.1418
 1382TIP3    H225562   3.938   3.877   1.763  0.2360  1.8345  0.4481
 1383TIP3   OH225563   3.709   3.456  14.149 -0.7183 -0.4279  0.1172
 1383TIP3    H125564   3.614   3.442  14.148 -0.9707  0.7342  2.4837
 1383TIP3    H225565   3.724   3.519  14.078 -2.1062  1.2920  1.2792
 1384TIP3   OH225566   3.275   0.392  10.773  0.1817  0.1271 -0.3457
 1384TIP3    H125567   3.203   0.378  10.835  0.1316  0.9429 -0.2189
 1384TIP3    H225568   3.232   0.390  10.687 -0.0076  0.7240 -0.2652
 1385TIP3   OH225569   3.984   6.426   3.312 -0.4001 -0.3826  0.0280
 1385TIP3    H125570   4.022   6.346   3.277 -0.5069 -0.7421  0.7336
 1385TIP3    H225571   4.059   6.479   3.337 -0.3394 -0.4429 -0.0240
 1386TIP3   OH225572   5.907   3.431   4.899 -0.1249  0.2087  0.4864
 1386TIP3    H125573   5.900   3.401   4.809  0.9766 -2.1724  1.1598
 1386TIP3    H225574   5.817   3.426   4.933 -0.1482 -1.1958  0.2317
 1387TIP3   OH225575   0.765   3.426   2.662  0.0917 -0.2613 -0.6560
 1387TIP3    H125576   0.746   3.375   2.583 -0.0194  0.8216 -1.3349
 1387TIP3    H225577   0.728   3.374   2.733 -0.8833 -0.6601 -1.4451
 1388TIP3   OH225578   5.088   5.336   4.541  0.0749 -0.1476 -0.5444
 1388TIP3    H125579   5.047   5.415   4.506  1.0264  1.0507  0.9793
 1388TIP3    H225580   5.044   5.321   4.624  1.8174  0.4263  0.5005
 1389TIP3   OH225581   4.453   4.675   2.253  0.2142  0.1563  0.2032
 1389TIP3    H125582   4.481   4.682   2.162 -0.3187 -0.2320  0.0095
 1389TIP3    H225583   4.389   4.603   2.254  0.6404 -0.2239  0.9805
 1390TIP3   OH225584   3.654   5.274   0.596  0.0529  0.5461 -0.2297
 1390TIP3    H125585   3.731   5.219   0.612  1.0842  1.7984 -0.8624
 1390TIP3    H225586   3.648   5.329   0.674  0.5168  1.2859 -0.7122
 1391TIP3   OH225587   1.275   1.227   2.094  0.2988 -0.4937 -0.3291
 1391TIP3    H125588   1.206   1.259   2.152  0.9005  0.7544 -0.2721
 1391TIP3    H225589   1.334   1.179   2.152  0.4630  0.0500 -0.0350
 1392TIP3   OH225590   4.179   5.534   0.186 -0.0103  0.3717 -0.2342
 1392TIP3    H125591   4.086   5.527   0.208 -0.1137  1.1083 -0.4517
 1392TIP3    H225592   4.193   5.464   0.122 -0.7070  1.0753 -1.1799
 1393TIP3   OH225593   3.519   1.509  14.102 -0.0729 -0.2232 -0.2069
 1393TIP3    H125594   3.517   1.503  14.197  0.9171  0.1875 -0.1631
 1393TIP3    H225595   3.438   1.556  14.080  0.0310  0.2933  0.4781
 1394TIP3   OH225596   3.468   1.157  10.703 -0.2819 -0.5562  0.7096
 1394TIP3    H125597   3.499   1.244  10.678 -0.6434 -0.8112 -0.7238
 1394TIP3    H225598   3.399   1.174  10.767  0.6162  0.1402  1.5111
 1395TIP3   OH225599   4.236   3.600   5.241 -0.0919  0.1863  0.3500
 1395TIP3    H125600   4.301   3.634   5.180  0.0728  0.8580  0.9030
 1395TIP3    H225601   4.223   3.509   5.213  1.3933 -0.0861  0.5037
 1396TIP3   OH225602   6.627   4.237   3.685 -0.2977  0.4848  0.9836
 1396TIP3    H125603   6.569   4.258   3.612 -0.1617 -1.3405  0.3076
 1396TIP3    H225604   6.578   4.172   3.737  0.8652 -0.6251  0.7310
 1397TIP3   OH225605   3.475   6.426   2.741 -0.3622  0.1378 -0.2931
 1397TIP3    H125606   3.545   6.486   2.718 -2.8239  1.9085 -3.4745
 1397TIP3    H225607   3.492   6.347   2.690 -0.1336  0.1548 -0.2428
 1398TIP3   OH225608   0.719   5.808   1.963  0.1431  0.0776 -0.1667
 1398TIP3    H125609   0.760   5.730   1.925 -0.1606  0.8171 -2.0903
 1398TIP3    H225610   0.642   5.823   1.909 -0.7019  0.7686  1.2093
 1399TIP3   OH225611   4.073   6.587  11.777  0.2422 -0.3962  0.2949
 1399TIP3    H125612   4.033   6.505  11.748  1.7907 -0.6660 -1.1073
 1399TIP3    H225613   4.150   6.559  11.827 -0.5626  0.1571  1.8770
 1400TIP3   OH225614   3.289   3.673   5.003  0.7582 -0.3236  0.1292
 1400TIP3    H125615   3.339   3.747   4.967 -0.3284  0.2256 -0.2860
 1400TIP3    H225616   3.260   3.703   5.089 -0.1627 -0.0415 -0.2723
 1401TIP3   OH225617   3.339   3.093  13.503  0.4027  0.1082 -0.9902
 1401TIP3    H125618   3.370   3.162  13.444 -0.6078  1.0132 -0.4809
 1401TIP3    H225619   3.285   3.139  13.567 -0.5571 -1.2024 -0.8345
 1402TIP3   OH225620   2.553   0.094  16.639 -0.3015 -0.3433 -0.1807
 1402TIP3    H125621   2.607   0.016  16.649  1.7172  0.9650 -0.5614
 1402TIP3    H225622   2.555   0.113  16.545 -1.0126  0.0131 -0.1301
 1403TIP3   OH225623   0.216   4.271  12.282  0.2530  0.5251  0.4492
 1403TIP3    H125624   0.290   4.266  12.342  0.5197  0.4193  0.1143
 1403TIP3    H225625   0.217   4.187  12.235  0.2127  0.7171  0.1015
 1404TIP3   OH225626   0.542   6.221   5.267  0.1599  0.1634  0.1104
 1404TIP3    H125627   0.632   6.248   5.286 -0.1652  0.1693  1.6895
 1404TIP3    H225628   0.518   6.272   5.189  1.3452  0.5463 -0.0152
 1405TIP3   OH225629   1.123   0.288   1.255 -0.3234 -0.3386 -0.2962
 1405TIP3    H125630   1.146   0.362   1.199 -2.7624  0.5967 -0.1528
 1405TIP3    H225631   1.110   0.327   1.341  1.5670 -1.4758  0.5119
 1406TIP3   OH225632   2.744   3.095   0.109  0.7762 -0.3606 -0.2713
 1406TIP3    H125633   2.794   3.013   0.102 -0.1932 -0.9862  0.0964
 1406TIP3    H225634   2.736   3.110   0.203 -0.9655 -1.0363 -0.2933
 1407TIP3   OH225635   3.229   4.592   2.903 -0.1523  0.1470 -0.3529
 1407TIP3    H125636   3.242   4.605   2.809 -1.2714 -0.0418 -0.5294
 1407TIP3    H225637   3.292   4.652   2.944 -0.9010  1.5244 -1.2062
 1408TIP3   OH225638   4.265   4.510   2.431 -0.2823 -0.4903 -0.8124
 1408TIP3    H125639   4.282   4.428   2.384 -0.8816  0.4557 -2.7612
 1408TIP3    H225640   4.276   4.488   2.523  0.2700 -2.5879 -1.3478
 1409TIP3   OH225641   0.515   0.983  12.780 -0.6081  0.3666  0.4203
 1409TIP3    H125642   0.487   1.020  12.696 -0.8497 -0.4569  0.1311
 1409TIP3    H225643   0.511   0.888  12.767 -0.3720  0.2335  1.2730
 1410TIP3   OH225644   2.901   3.534  13.540 -0.6495  0.0118 -0.7216
 1410TIP3    H125645   2.843   3.566  13.470 -0.3819  0.9738 -0.5189
 1410TIP3    H225646   2.980   3.587  13.530 -1.5042  1.8890  1.8133
 1411TIP3   OH225647   3.501   2.210  13.378 -0.1278  0.2701 -0.2918
 1411TIP3    H125648   3.477   2.241  13.291 -1.5521  0.3718  0.1232
 1411TIP3    H225649   3.495   2.115  13.372  0.6311  0.2384 -0.5469
 1412TIP3   OH225650   1.838   4.933   1.187  0.3212  0.0429  0.4089
 1412TIP3    H125651   1.900   5.006   1.195  0.5445 -0.1111  0.1350
 1412TIP3    H225652   1.809   4.936   1.096 -0.3195  0.3048  0.6202
 1413TIP3   OH225653   3.712   0.069   1.685 -0.4470 -0.1657  0.1805
 1413TIP3    H125654   3.761   0.114   1.754 -0.1835 -1.2860  0.7304
 1413TIP3    H225655   3.748  -0.019   1.683 -0.2978 -0.0905 -1.5638
 1414TIP3   OH225656   1.713   3.953  13.134  0.3434 -0.0420 -0.3260
 1414TIP3    H125657   1.677   3.864  13.137 -1.1215  0.5304 -0.4732
 1414TIP3    H225658   1.643   4.006  13.097  1.1395  1.2208 -0.0632
 1415TIP3   OH225659   3.926   3.330   3.414 -0.1842  0.2637  0.2058
 1415TIP3    H125660   3.848   3.355   3.365  0.3463  0.1418 -0.7085
 1415TIP3    H225661   3.935   3.236   3.399  0.4862  0.3888 -0.2152
 1416TIP3   OH225662   5.486   1.373   1.411  0.2682  0.0006  0.3852
 1416TIP3    H125663   5.416   1.314   1.437 -0.1598  0.6240  0.6537
 1416TIP3    H225664   5.501   1.354   1.318 -0.8698  0.4891  0.0980
 1417TIP3   OH225665   1.193   4.287   6.249 -0.2437 -0.0017 -0.0440
 1417TIP3    H125666   1.234   4.224   6.189 -0.0526 -1.3932  1.4934
 1417TIP3    H225667   1.105   4.300   6.214  0.1973 -0.0270 -1.1824
 1418TIP3   OH225668   3.779   1.006  13.635 -0.1459 -0.0368  0.7107
 1418TIP3    H125669   3.843   0.994  13.705 -0.0431  2.4586  1.1165
 1418TIP3    H225670   3.706   0.948  13.658  0.9211 -1.0425  1.5699
 1419TIP3   OH225671   2.737   1.070  13.341  0.3774 -0.6040 -0.2220
 1419TIP3    H125672   2.654   1.024  13.348 -1.1235  1.7656 -1.8033
 1419TIP3    H225673   2.717   1.161  13.365  2.6396 -0.1261  0.0338
 1420TIP3   OH225674   3.342   1.764  14.949 -0.1299  0.0711  0.3119
 1420TIP3    H125675   3.412   1.790  15.008 -0.5680  0.0533  0.8415
 1420TIP3    H225676   3.277   1.833  14.956  0.4321  0.7692 -1.2104
 1421TIP3   OH225677   6.657   0.162  14.877 -0.2928  0.3202  0.2152
 1421TIP3    H125678   6.736   0.142  14.927  0.2748  1.8430 -0.0340
 1421TIP3    H225679   6.688   0.212  14.801 -1.3045 -0.6995 -0.8820
 1422TIP3   OH225680   1.656   6.728   5.166 -0.1705  0.3191 -0.2219
 1422TIP3    H125681   1.683   6.820   5.165  2.0132 -0.2444  1.6513
 1422TIP3    H225682   1.571   6.728   5.210 -0.1835  1.4340 -0.2343
 1423TIP3   OH225683   1.576   1.841  16.824 -0.3067  0.0480  0.5474
 1423TIP3    H125684   1.577   1.906  16.894 -0.8363  2.2772 -1.4348
 1423TIP3    H225685   1.529   1.766  16.861 -0.1127  0.9613  2.7256
 1424TIP3   OH225686   4.590   1.295  10.068  0.1199 -0.3316 -0.5419
 1424TIP3    H125687   4.495   1.289  10.058  0.0345 -0.6753  0.4178
 1424TIP3    H225688   4.602   1.360  10.137  0.6006  0.1021 -1.0344
 1425TIP3   OH225689   4.196   5.357  17.009 -0.7246  0.2458 -0.1735
 1425TIP3    H125690   4.144   5.288  16.966 -2.1331  0.6844  0.7751
 1425TIP3    H225691   4.169   5.438  16.965  2.4029  0.0362 -2.6745
 1426TIP3   OH225692   3.301   5.195  11.369  0.4038  0.5268 -0.3145
 1426TIP3    H125693   3.280   5.243  11.289 -1.4131 -3.0130 -2.1215
 1426TIP3    H225694   3.394   5.175  11.361  1.1142  3.3673  0.3309
 1427TIP3   OH225695   4.942   4.764   0.390  0.3536 -0.3209  0.2611
 1427TIP3    H125696   4.870   4.704   0.412 -1.0276  0.5159 -1.7516
 1427TIP3    H225697   5.014   4.737   0.446 -1.7997 -0.6336  2.9976
 1428TIP3   OH225698   1.667   5.216   0.882  0.2891 -0.0226  0.2321
 1428TIP3    H125699   1.652   5.121   0.877  0.1085  0.1020 -2.1837
 1428TIP3    H225700   1.593   5.255   0.835  0.2206  1.3473  1.4457
 1429TIP3   OH225701   6.328   6.056  11.961  0.1822 -0.1958 -0.1565
 1429TIP3    H125702   6.392   6.043  11.892 -0.5108  0.3184 -0.9149
 1429TIP3    H225703   6.371   6.113  12.024  0.7797 -0.5742 -0.2241
 1430TIP3   OH225704   1.360   6.085  16.797  0.3059 -0.4545  0.2092
 1430TIP3    H125705   1.267   6.108  16.790  0.0537 -1.2691  0.7999
 1430TIP3    H225706   1.399   6.158  16.845 -0.1692 -0.4640  0.6104
 1431TIP3   OH225707   4.057   1.188  16.066  0.2216 -0.3514 -0.5440
 1431TIP3    H125708   4.150   1.167  16.053  0.0542 -1.6336  0.2527
 1431TIP3    H225709   4.048   1.277  16.033  1.8915  0.0395  0.0205
 1432TIP3   OH225710   4.270   1.965  11.643 -0.1728  0.6480 -0.0324
 1432TIP3    H125711   4.363   1.979  11.624 -0.2413 -0.9161 -1.6153
 1432TIP3    H225712   4.263   1.871  11.662 -1.4655  0.7233 -0.0757
 1433TIP3   OH225713   2.065   3.735  14.882  0.7101  0.0818  0.3177
 1433TIP3    H125714   2.076   3.821  14.841  1.8301  0.2809  1.0168
 1433TIP3    H225715   2.139   3.684  14.851 -0.1747 -0.7816 -0.4285
 1434TIP3   OH225716   6.297   2.600   4.185 -0.2802 -0.2165 -0.1711
 1434TIP3    H125717   6.258   2.518   4.155  1.2988 -1.6089  1.5029
 1434TIP3    H225718   6.242   2.627   4.259  0.3516 -0.7746  0.4997
 1435TIP3   OH225719   3.175   6.742  11.404 -0.3367 -0.3073  0.2531
 1435TIP3    H125720   3.262   6.712  11.430 -0.1239  1.0778  1.1695
 1435TIP3    H225721   3.186   6.769  11.313  0.4898  0.9668  0.7111
 1436TIP3   OH225722   2.249   1.955  12.868 -0.3957 -0.1610 -0.4584
 1436TIP3    H125723   2.273   1.907  12.948  0.3296  1.8577  0.5793
 1436TIP3    H225724   2.154   1.951  12.865 -0.2784 -2.7470 -1.0916
 1437TIP3   OH225725   6.765   6.336   1.144  0.3252 -0.0005 -0.2061
 1437TIP3    H125726   6.740   6.252   1.182  2.1053  0.7532  2.7589
 1437TIP3    H225727   6.779   6.394   1.219  1.1769  2.3751 -2.1115
 1438TIP3   OH225728   2.972   4.560  11.429 -0.1208 -0.2882 -0.3452
 1438TIP3    H125729   2.908   4.530  11.365 -0.8669 -2.0008  1.1678
 1438TIP3    H225730   3.001   4.480  11.474  2.0558  0.6094 -0.0501
 1439TIP3   OH225731   6.629   3.135  12.899 -0.4129 -0.1645 -0.2440
 1439TIP3    H125732   6.542   3.146  12.862 -0.4082  0.4747 -0.0835
 1439TIP3    H225733   6.689   3.164  12.830 -0.3502 -0.1494 -0.1830
 1440TIP3   OH225734   3.516   2.582   0.087 -0.1883 -0.5018 -0.3008
 1440TIP3    H125735   3.430   2.622   0.070  0.0411 -0.1352 -0.6168
 1440TIP3    H225736   3.510   2.496   0.047 -0.2586 -0.3077 -0.7164
 1441TIP3   OH225737   1.666   0.812  16.540 -0.6896 -0.2718  0.0531
 1441TIP3    H125738   1.703   0.777  16.459 -0.6916  0.3311 -0.2145
 1441TIP3    H225739   1.734   0.870  16.575 -0.3381 -1.2303  0.9527
 1442TIP3   OH225740   0.995   3.553   1.302  0.0360 -0.2093 -0.2921
 1442TIP3    H125741   1.009   3.637   1.258 -2.2163 -0.5365 -1.7380
 1442TIP3    H225742   1.049   3.491   1.252 -1.5002 -0.3380 -1.8541
 1443TIP3   OH225743   4.861   1.865   6.514  0.2721 -0.5340 -0.3459
 1443TIP3    H125744   4.795   1.925   6.478  0.9885  0.4850  0.0315
 1443TIP3    H225745   4.817   1.780   6.515 -1.2429  0.2323  0.4384
 1444TIP3   OH225746   1.559   6.489   5.580  0.5591  0.0267  0.0450
 1444TIP3    H125747   1.465   6.489   5.601  0.1390  0.9072 -1.6809
 1444TIP3    H225748   1.571   6.410   5.527  1.0844 -0.8197  1.4116
 1445TIP3   OH225749   2.722   3.915   3.968  1.4027 -0.1585 -0.0603
 1445TIP3    H125750   2.729   3.832   3.922 -1.2028 -0.6616  0.3706
 1445TIP3    H225751   2.718   3.982   3.899  0.2196 -0.6780 -0.4993
 1446TIP3   OH225752   0.627   5.550   5.751 -0.0329 -0.3593  0.2205
 1446TIP3    H125753   0.615   5.474   5.807 -0.5962 -0.7005 -0.3565
 1446TIP3    H225754   0.669   5.516   5.672  3.0839  0.5201  1.4293
 1447TIP3   OH225755   6.532   6.598   1.388  0.0006  0.8829  0.2235
 1447TIP3    H125756   6.492   6.544   1.320 -0.0711  0.9311  0.2271
 1447TIP3    H225757   6.493   6.685   1.375 -2.0629  0.2596  2.0428
 1448TIP3   OH225758   5.059   1.600   5.114 -0.2334  0.0900 -1.0075
 1448TIP3    H125759   5.021   1.589   5.201 -1.2311 -1.0910 -1.5673
 1448TIP3    H225760   5.038   1.690   5.089  1.5504  1.0027  0.6500
 1449TIP3   OH225761   1.000   0.965  14.514 -0.2886 -0.7105 -0.0051
 1449TIP3    H125762   1.071   0.974  14.450 -2.4425  1.2925 -2.2390
 1449TIP3    H225763   1.003   0.873  14.541  3.4732 -0.5279  0.4136
 1450TIP3   OH225764   0.276   4.822   3.818 -0.5386  0.5595 -0.0532
 1450TIP3    H125765   0.279   4.726   3.822 -2.0543  0.5006  0.0577
 1450TIP3    H225766   0.248   4.841   3.729 -1.6888  0.8421  0.3542
 1451TIP3   OH225767   2.945   0.719   5.341 -0.0827  0.2677 -0.0447
 1451TIP3    H125768   2.914   0.635   5.305 -0.9770  0.4024  0.4035
 1451TIP3    H225769   3.004   0.693   5.411  0.3449  0.0088 -0.4947
 1452TIP3   OH225770   5.221   0.557  16.822 -0.4623  0.0833 -0.4960
 1452TIP3    H125771   5.130   0.573  16.796 -0.8275 -1.9903 -0.5455
 1452TIP3    H225772   5.261   0.516  16.745  0.0717 -0.5131  0.0954
 1453TIP3   OH225773   4.316   1.809   0.712 -0.1038  0.6864 -0.2861
 1453TIP3    H125774   4.351   1.740   0.769  0.9704  1.4699  0.0187
 1453TIP3    H225775   4.393   1.845   0.668 -0.7842  0.9356 -1.3004
 1454TIP3   OH225776   0.789   4.816  13.962 -0.1687  0.2407  0.0850
 1454TIP3    H125777   0.821   4.790  13.876  1.2485 -0.4862  0.8041
 1454TIP3    H225778   0.694   4.819  13.953 -0.0723 -0.5790 -1.2892
 1455TIP3   OH225779   0.322   6.050   4.080 -0.2123 -0.2551  0.0063
 1455TIP3    H125780   0.391   6.107   4.114  0.5084 -1.1139 -0.0220
 1455TIP3    H225781   0.251   6.058   4.143 -0.4819  1.3997 -0.4758
 1456TIP3   OH225782   2.551   4.570   6.634  0.3870 -1.0842 -0.2379
 1456TIP3    H125783   2.637   4.592   6.668 -0.8195  2.2492  0.8832
 1456TIP3    H225784   2.556   4.477   6.612  4.2598 -0.9088 -0.2965
 1457TIP3   OH225785   3.154   2.899  13.421  0.0418  0.3000  0.3461
 1457TIP3    H125786   3.235   2.950  13.431  0.4030 -0.1250 -0.4015
 1457TIP3    H225787   3.089   2.948  13.470  0.8353  0.4722  1.2572
 1458TIP3   OH225788   4.713   1.994   2.863 -0.4411  0.6187  0.1916
 1458TIP3    H125789   4.744   2.053   2.794 -1.7572  1.1750  0.0529
 1458TIP3    H225790   4.792   1.957   2.901  0.2930  0.2202 -1.6935
 1459TIP3   OH225791   6.299   4.924  13.488  0.1004  0.0703 -0.3380
 1459TIP3    H125792   6.350   4.883  13.419 -0.2249 -1.0446  0.0658
 1459TIP3    H225793   6.239   4.983  13.442 -0.8372 -1.4517 -1.0985
 1460TIP3   OH225794   2.919   4.398   3.618 -0.0672 -0.5231  0.6924
 1460TIP3    H125795   2.976   4.334   3.574 -0.0616 -0.3044  0.3746
 1460TIP3    H225796   2.831   4.368   3.600 -0.0444 -1.0460  1.4649
 1461TIP3   OH225797   4.754   3.114   4.582 -0.0488  0.3011 -0.4303
 1461TIP3    H125798   4.753   3.026   4.619 -0.0180  0.9776  1.2251
 1461TIP3    H225799   4.756   3.172   4.658 -0.3427  1.7378 -1.4944
 1462TIP3   OH225800   6.194   1.184  16.663 -0.6897  0.3113  0.5128
 1462TIP3    H125801   6.234   1.271  16.661 -1.3320  0.5936 -0.2804
 1462TIP3    H225802   6.193   1.156  16.571 -0.2232 -0.6596  0.7940
 1463TIP3   OH225803   6.613   3.947  17.119  0.3089  0.0324 -0.5086
 1463TIP3    H125804   6.523   3.948  17.086  0.7482 -0.2458 -1.7168
 1463TIP3    H225805   6.650   3.866  17.086  0.8554 -0.1026  0.4147
 1464TIP3   OH225806   5.739   6.035   1.223 -0.4299 -0.2354  0.3836
 1464TIP3    H125807   5.732   6.122   1.262 -1.5652  0.3418 -1.0621
 1464TIP3    H225808   5.651   5.998   1.231 -0.4404 -0.4707 -0.7816
 1465TIP3   OH225809   0.151   5.201  13.034 -0.3142 -0.2963 -0.2265
 1465TIP3    H125810   0.214   5.182  13.103  0.2541  0.4744 -0.5260
 1465TIP3    H225811   0.106   5.280  13.063  0.1414  0.2061 -0.8837
 1466TIP3   OH225812   3.911   2.073  15.291  0.3489  0.0860 -0.0077
 1466TIP3    H125813   3.858   2.042  15.364 -0.7658  1.6052 -0.1520
 1466TIP3    H225814   3.961   1.997  15.263  1.1971 -0.3829  2.6918
 1467TIP3   OH225815   2.759   6.288  12.395 -0.5352  0.1650  0.2126
 1467TIP3    H125816   2.829   6.282  12.330  0.6069  1.2956  1.3224
 1467TIP3    H225817   2.794   6.242  12.472 -0.5030  1.7816  1.1873
 1468TIP3   OH225818   5.564   1.248   3.416  0.1029 -0.0187 -0.3344
 1468TIP3    H125819   5.625   1.268   3.345  1.3333  0.1236  0.7521
 1468TIP3    H225820   5.497   1.316   3.410  1.6508  1.5889  0.3123
 1469TIP3   OH225821   3.921   5.793   0.849 -0.1976 -0.4517 -0.4167
 1469TIP3    H125822   3.871   5.871   0.826  0.1990  0.2124  0.9353
 1469TIP3    H225823   3.982   5.822   0.916  1.3444 -1.4748 -1.3378
 1470TIP3   OH225824   5.711   1.947  12.061 -0.4498  0.0697  0.3003
 1470TIP3    H125825   5.662   2.020  12.097  1.8543  0.2669  3.1674
 1470TIP3    H225826   5.803   1.968  12.080  0.1647 -4.3116  2.7526
 1471TIP3   OH225827   6.031   5.161   1.597 -0.7626  0.2179 -0.5426
 1471TIP3    H125828   5.967   5.092   1.611 -1.6891  1.5254  2.0363
 1471TIP3    H225829   6.093   5.153   1.670  0.3827  0.7676 -1.4173
 1472TIP3   OH225830   2.611   1.264   4.536  0.0349  0.7939 -0.1401
 1472TIP3    H125831   2.554   1.218   4.598 -1.0916 -0.3603 -1.9745
 1472TIP3    H225832   2.697   1.265   4.578 -0.5291 -0.6480  1.0849
 1473TIP3   OH225833   2.494   5.573  16.375  0.0630 -0.0039 -0.0794
 1473TIP3    H125834   2.424   5.548  16.315  1.3309 -0.5190 -1.3745
 1473TIP3    H225835   2.490   5.508  16.445 -0.2288 -0.5096 -0.5606
 1474TIP3   OH225836   2.057   5.193   1.659 -0.2087  0.2308 -0.3828
 1474TIP3    H125837   2.039   5.287   1.670 -1.9516 -0.0758 -0.6359
 1474TIP3    H225838   2.079   5.163   1.747  2.2645  1.2569 -0.5994
 1475TIP3   OH225839   2.860   4.192   1.776 -0.4715 -0.2186 -0.4678
 1475TIP3    H125840   2.782   4.244   1.789 -0.3635  0.1278 -1.1729
 1475TIP3    H225841   2.862   4.174   1.682  1.8818  2.2981 -0.9659
 1476TIP3   OH225842   1.455   3.210  14.263  1.0240 -0.2077  0.0106
 1476TIP3    H125843   1.535   3.245  14.224  0.2115  0.4767 -1.0930
 1476TIP3    H225844   1.472   3.210  14.357  1.9658  0.8596 -0.1428
 1477TIP3   OH225845   1.840   2.147  10.648 -0.1207  0.0739 -0.2384
 1477TIP3    H125846   1.822   2.092  10.572 -0.3346  1.7495 -1.4302
 1477TIP3    H225847   1.754   2.179  10.676 -0.0461 -0.5762  0.7345
 1478TIP3   OH225848   2.068   0.101  13.794 -0.3434  0.6578  0.4644
 1478TIP3    H125849   2.028   0.187  13.789  1.6043  1.5316 -0.8453
 1478TIP3    H225850   2.105   0.086  13.706 -0.8819 -1.6159  0.5878
 1479TIP3   OH225851   2.124   6.569   0.449 -0.2160 -0.0300 -0.4636
 1479TIP3    H125852   2.187   6.498   0.436 -0.1077 -0.2991  1.4430
 1479TIP3    H225853   2.171   6.648   0.423  0.9854 -0.2064  1.1394
 1480TIP3   OH225854   3.215   2.200   4.606 -0.1558 -0.2246  0.1270
 1480TIP3    H125855   3.231   2.270   4.670 -1.6443 -0.3408  0.6480
 1480TIP3    H225856   3.129   2.221   4.568  0.5128 -0.4108 -1.5168
 1481TIP3   OH225857   0.388   3.008  16.725  0.3462 -0.0442 -0.0696
 1481TIP3    H125858   0.407   2.989  16.633  1.3536  1.1304 -0.1218
 1481TIP3    H225859   0.458   2.965  16.773  1.4436  1.7272 -0.0537
 1482TIP3   OH225860   1.396   4.123   3.135 -0.5401 -0.3327 -0.7351
 1482TIP3    H125861   1.473   4.179   3.126 -0.1039 -1.0330 -1.3998
 1482TIP3    H225862   1.390   4.106   3.229  0.0620 -0.2055 -0.6685
 1483TIP3   OH225863   1.827   3.662  17.127 -0.3035 -0.0738 -1.3180
 1483TIP3    H125864   1.918   3.634  17.135 -0.8242 -1.8514 -1.4167
 1483TIP3    H225865   1.821   3.701  17.040 -0.0622 -1.6650 -2.0649
 1484TIP3   OH225866   6.512   5.576   2.192 -0.1359  0.1688 -0.4705
 1484TIP3    H125867   6.476   5.649   2.243  0.9947  0.2758  0.1895
 1484TIP3    H225868   6.436   5.523   2.169 -0.6571  0.1180  1.3318
 1485TIP3   OH225869   5.751   6.055   4.370 -0.1103 -0.1939 -0.2644
 1485TIP3    H125870   5.839   6.043   4.403  0.4598 -1.8475 -2.2505
 1485TIP3    H225871   5.748   6.146   4.340 -0.1763  0.8668  2.7783
 1486TIP3   OH225872   6.402   2.896   0.303  0.5496 -0.2389  0.9384
 1486TIP3    H125873   6.317   2.870   0.268  0.9658  0.5523 -0.7028
 1486TIP3    H225874   6.381   2.950   0.379 -0.4082 -0.3909  0.7877
 1487TIP3   OH225875   5.466   4.235  12.097 -0.2830  0.2625 -0.3503
 1487TIP3    H125876   5.386   4.238  12.150  0.1305 -0.6735  0.3314
 1487TIP3    H225877   5.441   4.183  12.020 -0.5124  0.5258 -0.4571
 1488TIP3   OH225878   6.377   3.270  15.867 -0.7210  0.4418 -0.6556
 1488TIP3    H125879   6.411   3.185  15.896  2.2048  1.7875  0.0610
 1488TIP3    H225880   6.406   3.277  15.776 -1.3331  0.5018 -0.8480
 1489TIP3   OH225881   1.195   3.272  16.682  0.2465  0.0765  0.0405
 1489TIP3    H125882   1.218   3.227  16.601  1.1554  1.6977 -0.6076
 1489TIP3    H225883   1.115   3.320  16.661 -0.4183 -0.7718  0.5803
 1490TIP3   OH225884   5.255   3.462   0.427 -0.4679 -0.1823  0.3804
 1490TIP3    H125885   5.336   3.474   0.477  0.1272 -0.4359 -0.5099
 1490TIP3    H225886   5.221   3.551   0.415  2.3530  0.4801 -3.5960
 1491TIP3   OH225887   4.597   6.172  16.271  0.2498  0.0677 -0.4563
 1491TIP3    H125888   4.566   6.116  16.343  1.0650 -1.1748 -1.0554
 1491TIP3    H225889   4.688   6.144  16.256  0.6872  1.5743 -0.7586
 1492TIP3   OH225890   3.029   4.497  16.840  0.0089 -0.2711 -0.4625
 1492TIP3    H125891   2.960   4.437  16.867 -0.1228 -1.4587 -3.2846
 1492TIP3    H225892   2.987   4.554  16.775  1.0878  0.4922 -0.4946
 1493TIP3   OH225893   5.872   0.126   2.878  0.1467 -0.4374  0.1765
 1493TIP3    H125894   5.857   0.041   2.836 -0.8381  0.5212 -1.4398
 1493TIP3    H225895   5.786   0.153   2.910  0.3753  0.1791  0.2757
 1494TIP3   OH225896   6.104   1.933  16.049  0.8739 -0.3592 -0.2375
 1494TIP3    H125897   6.157   1.855  16.065  0.4119 -0.8514 -1.0975
 1494TIP3    H225898   6.028   1.901  16.000 -0.6906  0.1840  1.7753
 1495TIP3   OH225899   4.038   4.598  12.727 -0.0907 -0.3984 -0.1202
 1495TIP3    H125900   4.034   4.558  12.641 -0.3464  0.4663 -0.5101
 1495TIP3    H225901   4.026   4.691  12.711 -0.1441 -0.2352  0.8499
 1496TIP3   OH225902   3.718   0.993   2.585 -0.2234  0.0951  0.6509
 1496TIP3    H125903   3.726   0.908   2.543  1.0645 -1.1910  3.3759
 1496TIP3    H225904   3.636   0.988   2.635 -0.7011  0.8573 -0.0434
 1497TIP3   OH225905   5.348   5.294  10.922 -0.8685 -0.4895 -0.5919
 1497TIP3    H125906   5.253   5.286  10.912 -0.8674 -0.4798 -0.6074
 1497TIP3    H225907   5.359   5.354  10.996 -0.8781 -0.1388 -0.8677
 1498TIP3   OH225908   0.215   2.836  10.963  0.2496 -0.3854 -0.3019
 1498TIP3    H125909   0.240   2.751  10.928  0.8963 -0.2019 -0.2867
 1498TIP3    H225910   0.219   2.896  10.888  1.3493 -0.0524  0.0106
 1499TIP3   OH225911   0.383   5.432  12.164 -0.1633  0.0673  0.4788
 1499TIP3    H125912   0.321   5.498  12.195 -0.5433 -0.0507 -0.0231
 1499TIP3    H225913   0.346   5.402  12.081  1.4366  1.2213 -0.6742
 1500TIP3   OH225914   3.717   5.866   2.935  0.2543  0.6778 -0.2342
 1500TIP3    H125915   3.652   5.812   2.890  0.1821  0.9950 -0.5023
 1500TIP3    H225916   3.680   5.879   3.022 -0.0824  0.9405 -0.4186
 1501TIP3   OH225917   4.235   0.514  14.878  0.4297 -0.1198  0.0503
 1501TIP3    H125918   4.306   0.464  14.919  1.2920 -0.2598 -1.5672
 1501TIP3    H225919   4.271   0.541  14.793 -2.1324 -1.9340 -1.6937
 1502TIP3   OH225920   0.677   3.458   4.196  0.2234 -0.1125  0.0664
 1502TIP3    H125921   0.614   3.426   4.131 -0.5386  0.2697  0.6081
 1502TIP3    H225922   0.657   3.408   4.275  0.1431  0.5086  0.4361
 1503TIP3   OH225923   0.545   3.808  16.318  0.4007  0.1303  0.2024
 1503TIP3    H125924   0.493   3.881  16.351 -0.6491 -0.3111 -0.4644
 1503TIP3    H225925   0.623   3.807  16.374  0.9291  2.4079 -0.4522
 1504TIP3   OH225926   2.748   6.232  11.432  0.2700  0.4829  0.2772
 1504TIP3    H125927   2.736   6.311  11.484  1.4525  1.1962 -0.5196
 1504TIP3    H225928   2.770   6.264  11.344  0.9656 -0.7314  0.0014
 1505TIP3   OH225929   4.405   3.714   6.001 -0.4354  0.3427  0.2465
 1505TIP3    H125930   4.428   3.773   5.929 -0.2699  1.0063  0.8465
 1505TIP3    H225931   4.469   3.731   6.069 -0.4850 -0.4175  0.4907
 1506TIP3   OH225932   4.313   5.451  15.332 -0.6611 -0.4294  0.5172
 1506TIP3    H125933   4.228   5.489  15.351  0.0814  0.2970  2.4840
 1506TIP3    H225934   4.335   5.484  15.245 -1.8244  0.3683  0.5207
 1507TIP3   OH225935   0.434   6.469   4.323  0.2661  0.4116  0.2563
 1507TIP3    H125936   0.455   6.437   4.411  2.9806  0.8466 -0.1948
 1507TIP3    H225937   0.509   6.523   4.298 -0.5276  0.4326 -2.2568
 1508TIP3   OH225938   0.597   5.908  15.780 -0.0397  1.1037  0.6102
 1508TIP3    H125939   0.647   5.853  15.720  0.3078  1.4264  0.6030
 1508TIP3    H225940   0.617   5.873  15.867  1.0718  1.9159  0.6996
 1509TIP3   OH225941   5.946   2.097  15.632  0.1388  0.4610 -0.2844
 1509TIP3    H125942   5.917   2.141  15.711  1.1588  0.1897  0.2613
 1509TIP3    H225943   5.986   2.016  15.663 -0.0027  0.0620 -1.1247
 1510TIP3   OH225944   2.099   3.722  15.559 -0.6170 -0.4101 -0.2933
 1510TIP3    H125945   2.132   3.800  15.515  0.3822  0.2548  1.5791
 1510TIP3    H225946   2.018   3.751  15.601 -1.5906 -1.0529 -1.6950
 1511TIP3   OH225947   1.875   5.999  16.279 -0.3417 -0.1824 -0.4746
 1511TIP3    H125948   1.967   5.985  16.260 -0.7237 -2.3555 -0.8072
 1511TIP3    H225949   1.861   6.093  16.264  1.5012 -0.0949 -1.7067
 1512TIP3   OH225950   4.308   6.621  13.788 -0.1507  0.7543  0.4534
 1512TIP3    H125951   4.283   6.536  13.822 -0.8781  1.4857  1.7999
 1512TIP3    H225952   4.377   6.602  13.724 -0.0695 -0.8019  0.9841
 1513TIP3   OH225953   5.385   2.404   4.071 -0.7866 -0.2119  0.0957
 1513TIP3    H125954   5.377   2.309   4.060  1.4264 -0.3955 -0.2831
 1513TIP3    H225955   5.308   2.429   4.120 -0.9717 -2.3633  0.9685
 1514TIP3   OH225956   4.893   1.218  11.915 -0.5772  0.2784 -0.2386
 1514TIP3    H125957   4.979   1.258  11.918 -0.1222 -0.5593 -1.6755
 1514TIP3    H225958   4.834   1.287  11.886 -0.0383  0.2859 -1.3058
 1515TIP3   OH225959   4.690   3.127  15.767  0.0089  0.0764 -0.6186
 1515TIP3    H125960   4.611   3.146  15.818 -0.2824  1.8100 -1.6712
 1515TIP3    H225961   4.731   3.212  15.754  1.8163 -0.7586 -0.4887
 1516TIP3   OH225962   0.129   0.931  11.334  0.1280  0.1483  0.2356
 1516TIP3    H125963   0.212   0.937  11.287  0.6727 -0.3642  1.1213
 1516TIP3    H225964   0.066   0.903  11.268  0.6514  0.5662 -0.4479
 1517TIP3   OH225965   3.905   3.475   2.541  0.0803 -0.1579  0.0531
 1517TIP3    H125966   3.822   3.522   2.529  0.1898 -0.2942 -1.3393
 1517TIP3    H225967   3.954   3.530   2.602 -0.3965  0.7599 -0.3698
 1518TIP3   OH225968   2.470   3.166   5.946 -0.1704 -0.0333 -0.1493
 1518TIP3    H125969   2.411   3.207   6.010  1.6388  1.1278  0.8224
 1518TIP3    H225970   2.550   3.218   5.951  0.5810 -0.9551 -2.1949
 1519TIP3   OH225971   0.011   5.173  11.802  0.1302  0.1891  0.4818
 1519TIP3    H125972  -0.067   5.202  11.850  0.2570  1.9018 -0.3285
 1519TIP3    H225973   0.004   5.216  11.717  1.0073 -1.1489 -0.2755
 1520TIP3   OH225974   1.853   0.867   1.372  0.0079 -0.6714 -0.0891
 1520TIP3    H125975   1.768   0.825   1.386 -1.9370  2.9219 -0.5447
 1520TIP3    H225976   1.879   0.899   1.459  0.5045 -1.0406 -0.0985
 1521TIP3   OH225977   4.084   6.508  16.174 -0.6606 -0.1050 -0.0282
 1521TIP3    H125978   4.038   6.534  16.095 -0.4484 -0.3436 -0.2315
 1521TIP3    H225979   4.032   6.437  16.211  0.8473 -2.1160 -1.6097
 1522TIP3   OH225980   5.883   5.503  14.660  0.1973  0.5491  0.1538
 1522TIP3    H125981   5.821   5.559  14.613  0.0891 -0.6982 -1.2497
 1522TIP3    H225982   5.833   5.423  14.678  1.8343 -1.1227 -2.4330
 1523TIP3   OH225983   6.690   2.587  10.751  0.3416  0.0863  0.1875
 1523TIP3    H125984   6.598   2.565  10.734  0.4370 -2.5396  2.7269
 1523TIP3    H225985   6.730   2.592  10.664 -1.2497 -3.1685 -0.8020
 1524TIP3   OH225986   2.886   1.938  13.422  0.0875 -0.1529  0.5630
 1524TIP3    H125987   2.897   2.022  13.467  2.3258 -0.9499  1.5641
 1524TIP3    H225988   2.969   1.923  13.377 -1.3109 -0.4759 -2.0372
 1525TIP3   OH225989   4.078   0.625  16.336 -0.2604 -0.4091  0.0231
 1525TIP3    H125990   3.983   0.617  16.329 -0.4380  1.3286  0.1140
 1525TIP3    H225991   4.102   0.685  16.266  0.9156 -1.7012 -0.6990
 1526TIP3   OH225992   3.857   2.132   0.515 -0.1520  0.3471  0.1429
 1526TIP3    H125993   3.830   2.049   0.553 -0.6540  0.4796  0.0772
 1526TIP3    H225994   3.778   2.168   0.476  0.0799  0.8160  0.0947
 1527TIP3   OH225995   3.488   0.182   4.574  0.2884  0.6667  0.7923
 1527TIP3    H125996   3.566   0.127   4.579  0.1960  0.4792  0.2327
 1527TIP3    H225997   3.456   0.188   4.664  0.4420  0.0140  0.8917
 1528TIP3   OH225998   2.896   1.017  15.229 -0.3621  0.1220  0.1997
 1528TIP3    H125999   2.857   1.066  15.157 -2.0877 -1.5335 -0.0140
 1528TIP3    H226000   2.960   0.959  15.187  1.3900  1.8450  0.4136
 1529TIP3   OH226001   5.239   0.981   2.133 -0.3671  0.4121 -0.0758
 1529TIP3    H126002   5.263   0.892   2.106 -3.2112 -0.5793  0.5066
 1529TIP3    H226003   5.194   1.018   2.057  0.6429  1.2862 -0.2480
 1530TIP3   OH226004   4.584   3.552   0.241 -0.1923 -0.0961 -0.2598
 1530TIP3    H126005   4.650   3.554   0.310 -0.3906  2.6570 -0.1172
 1530TIP3    H226006   4.521   3.486   0.270  0.7330 -0.3447  1.2167
 1531TIP3   OH226007   2.245   0.346   2.472 -0.4946  0.0118 -0.4019
 1531TIP3    H126008   2.286   0.433   2.474 -0.6164  0.1669 -3.0313
 1531TIP3    H226009   2.319   0.285   2.477 -0.1034  0.2873 -2.5721
 1532TIP3   OH226010   0.083   1.159   0.854  0.3806 -0.2957  0.2528
 1532TIP3    H126011   0.015   1.210   0.899  0.5864 -0.1850  0.4355
 1532TIP3    H226012   0.037   1.119   0.781 -0.0222 -0.7060  0.7237
 1533TIP3   OH226013   0.855   1.705   5.664  0.0905 -0.0139  0.2639
 1533TIP3    H126014   0.900   1.769   5.608  1.7134 -0.9282  0.4816
 1533TIP3    H226015   0.840   1.630   5.606 -1.8096  0.5351  0.0092
 1534TIP3   OH226016   1.004   2.581   3.198  0.6921  0.0579  1.3059
 1534TIP3    H126017   1.087   2.629   3.191  0.2986  0.8416  1.9009
 1534TIP3    H226018   0.951   2.633   3.259 -0.7669  0.3228 -0.1503
 1535TIP3   OH226019   1.358   5.888  14.050 -0.5606 -0.0951  0.6587
 1535TIP3    H126020   1.449   5.881  14.022  0.0369 -1.9171  2.8866
 1535TIP3    H226021   1.314   5.815  14.005 -0.7872  0.3317  0.1760
 1536TIP3   OH226022   3.205   0.799   3.721  0.1167  1.2190 -0.0010
 1536TIP3    H126023   3.182   0.785   3.813 -1.0469  0.6847 -0.3668
 1536TIP3    H226024   3.299   0.815   3.722  0.4924 -0.9115  1.0661
 1537TIP3   OH226025   6.266   2.700  12.022  0.4798 -0.0632  0.0004
 1537TIP3    H126026   6.206   2.761  12.064 -0.1497 -1.1384  0.7021
 1537TIP3    H226027   6.233   2.613  12.047  1.8023 -0.6805 -0.3307
 1538TIP3   OH226028   0.316   2.438  14.891 -0.1129 -0.1382 -0.0513
 1538TIP3    H126029   0.334   2.484  14.973  1.6206 -2.2576  0.8391
 1538TIP3    H226030   0.329   2.504  14.823  1.5838  0.8854  1.2197
 1539TIP3   OH226031   1.969   4.195  12.762 -0.9673 -0.0990  0.3200
 1539TIP3    H126032   1.987   4.231  12.849  0.8259 -0.1277 -0.0272
 1539TIP3    H226033   2.051   4.155  12.734 -1.5316 -0.1462 -1.3684
 1540TIP3   OH226034   5.264   4.341  10.876 -0.0025 -0.4242 -0.5349
 1540TIP3    H126035   5.331   4.290  10.921 -0.9996 -0.7216  0.6406
 1540TIP3    H226036   5.296   4.349  10.786  0.9569 -1.6960 -0.3180
 1541TIP3   OH226037   2.100   4.440   3.631  0.1316  0.3658  0.1162
 1541TIP3    H126038   2.148   4.358   3.619 -1.3580 -0.5598  0.3691
 1541TIP3    H226039   2.163   4.508   3.608  1.6027 -0.8136  0.5714
 1542TIP3   OH226040   2.558   5.439  15.780 -0.1849  0.2488  0.1687
 1542TIP3    H126041   2.507   5.467  15.704 -0.1581  1.6108  0.6485
 1542TIP3    H226042   2.497   5.384  15.829 -0.0515 -1.0408 -1.0700
 1543TIP3   OH226043   1.824   1.463   2.293  0.7046 -0.1904 -0.4956
 1543TIP3    H126044   1.920   1.468   2.295  0.7891 -1.5974  0.1877
 1543TIP3    H226045   1.795   1.553   2.303  1.9638  0.1284  0.5291
 1544TIP3   OH226046   1.778   4.236  16.978  0.1670  0.1122 -0.4085
 1544TIP3    H126047   1.685   4.237  16.999  0.1895  0.0907 -0.3078
 1544TIP3    H226048   1.820   4.194  17.053  0.3351  0.7716 -0.1290
 1545TIP3   OH226049   1.244   5.805   1.721 -0.2515  0.4795  0.3917
 1545TIP3    H126050   1.299   5.837   1.792  0.2132  0.4980  0.0251
 1545TIP3    H226051   1.206   5.883   1.682  2.1281  0.7225 -1.5184
 1546TIP3   OH226052   6.683   0.693   2.447 -0.2192  0.7423 -0.0050
 1546TIP3    H126053   6.763   0.678   2.497 -0.7675 -1.4686  0.2539
 1546TIP3    H226054   6.695   0.780   2.409  2.7581  0.0725 -0.7907
 1547TIP3   OH226055   5.306   3.518  14.965  0.0366  0.2146 -0.2501
 1547TIP3    H126056   5.287   3.460  14.892 -1.0912  0.8308 -0.4712
 1547TIP3    H226057   5.367   3.583  14.930  0.1898 -0.0073 -0.3957
 1548TIP3   OH226058   3.118   1.200   2.963  0.1970 -0.3004  0.2363
 1548TIP3    H126059   3.168   1.194   3.044  1.1348  0.6634 -0.2676
 1548TIP3    H226060   3.027   1.202   2.992  0.4631 -1.3290  1.1878
 1549TIP3   OH226061   2.571   2.676   2.435 -0.6132  0.0562 -0.2588
 1549TIP3    H126062   2.538   2.595   2.475  0.0285  0.5095  1.2342
 1549TIP3    H226063   2.497   2.737   2.440 -0.4212  0.2349  0.6462
 1550TIP3   OH226064   1.766   1.344  16.458 -0.7701 -0.2453 -0.4154
 1550TIP3    H126065   1.762   1.305  16.371 -0.8676  0.0965 -0.5652
 1550TIP3    H226066   1.858   1.341  16.482 -0.5224  1.0665 -1.1777
 1551TIP3   OH226067   4.474   3.113  11.121 -0.1728 -0.7708  0.4096
 1551TIP3    H126068   4.458   3.194  11.073  0.4379 -1.1150 -0.3970
 1551TIP3    H226069   4.387   3.080  11.144 -0.4492 -0.2763  0.0761
 1552TIP3   OH226070   3.070   5.432  14.808 -0.4617 -0.3371  0.1702
 1552TIP3    H126071   3.103   5.378  14.736  2.3987  2.6219 -0.8715
 1552TIP3    H226072   2.983   5.460  14.778 -0.2161 -0.9408 -1.1572
 1553TIP3   OH226073   3.215   4.686   1.636  1.0564  0.8990  0.9715
 1553TIP3    H126074   3.150   4.746   1.599 -1.8952 -2.5453  0.2159
 1553TIP3    H226075   3.277   4.671   1.564  0.1386  0.7921  0.1867
 1554TIP3   OH226076   5.045   3.284   0.474 -0.7346  0.1651  0.4961
 1554TIP3    H126077   5.018   3.224   0.405  0.4575 -0.6426  0.7165
 1554TIP3    H226078   5.118   3.333   0.436  0.1460 -0.5135  1.2791
 1555TIP3   OH226079   6.093   1.061   0.107  0.0165  0.6524  0.1386
 1555TIP3    H126080   6.144   1.104   0.176  0.6663  0.8116 -0.4293
 1555TIP3    H226081   6.037   1.131   0.073 -0.0255  0.6717  0.2478
 1556TIP3   OH226082   2.736   2.840  13.753 -0.0456  0.1283  0.5221
 1556TIP3    H126083   2.755   2.748  13.738  1.0915  0.2292  1.2653
 1556TIP3    H226084   2.787   2.863  13.831 -0.5521  1.3059  0.5269
 1557TIP3   OH226085   0.930   1.860  16.531  0.3024  0.4499  0.4726
 1557TIP3    H126086   0.998   1.794  16.520  0.9343  1.2160 -0.2410
 1557TIP3    H226087   0.969   1.925  16.588 -0.1502  0.4539  0.7807
 1558TIP3   OH226088   4.461   4.280  16.386 -0.0918  0.0019 -0.0079
 1558TIP3    H126089   4.429   4.336  16.456  0.8129 -1.0919  1.3197
 1558TIP3    H226090   4.402   4.296  16.313 -1.5396  0.5669  1.2704
 1559TIP3   OH226091   0.506   0.715   0.895  0.0410  0.2180  0.0881
 1559TIP3    H126092   0.481   0.762   0.974 -0.4765  0.5255 -0.2557
 1559TIP3    H226093   0.479   0.772   0.823 -0.4885 -0.5534 -0.3339
 1560TIP3   OH226094   5.013   5.042   4.039 -0.1943  0.6117 -0.3927
 1560TIP3    H126095   4.973   5.087   4.113  1.5460  0.6887  0.5304
 1560TIP3    H226096   5.099   5.015   4.071 -0.1944 -1.1105 -1.7488
 1561TIP3   OH226097   2.708   5.773  13.618 -0.5573 -0.1311  0.5293
 1561TIP3    H126098   2.763   5.722  13.559 -2.0533 -0.3586 -0.7168
 1561TIP3    H226099   2.680   5.711  13.685  0.6057 -0.0399  1.1004
 1562TIP3   OH226100   3.787   3.099  14.251 -0.0931 -0.1172  0.5203
 1562TIP3    H126101   3.780   3.184  14.295 -1.0644  0.7709 -1.2493
 1562TIP3    H226102   3.881   3.083  14.244  0.0708 -0.1606  2.6459
 1563TIP3   OH226103   1.419   2.120   0.611 -0.5672  0.3741 -0.3597
 1563TIP3    H126104   1.438   2.175   0.535 -1.2171  0.9997 -0.0717
 1563TIP3    H226105   1.441   2.175   0.686 -3.1593  1.0163 -0.0134
 1564TIP3   OH226106   6.677   0.322  11.938  0.2835  0.4780  0.1032
 1564TIP3    H126107   6.700   0.229  11.935 -1.5348  0.0211  0.2549
 1564TIP3    H226108   6.601   0.327  11.995  0.8419  2.1729  0.7296
 1565TIP3   OH226109   4.748   4.486   4.659 -0.1352  0.1057 -0.1345
 1565TIP3    H126110   4.836   4.483   4.623  0.1496  1.6612  0.3759
 1565TIP3    H226111   4.706   4.559   4.613 -1.2678 -0.8333 -0.6130
 1566TIP3   OH226112   5.651   3.482  15.941 -0.0306 -0.4664 -0.3065
 1566TIP3    H126113   5.667   3.574  15.921 -1.1623 -0.3740 -0.8185
 1566TIP3    H226114   5.674   3.436  15.860  3.6401 -1.0042  0.9324
 1567TIP3   OH226115   2.388   0.591   5.279  0.2099  0.2772  0.4375
 1567TIP3    H126116   2.481   0.613   5.273  0.1762 -0.3093 -2.9433
 1567TIP3    H226117   2.387   0.504   5.320  1.3344 -0.8319 -1.7902
 1568TIP3   OH226118   6.116   0.916  14.929  0.2334 -0.2110  0.4004
 1568TIP3    H126119   6.206   0.904  14.960  0.5780  0.6691 -0.2371
 1568TIP3    H226120   6.121   0.901  14.835 -0.0020  1.2557  0.1475
 1569TIP3   OH226121   3.058   1.140  13.163  0.1861 -0.5053 -0.1396
 1569TIP3    H126122   3.150   1.164  13.173  0.2915 -0.8178 -0.3191
 1569TIP3    H226123   3.060   1.065  13.103 -0.1963 -0.4227 -0.2580
 1570TIP3   OH226124   0.496   1.918   5.480  0.1702 -0.5684  0.4446
 1570TIP3    H126125   0.406   1.898   5.506  0.6842 -3.5752  0.1165
 1570TIP3    H226126   0.548   1.900   5.559  0.4981  1.1252  0.6252
 1571TIP3   OH226127   6.729   3.099  11.307 -0.3949 -0.2202 -0.0221
 1571TIP3    H126128   6.745   3.167  11.372 -0.0713 -0.1081 -0.2233
 1571TIP3    H226129   6.709   3.021  11.359 -0.6349 -0.0085  0.2063
 1572TIP3   OH226130   1.436   4.804   2.295 -0.3375  0.3514 -0.5095
 1572TIP3    H126131   1.518   4.851   2.305 -0.4142  0.4375 -0.2767
 1572TIP3    H226132   1.405   4.790   2.384  0.3619 -1.3567 -0.5050
 1573TIP3   OH226133   2.241   6.295   2.552 -0.1659  0.8141 -0.2059
 1573TIP3    H126134   2.240   6.277   2.458 -1.9896  0.0394 -0.0688
 1573TIP3    H226135   2.187   6.373   2.562  0.9243  1.5431  0.0986
 1574TIP3   OH226136   1.180   4.429   5.529  0.4265 -0.6342  0.6516
 1574TIP3    H126137   1.235   4.466   5.598  1.5537  2.5172 -1.8398
 1574TIP3    H226138   1.091   4.440   5.562  0.8701  2.1928  1.0171
 1575TIP3   OH226139   1.833   2.446  14.118  0.0911  0.9516 -0.3869
 1575TIP3    H126140   1.925   2.467  14.137  0.7319 -1.4508 -0.5960
 1575TIP3    H226141   1.825   2.460  14.024  1.2727 -2.2443 -1.0234
 1576TIP3   OH226142   4.617   0.348   4.742 -0.4814  0.3734 -1.0716
 1576TIP3    H126143   4.657   0.432   4.764 -1.5268  0.7410 -0.5860
 1576TIP3    H226144   4.685   0.302   4.691  0.7434  0.8054  0.1418
 1577TIP3   OH226145   0.986   5.919  13.732 -0.2871 -0.0655 -0.0289
 1577TIP3    H126146   0.951   5.919  13.822 -1.3742  2.2076 -0.4335
 1577TIP3    H226147   0.912   5.946  13.678  0.8923  0.4477 -1.3949
 1578TIP3   OH226148   4.924   1.059  12.749 -0.0943  0.6404 -0.5307
 1578TIP3    H126149   4.936   0.973  12.789  0.6228  0.7781 -0.4446
 1578TIP3    H226150   4.842   1.092  12.787  0.3816  0.6009  0.5287
 1579TIP3   OH226151   1.535   4.735   0.196 -0.1206 -0.1332  0.2754
 1579TIP3    H126152   1.468   4.779   0.143  0.5811  0.0784 -0.4460
 1579TIP3    H226153   1.602   4.801   0.210 -0.6081  0.0057  2.0017
 1580TIP3   OH226154   3.938   2.651   5.383 -0.0380 -0.2535 -0.3133
 1580TIP3    H126155   3.851   2.645   5.421 -0.4359 -0.1210 -1.1887
 1580TIP3    H226156   3.952   2.745   5.372 -0.3151 -0.3299 -1.3672
 1581TIP3   OH226157   6.426   3.962  12.488  0.3489  0.1826  0.0887
 1581TIP3    H126158   6.334   3.980  12.470  0.0217 -1.8505 -0.3170
 1581TIP3    H226159   6.430   3.946  12.582  0.2624  0.0819  0.0741
 1582TIP3   OH226160   2.149   6.528  12.641  0.0125  0.4357 -0.2538
 1582TIP3    H126161   2.209   6.474  12.590  0.2398 -0.8221  1.2886
 1582TIP3    H226162   2.086   6.465  12.678 -1.9303  1.6506 -1.3818
 1583TIP3   OH226163   3.235   5.564   0.159 -0.2601  0.6205  0.2843
 1583TIP3    H126164   3.163   5.618   0.192 -1.5965 -1.5341  1.0379
 1583TIP3    H226165   3.294   5.556   0.234 -1.1886 -0.7786  0.8945
 1584TIP3   OH226166   0.821   1.492   0.609 -0.2959 -0.5572 -0.2736
 1584TIP3    H126167   0.757   1.442   0.558 -1.7726  0.7142  0.3088
 1584TIP3    H226168   0.816   1.581   0.573  1.6658 -0.6041 -0.7063
 1585TIP3   OH226169   0.785   4.354   0.981  0.4901 -0.3646 -0.4951
 1585TIP3    H126170   0.759   4.274   1.026 -0.0635 -0.2588 -0.6268
 1585TIP3    H226171   0.710   4.377   0.927  0.7157  0.1465 -0.5952
 1586TIP3   OH226172   0.293   1.397  14.236  0.2954 -0.3874 -0.1041
 1586TIP3    H126173   0.280   1.318  14.183  0.3738  0.5650 -1.5825
 1586TIP3    H226174   0.289   1.468  14.173  2.1894  0.6689  0.9248
 1587TIP3   OH226175   6.355   2.244  13.759 -0.0610 -0.0799  0.1832
 1587TIP3    H126176   6.314   2.249  13.672 -2.0376 -0.6986  1.0652
 1587TIP3    H226177   6.339   2.154  13.788  0.7810  0.0607  1.1039
 1588TIP3   OH226178   3.834   3.554  16.272 -0.3611 -0.2655  0.1601
 1588TIP3    H126179   3.878   3.564  16.187 -1.8253  0.1443 -0.5639
 1588TIP3    H226180   3.869   3.473  16.308 -0.1750 -0.7528 -1.1042
 1589TIP3   OH226181   5.963   5.814  11.257  0.0157 -0.6452  0.0109
 1589TIP3    H126182   5.930   5.838  11.170  0.2233 -1.7985 -0.3965
 1589TIP3    H226183   6.056   5.796  11.243  0.0325 -0.9065  0.4565
 1590TIP3   OH226184   5.129   4.343   3.577  0.0456 -0.4152  0.5006
 1590TIP3    H126185   5.059   4.375   3.634 -0.2550 -1.8594  0.9670
 1590TIP3    H226186   5.149   4.255   3.609  3.1537  0.5286  1.3193
 1591TIP3   OH226187   0.288   2.697   2.419 -0.1269 -0.3907  0.3302
 1591TIP3    H126188   0.373   2.654   2.436  0.3685  0.4489 -0.0081
 1591TIP3    H226189   0.225   2.625   2.416  0.8057 -1.1690 -0.9264
 1592TIP3   OH226190   5.147   1.961   3.234 -0.0172 -0.0011  0.4691
 1592TIP3    H126191   5.243   1.955   3.234  0.0039  0.1483  2.0968
 1592TIP3    H226192   5.121   1.923   3.318 -1.3578  0.3683  0.2227
 1593TIP3   OH226193   2.914   1.624   0.855  0.8873 -0.8970  0.4321
 1593TIP3    H126194   2.890   1.539   0.893  1.7564 -0.8188  1.1999
 1593TIP3    H226195   2.870   1.627   0.771 -1.5345 -0.8609  1.6773
 1594TIP3   OH226196   2.234   2.367  16.237 -0.0913 -0.1273 -0.1309
 1594TIP3    H126197   2.170   2.315  16.285  1.5661 -0.1968  2.0994
 1594TIP3    H226198   2.187   2.446  16.210 -1.7457 -1.2987 -0.7032
 1595TIP3   OH226199   4.134   1.745  13.708 -0.3164  0.0319 -0.0522
 1595TIP3    H126200   4.193   1.819  13.691 -0.1243  0.1021  0.9128
 1595TIP3    H226201   4.058   1.763  13.654  0.1504  0.4247 -0.5925
 1596TIP3   OH226202   5.429   1.003  14.022 -0.7027  0.3003 -0.9518
 1596TIP3    H126203   5.396   1.000  13.932 -1.0032 -0.6610 -0.8185
 1596TIP3    H226204   5.391   0.926  14.064 -0.9177  0.9755  0.1224
 1597TIP3   OH226205   2.004   0.213  17.214 -0.0478  0.1580  0.3809
 1597TIP3    H126206   1.920   0.236  17.175 -0.6113 -0.7779  1.0251
 1597TIP3    H226207   1.982   0.177  17.300  1.0236  0.1062  0.6454
 1598TIP3   OH226208   3.183   6.221  13.349 -0.4414  0.3761 -0.1595
 1598TIP3    H126209   3.212   6.271  13.425 -0.9386 -1.9498  1.6274
 1598TIP3    H226210   3.128   6.282  13.299  0.2078  2.0454  1.1229
 1599TIP3   OH226211   2.965   6.561   1.471 -0.6194 -0.1730  0.2800
 1599TIP3    H126212   2.934   6.500   1.538 -0.8352 -0.4731 -0.0911
 1599TIP3    H226213   2.893   6.624   1.462  0.4705  1.3741  2.1787
 1600TIP3   OH226214   3.398   1.026   0.781 -0.7540 -0.4838  0.3674
 1600TIP3    H126215   3.331   0.960   0.762  2.2192 -3.1354 -1.3678
 1600TIP3    H226216   3.418   1.064   0.696  1.2983 -1.1280  0.5367
 1601TIP3   OH226217   6.634   3.187   0.538 -0.2810 -0.0115 -0.5311
 1601TIP3    H126218   6.586   3.113   0.576  0.4545 -0.4427 -0.4228
 1601TIP3    H226219   6.637   3.252   0.609 -1.1670  0.2404 -0.7170
 1602TIP3   OH226220   3.167   0.420  16.987 -0.0480 -0.8134 -0.0917
 1602TIP3    H126221   3.185   0.348  16.926  2.9010  0.2458 -0.5421
 1602TIP3    H226222   3.119   0.378  17.059  0.3550 -2.9526 -1.0234
 1603TIP3   OH226223   4.483   2.794  15.713  0.0101  0.0704  0.2908
 1603TIP3    H126224   4.464   2.866  15.652 -0.3282 -1.5980 -1.6262
 1603TIP3    H226225   4.400   2.748  15.722  1.1601 -2.6121 -1.9386
 1604TIP3   OH226226   6.617   5.759   6.736  0.5695  0.3035 -0.4913
 1604TIP3    H126227   6.650   5.743   6.824  0.4662 -1.0967 -0.7012
 1604TIP3    H226228   6.568   5.680   6.714 -0.0771  0.9753 -1.4955
 1605TIP3   OH226229   5.876   3.110  12.911 -0.2331 -0.7627 -0.2241
 1605TIP3    H126230   5.801   3.098  12.853 -0.2520 -3.0113  0.2451
 1605TIP3    H226231   5.846   3.078  12.997  1.2428 -1.7017 -0.0337
 1606TIP3   OH226232   3.267   5.695  16.052  0.4023  0.4129  0.6003
 1606TIP3    H126233   3.204   5.625  16.036  0.5014  0.9893 -2.5487
 1606TIP3    H226234   3.214   5.769  16.081 -0.0318  0.0602  0.7165
 1607TIP3   OH226235   0.760   0.516  15.918 -0.2100  0.1790 -0.4894
 1607TIP3    H126236   0.793   0.595  15.962 -0.9531  0.2895 -0.1284
 1607TIP3    H226237   0.756   0.450  15.986  1.4587 -0.5020 -1.0216
 1608TIP3   OH226238   6.520   3.782   5.028 -0.1819  0.0556 -0.1874
 1608TIP3    H126239   6.572   3.759   4.950  0.7255  0.5509  0.2651
 1608TIP3    H226240   6.448   3.834   4.993 -1.2948 -1.9782 -1.0167
 1609TIP3   OH226241   2.366   0.753   5.786 -0.5493 -0.2873 -0.4571
 1609TIP3    H126242   2.363   0.819   5.716  0.5743  0.8400  0.5447
 1609TIP3    H226243   2.278   0.715   5.787 -1.5199  1.9068 -0.3601
 1610TIP3   OH226244   4.935   3.130   2.089 -0.2822 -0.2048  0.0191
 1610TIP3    H126245   4.903   3.183   2.017 -1.1913 -0.2840  0.3553
 1610TIP3    H226246   4.965   3.193   2.154  0.1716 -0.1289 -0.2623
 1611TIP3   OH226247   0.924   3.468  12.421  0.2178 -0.2624  0.8492
 1611TIP3    H126248   1.011   3.470  12.459  0.5575  0.1234  0.0632
 1611TIP3    H226249   0.932   3.517  12.339 -0.7684 -0.0932  0.8434
 1612TIP3   OH226250   0.501   1.397   4.900 -0.3401 -0.1356  0.4784
 1612TIP3    H126251   0.439   1.433   4.964  1.0201  0.7822  1.3165
 1612TIP3    H226252   0.577   1.455   4.905  0.7523 -1.4657 -0.2502
 1613TIP3   OH226253   4.694   1.687   6.380  0.2702  0.0853 -0.2197
 1613TIP3    H126254   4.602   1.687   6.352  0.8262 -0.8751 -2.1494
 1613TIP3    H226255   4.731   1.609   6.340  2.1961  1.0197 -0.3191
 1614TIP3   OH226256   1.050   5.445  14.011 -0.3062 -0.2767 -0.0891
 1614TIP3    H126257   1.067   5.538  14.001 -1.9792 -0.1568 -2.1039
 1614TIP3    H226258   1.137   5.404  14.002  0.6579  1.1478  2.3914
 1615TIP3   OH226259   4.750   2.373   1.295 -0.6347  0.6321 -0.0943
 1615TIP3    H126260   4.722   2.294   1.249  2.7044 -0.1523 -0.8908
 1615TIP3    H226261   4.738   2.444   1.232 -0.2935  0.2269 -0.6126
 1616TIP3   OH226262   3.893   4.875  15.111  0.4442 -0.2242 -0.5363
 1616TIP3    H126263   3.844   4.878  15.028 -1.7661 -1.2295  0.6764
 1616TIP3    H226264   3.956   4.804  15.098 -1.3354 -1.8440 -0.6459
 1617TIP3   OH226265   5.837   3.897  11.077  0.6730  0.0386 -0.3631
 1617TIP3    H126266   5.902   3.881  11.008 -0.0500  0.3078 -1.1057
 1617TIP3    H226267   5.835   3.992  11.086  0.1513  0.0450 -0.5611
 1618TIP3   OH226268   0.550   5.455  14.321 -0.7018 -0.3725  0.1429
 1618TIP3    H126269   0.610   5.529  14.332 -2.0858  0.6945  0.6746
 1618TIP3    H226270   0.468   5.485  14.361 -1.5023 -1.9146 -0.3190
 1619TIP3   OH226271   6.448   6.594   3.344  0.0864  0.3730 -0.1767
 1619TIP3    H126272   6.532   6.572   3.383 -0.4778 -1.3564  0.1271
 1619TIP3    H226273   6.385   6.539   3.391 -0.7215 -1.0779 -2.8619
 1620TIP3   OH226274   1.843   0.739   1.113  0.1477  0.2521  0.0555
 1620TIP3    H126275   1.852   0.649   1.144  2.7792 -0.1633 -1.7760
 1620TIP3    H226276   1.859   0.793   1.190  2.9288 -0.7983  0.2396
 1621TIP3   OH226277   3.592   2.003   3.616  0.5319  0.3941  0.2037
 1621TIP3    H126278   3.663   2.059   3.584  0.2594  1.7328  1.8643
 1621TIP3    H226279   3.594   2.014   3.711 -0.5659 -1.1964  0.4253
 1622TIP3   OH226280   1.851   0.369   1.413  0.8746 -0.2849 -0.3495
 1622TIP3    H126281   1.932   0.367   1.464  0.5720  2.3205  0.3485
 1622TIP3    H226282   1.875   0.416   1.333  0.4418 -0.9624 -0.8759
 1623TIP3   OH226283   1.516   1.196   2.942  0.1792 -0.1522 -0.7612
 1623TIP3    H126284   1.599   1.241   2.924  0.9272 -0.8775  0.7285
 1623TIP3    H226285   1.542   1.108   2.970 -1.0754 -0.3096 -0.0512
 1624TIP3   OH226286   2.275   3.069  14.460  0.3485 -0.0494 -0.2551
 1624TIP3    H126287   2.358   3.114  14.474 -0.5050  1.5986 -0.4493
 1624TIP3    H226288   2.276   3.045  14.367  0.1673  0.8488 -0.4868
 1625TIP3   OH226289   1.776   4.556   1.424 -0.2758 -0.0737 -0.2282
 1625TIP3    H126290   1.772   4.520   1.336 -1.3953  0.0823 -0.2516
 1625TIP3    H226291   1.697   4.609   1.432 -0.3847 -0.4005  1.0042
 1626TIP3   OH226292   5.547   0.249  13.378 -0.0401 -0.5227  0.1811
 1626TIP3    H126293   5.588   0.186  13.438 -0.7820  0.2947  1.5980
 1626TIP3    H226294   5.453   0.231  13.386 -0.1688 -0.1122 -0.3958
 1627TIP3   OH226295   2.057   1.323  13.719  0.1362 -0.2498 -0.0689
 1627TIP3    H126296   2.126   1.389  13.709 -0.3617  0.1477 -0.9488
 1627TIP3    H226297   1.983   1.359  13.671 -0.6344 -0.7558  0.7439
 1628TIP3   OH226298   3.034   3.406  16.431  0.3499  0.1138 -0.0392
 1628TIP3    H126299   3.125   3.427  16.450  0.6480 -0.5888 -0.6261
 1628TIP3    H226300   3.020   3.438  16.342 -0.4405  1.6065  0.6070
 1629TIP3   OH226301   3.602   1.352  16.137  0.0592  0.2808  0.4421
 1629TIP3    H126302   3.530   1.327  16.196 -0.3003 -0.5716 -0.3461
 1629TIP3    H226303   3.566   1.425  16.086  0.0061  0.3347  0.5552
 1630TIP3   OH226304   2.219   4.316   3.223 -0.4264  0.0952  0.4047
 1630TIP3    H126305   2.241   4.400   3.263  0.4275  0.4860 -0.8450
 1630TIP3    H226306   2.270   4.314   3.142  0.2315 -2.0155  0.8467
 1631TIP3   OH226307   2.789   6.523   5.921 -1.1071  0.3188  0.5208
 1631TIP3    H126308   2.808   6.464   5.994 -0.5828  0.7350  0.7252
 1631TIP3    H226309   2.868   6.576   5.912 -1.5571  0.9623  0.3147
 1632TIP3   OH226310   3.808   3.520   4.503 -0.6952 -0.1256  0.7051
 1632TIP3    H126311   3.899   3.540   4.482 -0.4520 -1.5337  0.3378
 1632TIP3    H226312   3.809   3.427   4.526 -2.2076 -0.4274 -0.3443
 1633TIP3   OH226313   3.963   2.263   0.769 -0.0316 -0.7903  0.3967
 1633TIP3    H126314   3.919   2.195   0.717  0.7887  0.2127 -1.6731
 1633TIP3    H226315   4.033   2.216   0.815  0.5269 -1.3548 -1.0070
 1634TIP3   OH226316   6.527   2.677  11.991 -0.5953 -0.0315 -0.4334
 1634TIP3    H126317   6.433   2.683  11.973 -0.5437  0.8989 -0.4147
 1634TIP3    H226318   6.538   2.719  12.076 -0.1503 -0.0693 -0.4711
 1635TIP3   OH226319   0.738   4.265   3.856 -0.1258 -1.1749 -0.2762
 1635TIP3    H126320   0.717   4.313   3.936 -2.3476 -0.4837 -1.2058
 1635TIP3    H226321   0.833   4.264   3.851 -0.0070  0.0150  1.6284
 1636TIP3   OH226322   1.032   4.571  16.236 -0.1876 -0.0858 -0.0321
 1636TIP3    H126323   1.062   4.654  16.199 -2.8860  0.1323 -1.8417
 1636TIP3    H226324   1.102   4.546  16.297  1.6135  2.4828 -0.9351
 1637TIP3   OH226325   6.640   2.518   5.157 -0.5895 -0.1403 -0.3755
 1637TIP3    H126326   6.556   2.486   5.189  0.1705 -3.8913 -1.8691
 1637TIP3    H226327   6.696   2.518   5.234 -0.6224 -2.5701 -0.2984
 1638TIP3   OH226328   3.398   4.913  13.035  0.5214  0.0285 -0.2153
 1638TIP3    H126329   3.358   4.850  12.974 -2.0889  1.8983 -0.5302
 1638TIP3    H226330   3.326   4.970  13.061  2.1998  1.0239  2.4485
 1639TIP3   OH226331   1.693   1.169   1.487  0.1286 -0.8320 -0.1555
 1639TIP3    H126332   1.682   1.105   1.556 -2.0162 -0.0625  0.2382
 1639TIP3    H226333   1.781   1.152   1.452  0.6788 -2.1127  1.8103
 1640TIP3   OH226334   4.651   1.452   0.326  0.1092 -0.2497 -0.1258
 1640TIP3    H126335   4.633   1.536   0.285  1.5811  1.0464  1.8113
 1640TIP3    H226336   4.716   1.411   0.269 -0.5892 -0.0806 -1.0548
 1641TIP3   OH226337   0.467   4.234   5.073  0.2510  0.1108 -0.2787
 1641TIP3    H126338   0.430   4.182   5.002  0.7903 -2.3510  1.1755
 1641TIP3    H226339   0.554   4.196   5.088 -0.5494 -0.5981  2.8582
 1642TIP3   OH226340   2.591   2.396   3.160 -0.1825 -0.1866  0.4830
 1642TIP3    H126341   2.662   2.442   3.206  1.1740 -1.3894 -0.3652
 1642TIP3    H226342   2.517   2.457   3.164  1.4901  1.9958 -0.3681
 1643TIP3   OH226343   3.557   4.549  11.356  0.4918 -0.5334 -0.6194
 1643TIP3    H126344   3.558   4.463  11.316  0.9490 -0.7410 -0.1696
 1643TIP3    H226345   3.487   4.544  11.421  0.7407 -0.6736 -0.3613
 1644TIP3   OH226346   5.635   2.364  16.109  0.6327  0.4568  0.1459
 1644TIP3    H126347   5.687   2.289  16.137  0.9317  0.0522 -1.4286
 1644TIP3    H226348   5.631   2.421  16.186 -0.0566 -1.4112  1.5513
 1645TIP3   OH226349   1.849   1.650   4.961  0.2449  0.8132  0.7222
 1645TIP3    H126350   1.854   1.580   5.027 -0.4433  1.2507  1.2417
 1645TIP3    H226351   1.762   1.641   4.922  0.7498  0.3896 -0.3221
 1646TIP3   OH226352   3.400   3.469   4.824  0.3731  0.1851 -0.4665
 1646TIP3    H126353   3.380   3.555   4.861  0.6804  0.3140 -0.6017
 1646TIP3    H226354   3.478   3.483   4.771  0.0715 -0.0528 -0.9744
 1647TIP3   OH226355   4.969   0.014  15.897 -0.2809 -0.0820  0.2809
 1647TIP3    H126356   4.928  -0.071  15.911 -1.7018  0.3135 -1.4325
 1647TIP3    H226357   5.055   0.006  15.939 -1.5788 -1.3248  2.8066
 1648TIP3   OH226358   0.869   0.729  16.073  0.4325  0.3945 -0.5643
 1648TIP3    H126359   0.902   0.687  16.152  0.2454 -1.3728 -1.3947
 1648TIP3    H226360   0.936   0.794  16.050  0.5175  0.8788  0.9801
 1649TIP3   OH226361   5.462   0.283  10.960 -0.2033  0.2596 -0.3902
 1649TIP3    H126362   5.398   0.233  11.010 -0.0423  0.4141 -0.0336
 1649TIP3    H226363   5.528   0.218  10.934  0.0449  0.2995  0.1363
 1650TIP3   OH226364   1.076   0.025   5.044 -0.1421  0.4465 -0.7228
 1650TIP3    H126365   1.110   0.048   5.131 -0.3381  0.6473 -0.6989
 1650TIP3    H226366   0.990   0.067   5.040 -1.4065 -1.9842  0.1220
 1651TIP3   OH226367   5.547   5.725   5.796 -0.0309 -1.0431 -0.5204
 1651TIP3    H126368   5.527   5.649   5.850 -0.5987 -0.6217 -0.1321
 1651TIP3    H226369   5.472   5.734   5.738 -1.3815  0.9516  1.4071
 1652TIP3   OH226370   5.531   6.474   0.085 -0.1333 -0.4440  0.4642
 1652TIP3    H126371   5.496   6.557   0.053 -0.3930 -0.3922  0.8713
 1652TIP3    H226372   5.592   6.500   0.155 -0.0790 -0.5859  0.4694
 1653TIP3   OH226373   5.040   2.210  10.303 -0.4440  0.3382  0.0394
 1653TIP3    H126374   5.006   2.299  10.296  0.3460  0.6638  0.2780
 1653TIP3    H226375   5.096   2.199  10.227 -3.0974 -1.1189 -1.7977
 1654TIP3   OH226376   1.333   4.548   3.808  0.2963  0.7798 -0.6784
 1654TIP3    H126377   1.250   4.532   3.853 -0.0566  0.7441 -1.3403
 1654TIP3    H226378   1.364   4.462   3.783  0.6999  0.7692 -0.1313
 1655TIP3   OH226379   5.976   4.061   1.474  0.3311  0.0411  0.6190
 1655TIP3    H126380   6.054   4.068   1.419  1.4738 -1.8044  1.9446
 1655TIP3    H226381   6.003   4.099   1.558 -0.4007 -0.0455  0.8963
 1656TIP3   OH226382   4.503   4.571  12.579 -0.1973  0.7109 -0.1513
 1656TIP3    H126383   4.471   4.629  12.510  0.9131 -0.3992 -1.6712
 1656TIP3    H226384   4.576   4.524  12.538  0.7878  0.3515  1.9468
 1657TIP3   OH226385   2.338   3.436  12.504  0.2900 -0.1220 -0.1476
 1657TIP3    H126386   2.428   3.458  12.481  0.3513  0.9669  1.1106
 1657TIP3    H226387   2.345   3.349  12.543  0.9840  0.4933  1.1279
 1658TIP3   OH226388   2.426   0.097   2.598 -0.1584 -0.3733 -0.1126
 1658TIP3    H126389   2.470   0.058   2.674  0.1335 -0.1957 -0.1855
 1658TIP3    H226390   2.477   0.066   2.523 -0.2255 -0.2568 -0.2062
 1659TIP3   OH226391   4.486   4.141   1.492  0.9237  0.0869 -0.1675
 1659TIP3    H126392   4.496   4.049   1.514  0.7400  0.2221  0.5205
 1659TIP3    H226393   4.571   4.168   1.458  1.5107  0.0880  1.2534
 1660TIP3   OH226394   2.060   1.790   5.713  0.3236  0.2709  0.3388
 1660TIP3    H126395   2.155   1.782   5.709  0.0959 -3.5958  0.0273
 1660TIP3    H226396   2.038   1.849   5.642  2.5217  1.6340  0.7527
 1661TIP3   OH226397   2.116   6.735  12.461 -0.1540  0.1621 -0.3197
 1661TIP3    H126398   2.140   6.649  12.494 -0.2325 -0.1511 -1.0711
 1661TIP3    H226399   2.130   6.794  12.535 -0.1316 -0.4991  0.2082
 1662TIP3   OH226400   4.517   3.966   3.472 -0.2299 -0.4713  0.3932
 1662TIP3    H126401   4.484   3.884   3.509 -0.9667  0.1365  1.1196
 1662TIP3    H226402   4.443   4.027   3.481  0.5113  0.4310  0.4061
 1663TIP3   OH226403   2.713   4.007   1.250 -0.0005 -0.1826 -0.6741
 1663TIP3    H126404   2.673   3.941   1.306 -0.5810 -0.9808 -2.0015
 1663TIP3    H226405   2.742   3.959   1.173 -0.0019  1.0323 -1.4486
 1664TIP3   OH226406   5.222   2.626   1.709  0.3456 -0.4612  0.4541
 1664TIP3    H126407   5.299   2.644   1.654  1.4027  0.0259  2.0595
 1664TIP3    H226408   5.187   2.544   1.674 -0.1833  0.8619 -2.2139
 1665TIP3   OH226409   2.252   1.643  11.642 -0.2738 -0.1836 -0.2071
 1665TIP3    H126410   2.164   1.610  11.661  0.2113 -1.6773 -0.4239
 1665TIP3    H226411   2.239   1.705  11.570 -1.1136 -0.6769 -0.4977
 1666TIP3   OH226412   3.174   5.554   6.386 -0.1570 -0.2116 -0.0946
 1666TIP3    H126413   3.199   5.509   6.467 -0.8247  0.7872  0.6712
 1666TIP3    H226414   3.080   5.538   6.377  0.1358 -1.3386 -1.3236
 1667TIP3   OH226415   5.919   4.632   2.796  0.4675 -0.0270  0.1492
 1667TIP3    H126416   5.898   4.716   2.836  1.1479  0.7022 -1.0053
 1667TIP3    H226417   6.015   4.629   2.796  0.4508 -0.9378  0.4499
 1668TIP3   OH226418   3.270   6.749  12.667  0.7439  0.3384  0.3164
 1668TIP3    H126419   3.202   6.685  12.690  0.8559  1.0052  2.5981
 1668TIP3    H226420   3.301   6.783  12.751  1.3527  2.7143 -0.8206
 1669TIP3   OH226421   4.373   2.678  16.818  0.4226  0.0574 -0.0845
 1669TIP3    H126422   4.448   2.629  16.784  0.6912 -0.6745  1.4761
 1669TIP3    H226423   4.365   2.648  16.909 -0.4768  1.6657  0.3833
 1670TIP3   OH226424   0.773   3.890  14.793  0.2211  0.1350  0.3999
 1670TIP3    H126425   0.766   3.794  14.785 -2.1903  0.1757  1.4231
 1670TIP3    H226426   0.683   3.919  14.808  0.9916  2.5391  0.5965
 1671TIP3   OH226427   4.464   2.090   1.020 -0.3652 -0.2581 -0.3491
 1671TIP3    H126428   4.452   2.185   1.023  0.9347 -0.1169  0.6176
 1671TIP3    H226429   4.527   2.076   0.949  0.0257 -0.3277  0.0079
 1672TIP3   OH226430   6.424   1.913  15.019  0.0278  0.0983  0.1149
 1672TIP3    H126431   6.422   1.985  14.956 -0.0132 -0.5196 -0.6041
 1672TIP3    H226432   6.334   1.880  15.020  0.5615 -1.5040 -1.4149
 1673TIP3   OH226433   0.154   0.661   4.312  0.2380  0.7124  0.6051
 1673TIP3    H126434   0.071   0.662   4.358  0.9712  2.9386  1.9188
 1673TIP3    H226435   0.190   0.749   4.324  1.4240  0.7053 -2.4371
 1674TIP3   OH226436   1.134   4.443  17.117  0.4359 -0.1729  0.1853
 1674TIP3    H126437   1.075   4.411  17.185 -0.7738  0.8475 -0.3629
 1674TIP3    H226438   1.137   4.372  17.053  0.8946 -0.7831  0.8761
 1675TIP3   OH226439   4.754   6.062  12.179 -0.0518 -0.2468  0.3004
 1675TIP3    H126440   4.788   6.036  12.093 -0.8285 -1.1343  0.2454
 1675TIP3    H226441   4.738   5.979  12.224 -1.9038  0.1438  0.4036
 1676TIP3   OH226442   2.892   4.720  14.394 -0.5758 -0.4671 -0.3322
 1676TIP3    H126443   2.804   4.684  14.381 -1.4230  1.0605  1.0151
 1676TIP3    H226444   2.922   4.741  14.305 -2.4533  0.9897 -0.6565
 1677TIP3   OH226445   5.584   4.398  12.982  0.3588 -0.0250  0.3420
 1677TIP3    H126446   5.632   4.453  13.043  3.2014 -0.1028 -1.7263
 1677TIP3    H226447   5.590   4.444  12.898  1.0024 -2.4330 -0.9796
 1678TIP3   OH226448   0.621   5.394   6.109  0.4708  0.2444 -0.1478
 1678TIP3    H126449   0.704   5.408   6.154 -0.1671  1.1568  0.7902
 1678TIP3    H226450   0.575   5.478   6.117 -0.4546 -0.1873 -0.8167
 1679TIP3   OH226451   4.469   2.195  12.359 -0.3264  0.4268  0.0174
 1679TIP3    H126452   4.438   2.271  12.311 -1.2075  0.5366  0.7464
 1679TIP3    H226453   4.565   2.204  12.359 -0.3880  1.1022 -0.5877
 1680TIP3   OH226454   0.675   6.581   3.937  0.6832  0.6395  0.6166
 1680TIP3    H126455   0.585   6.551   3.924  1.4940 -1.4072 -0.3552
 1680TIP3    H226456   0.668   6.646   4.007 -1.6484  1.0285  0.0693
 1681TIP3   OH226457   4.753   5.170  12.574 -0.6324 -0.3776  0.1199
 1681TIP3    H126458   4.667   5.194  12.608 -1.3674 -1.8192 -0.6410
 1681TIP3    H226459   4.771   5.084  12.613  0.6093  0.0543  0.5225
 1682TIP3   OH226460   6.209   3.530   4.691 -0.3590  0.2896  0.4295
 1682TIP3    H126461   6.290   3.521   4.741 -1.0980 -1.0836  1.4015
 1682TIP3    H226462   6.221   3.474   4.614 -0.2963  0.2799  0.4466
 1683TIP3   OH226463   2.506   6.458   2.965 -0.3999  0.4168  0.0842
 1683TIP3    H126464   2.429   6.500   3.006 -0.8953 -2.1515  1.9042
 1683TIP3    H226465   2.470   6.407   2.893  0.0037  1.6787 -1.0340
 1684TIP3   OH226466   3.461   4.980   2.311  0.6492  0.3753  0.2562
 1684TIP3    H126467   3.408   4.907   2.278  0.9624 -0.0797  0.7439
 1684TIP3    H226468   3.530   4.991   2.246 -2.0625  3.3307 -2.2651
 1685TIP3   OH226469   3.993   5.191   3.151 -0.1279  0.6013 -0.3593
 1685TIP3    H126470   4.005   5.157   3.239 -0.0985 -0.0264 -0.6001
 1685TIP3    H226471   4.071   5.244   3.134  0.8375 -0.9146 -0.7541
 1686TIP3   OH226472   4.797   1.259  13.726 -0.0732 -0.7435  0.5908
 1686TIP3    H126473   4.782   1.272  13.819 -2.2546 -1.1288  0.3103
 1686TIP3    H226474   4.710   1.260  13.686  0.8208 -0.5583 -1.4514
 1687TIP3   OH226475   2.981   1.449   5.374 -0.1847 -0.5646  0.4890
 1687TIP3    H126476   3.020   1.535   5.391 -0.1092 -0.0435 -2.0336
 1687TIP3    H226477   3.054   1.397   5.338 -0.2624 -1.6456  1.8890
 1688TIP3   OH226478   5.771   5.150  11.690  0.1231 -0.0643  0.1828
 1688TIP3    H126479   5.764   5.145  11.785  0.9857 -1.2894  0.1952
 1688TIP3    H226480   5.681   5.141  11.658 -0.1671  0.3616  0.8761
 1689TIP3   OH226481   2.232   3.870   5.839 -0.0570  0.4739  0.7334
 1689TIP3    H126482   2.156   3.812   5.826 -0.7093  1.2298  1.1338
 1689TIP3    H226483   2.297   3.838   5.776 -0.7091 -0.1751  0.3726
 1690TIP3   OH226484   3.599   5.740   6.563 -0.6884 -0.3583 -0.2296
 1690TIP3    H126485   3.506   5.721   6.570 -0.5090 -1.3810 -0.5540
 1690TIP3    H226486   3.604   5.835   6.565 -1.6916 -0.3045  0.3945
 1691TIP3   OH226487   3.575   6.476   6.798 -0.8700  0.2428 -0.3204
 1691TIP3    H126488   3.534   6.435   6.874 -0.3442 -0.4408 -0.3992
 1691TIP3    H226489   3.657   6.512   6.832 -0.5546 -0.2080 -0.5841
 1692TIP3   OH226490   2.610   5.120   2.521 -0.1312  0.1518  0.5355
 1692TIP3    H126491   2.565   5.132   2.605  1.1832  1.7363  1.0158
 1692TIP3    H226492   2.660   5.200   2.507 -1.8235  0.7549 -2.7107
 1693TIP3   OH226493   1.799   0.888  12.844  0.0164  0.1510  0.4165
 1693TIP3    H126494   1.804   0.871  12.749 -0.4166 -0.8205  0.5553
 1693TIP3    H226495   1.882   0.855  12.879  0.2356  0.6402  0.3563
 1694TIP3   OH226496   6.234   0.874  11.535  0.0949 -0.1977  0.2769
 1694TIP3    H126497   6.322   0.904  11.554  0.1653 -0.5167  0.4580
 1694TIP3    H226498   6.186   0.953  11.510  0.3483  0.0222  0.4863
 1695TIP3   OH226499   1.266   0.396  16.987 -0.7827 -0.0637 -0.3551
 1695TIP3    H126500   1.315   0.472  17.018 -1.0150 -0.1964  0.3383
 1695TIP3    H226501   1.245   0.417  16.896 -0.0137  0.2797 -0.4599
 1696TIP3   OH226502   0.063   6.413   6.146 -0.3538  0.0263  0.1754
 1696TIP3    H126503   0.149   6.438   6.112 -0.1747 -1.0377 -0.1688
 1696TIP3    H226504   0.081   6.374   6.232 -0.4456 -0.5461 -0.0612
 1697TIP3   OH226505   6.225   4.130   4.073 -0.3072 -0.5259  0.5351
 1697TIP3    H126506   6.270   4.202   4.117 -0.2846  0.3569 -0.8798
 1697TIP3    H226507   6.133   4.139   4.100  0.1255 -1.5392  2.3906
 1698TIP3   OH226508   4.459   6.694  16.873  0.5692 -0.6179  0.2425
 1698TIP3    H126509   4.365   6.701  16.889  0.8479  1.0996  1.1430
 1698TIP3    H226510   4.486   6.618  16.925 -0.3088 -1.1775 -0.0897
 1699TIP3   OH226511   4.179   2.973   0.425 -0.1482  0.0680  0.3563
 1699TIP3    H126512   4.223   2.958   0.341  1.3517  1.6500  0.8183
 1699TIP3    H226513   4.173   2.887   0.465 -1.8615 -0.8782 -1.8303
 1700TIP3   OH226514   0.819   5.658  12.780  0.6291  0.3380 -0.3971
 1700TIP3    H126515   0.728   5.654  12.750  0.4780  0.0842  0.0951
 1700TIP3    H226516   0.867   5.604  12.716  0.1812 -0.8681  0.2737
 1701TIP3   OH226517   4.248   3.235   1.879 -0.3301 -0.2857  0.4317
 1701TIP3    H126518   4.244   3.156   1.825  0.8394  3.2767 -5.2361
 1701TIP3    H226519   4.335   3.231   1.919  0.6370 -0.8297 -1.6214
 1702TIP3   OH226520   2.301   3.617  12.766  0.1080  0.4858  0.0419
 1702TIP3    H126521   2.335   3.661  12.688 -2.8836 -0.1265 -1.6622
 1702TIP3    H226522   2.347   3.533  12.768  2.1171  1.5506  0.4814
 1703TIP3   OH226523   0.765   3.422   1.951 -0.4138  0.4125 -0.1779
 1703TIP3    H126524   0.734   3.349   1.896  1.1252  0.8235 -1.6499
 1703TIP3    H226525   0.765   3.497   1.892 -0.9023  1.3709  1.0340
 1704TIP3   OH226526   2.298   2.071   1.317 -0.1127  0.5248 -0.0217
 1704TIP3    H126527   2.304   2.067   1.412  0.3229  1.0355 -0.0281
 1704TIP3    H226528   2.211   2.035   1.297 -1.0684  2.3883  0.7000
 1705TIP3   OH226529   3.211   2.125  11.503 -0.2834  0.1695  0.0542
 1705TIP3    H126530   3.234   2.033  11.491  1.3652  0.6821 -0.8221
 1705TIP3    H226531   3.215   2.163  11.416  0.2606  1.3364  0.5675
 1706TIP3   OH226532   3.639   0.043   0.287 -0.0597 -0.2874  0.0301
 1706TIP3    H126533   3.590   0.069   0.366  1.0340 -0.5674  0.8108
 1706TIP3    H226534   3.672   0.125   0.251 -1.7199 -0.0121 -0.9348
 1707TIP3   OH226535   2.794   2.590  13.605  0.1926 -1.0756  0.1781
 1707TIP3    H126536   2.876   2.553  13.572 -0.3780 -2.8089  0.6593
 1707TIP3    H226537   2.768   2.530  13.676 -0.9736  0.0215  0.6835
 1708TIP3   OH226538   3.363   1.951  16.059 -0.0344 -0.1783 -0.3364
 1708TIP3    H126539   3.432   2.003  16.101  0.2944 -0.8440 -0.0538
 1708TIP3    H226540   3.409   1.901  15.992 -0.3061 -0.3462 -0.3972
 1709TIP3   OH226541   4.302   0.985  10.818  0.2152 -0.2696 -0.2488
 1709TIP3    H126542   4.236   1.054  10.818 -0.0669 -0.5298 -0.8991
 1709TIP3    H226543   4.272   0.922  10.883  0.0695 -0.1594 -0.2104
 1710TIP3   OH226544   3.448   6.489  13.323  1.0301 -0.1117 -0.3183
 1710TIP3    H126545   3.540   6.467  13.303  0.6028 -2.1450 -0.1450
 1710TIP3    H226546   3.433   6.451  13.409 -0.2196 -0.5294 -0.7161
 1711TIP3   OH226547   1.241   2.696   1.637 -0.6373 -0.1334  0.1893
 1711TIP3    H126548   1.153   2.717   1.667 -1.6896 -0.6825 -2.3425
 1711TIP3    H226549   1.227   2.636   1.564  1.7817  0.6327 -0.9564
 1712TIP3   OH226550   4.850   2.521  11.289 -0.1216 -0.4408  0.5415
 1712TIP3    H126551   4.778   2.569  11.248  3.6349  2.5138 -2.8844
 1712TIP3    H226552   4.892   2.585  11.346  0.2149 -2.0043  2.1033
 1713TIP3   OH226553   5.378   3.428   4.644  0.1144  0.3428  0.5113
 1713TIP3    H126554   5.415   3.494   4.586  0.4629  0.0672  0.4172
 1713TIP3    H226555   5.449   3.366   4.658 -1.0834 -1.6370 -1.8093
 1714TIP3   OH226556   5.676   5.180  15.303 -0.1062 -0.9900  0.1583
 1714TIP3    H126557   5.631   5.125  15.367  0.9322 -1.8807  0.1477
 1714TIP3    H226558   5.620   5.178  15.225 -1.9892  1.0989  1.4405
 1715TIP3   OH226559   5.279   5.956  12.127 -0.6786  0.8133  0.4714
 1715TIP3    H126560   5.333   6.013  12.072 -1.0046  0.6262 -0.0454
 1715TIP3    H226561   5.300   5.867  12.097  0.0672  0.6355  1.4855
 1716TIP3   OH226562   4.560   2.513  16.708 -0.5921  0.6127 -0.4139
 1716TIP3    H126563   4.616   2.580  16.669  1.9935 -1.1300  0.1326
 1716TIP3    H226564   4.549   2.447  16.640  0.5761 -0.4932  0.4300
 1717TIP3   OH226565   4.716   4.162   3.406  0.1207  0.2599  0.4767
 1717TIP3    H126566   4.696   4.212   3.327  0.3000 -1.3869 -0.6226
 1717TIP3    H226567   4.637   4.111   3.424  0.9981 -1.3731 -0.1760
 1718TIP3   OH226568   6.693   2.768   2.826  0.3112 -0.1020 -0.3917
 1718TIP3    H126569   6.786   2.784   2.840  0.5086 -1.7013  0.2733
 1718TIP3    H226570   6.666   2.715   2.902 -0.6619 -1.3619 -1.5779
 1719TIP3   OH226571   6.314   4.329   6.038 -0.0154 -0.0501  0.2667
 1719TIP3    H126572   6.322   4.418   6.071  0.2040  0.2960 -0.6844
 1719TIP3    H226573   6.248   4.288   6.093 -0.3506  0.8060  0.5041
 1720TIP3   OH226574   1.000   2.086   0.084  0.0442 -0.0819 -0.0061
 1720TIP3    H126575   0.995   2.167   0.133 -0.4394 -0.5636  0.7516
 1720TIP3    H226576   1.025   2.020   0.149  3.2504 -0.0813 -1.1202
 1721TIP3   OH226577   5.893   5.757   0.235  0.3027  0.0963 -0.0119
 1721TIP3    H126578   5.976   5.804   0.239  1.5901 -1.9412 -1.9959
 1721TIP3    H226579   5.916   5.668   0.208 -2.5117 -0.4959 -0.6585
 1722TIP3   OH226580   0.782   6.738   1.390 -0.2245  0.1201  0.1798
 1722TIP3    H126581   0.834   6.686   1.452 -0.5791  0.5493  0.8365
 1722TIP3    H226582   0.749   6.811   1.442 -1.4997 -0.1505 -0.2287
 1723TIP3   OH226583   5.383   1.692   3.521 -0.0530  0.4249 -0.8428
 1723TIP3    H126584   5.328   1.696   3.443  0.8595 -1.5549 -1.6395
 1723TIP3    H226585   5.472   1.679   3.487  0.2807 -1.0035  0.5037
 1724TIP3   OH226586   0.216   2.514  12.361 -0.1887 -0.5421  0.2781
 1724TIP3    H126587   0.308   2.529  12.382  0.6257 -1.8910 -2.1916
 1724TIP3    H226588   0.195   2.582  12.297 -0.9167 -0.2689  0.7987
 1725TIP3   OH226589   5.930   3.363   3.662  0.0503 -0.3419 -0.8292
 1725TIP3    H126590   5.924   3.286   3.604 -3.4076 -1.0421  0.3721
 1725TIP3    H226591   5.963   3.328   3.744  0.4448 -0.1474 -0.9004
 1726TIP3   OH226592   5.245   0.446   3.473 -0.6700  0.4657 -0.1022
 1726TIP3    H126593   5.277   0.361   3.443 -1.2364  0.1374  0.2060
 1726TIP3    H226594   5.316   0.507   3.454  0.1739 -0.2626  0.6442
 1727TIP3   OH226595   5.913   0.736  13.066 -0.3861 -0.0204  0.4276
 1727TIP3    H126596   5.821   0.734  13.040  0.1012  2.0311 -1.5749
 1727TIP3    H226597   5.956   0.673  13.007 -0.4772 -0.8502  1.2461
 1728TIP3   OH226598   2.573   4.477  13.687 -0.1159  0.4358 -0.0870
 1728TIP3    H126599   2.622   4.467  13.605  0.9973 -2.7498  0.9172
 1728TIP3    H226600   2.624   4.540  13.738  0.1713  1.0151 -1.0837
 1729TIP3   OH226601   4.087   4.857  12.660  0.0956  0.1235  0.3617
 1729TIP3    H126602   4.155   4.892  12.717  1.1497  0.1199 -0.8678
 1729TIP3    H226603   4.017   4.922  12.663  1.2848  1.4752 -0.4563
 1730TIP3   OH226604   3.959   4.056  16.570  0.1770  0.0488  0.6550
 1730TIP3    H126605   3.947   4.113  16.647  0.3759  0.6239  0.2605
 1730TIP3    H226606   3.910   4.100  16.501  2.1907  0.9226 -0.2438
 1731TIP3   OH226607   0.827   6.498  17.166  0.1852  0.3668  0.5776
 1731TIP3    H126608   0.833   6.488  17.261 -0.3772  0.7073  0.6499
 1731TIP3    H226609   0.847   6.590  17.149 -0.9934  0.6148  0.4885
 1732TIP3   OH226610   5.925   0.075  12.561  0.4439 -0.6481 -0.1803
 1732TIP3    H126611   5.856   0.110  12.617  0.3238 -1.3545  0.1138
 1732TIP3    H226612   5.890  -0.008  12.528  0.8891 -0.6922 -0.5516
 1733TIP3   OH226613   5.971   2.306  14.668 -0.1759 -0.0023 -0.1235
 1733TIP3    H126614   5.987   2.374  14.733 -1.6349  0.7788 -0.5431
 1733TIP3    H226615   5.984   2.224  14.715  0.1807  0.5597  0.7715
 1734TIP3   OH226616   0.373   0.234   0.247  0.0187  0.2990 -0.1927
 1734TIP3    H126617   0.410   0.309   0.200 -0.7459  0.9130  0.1614
 1734TIP3    H226618   0.342   0.175   0.178  1.5867 -0.2001 -0.4893
 1735TIP3   OH226619   3.923   5.700   5.133 -0.3471 -0.6214 -0.0360
 1735TIP3    H126620   3.981   5.624   5.137  1.1288  0.5088  0.5576
 1735TIP3    H226621   3.906   5.712   5.039  1.2965 -0.3079 -0.3126
 1736TIP3   OH226622   2.541   3.076   2.602 -0.1981  0.0460  0.2924
 1736TIP3    H126623   2.528   3.031   2.518 -0.2810  0.4576  0.0859
 1736TIP3    H226624   2.564   3.006   2.663  1.7765 -0.0186 -0.4867
 1737TIP3   OH226625   4.407   0.128   5.132  0.1956 -0.2178  0.2058
 1737TIP3    H126626   4.471   0.199   5.132  0.8202 -0.7704 -0.1871
 1737TIP3    H226627   4.440   0.066   5.197  1.8381 -2.0495 -2.2486
 1738TIP3   OH226628   0.876   3.375  14.840 -0.0270 -0.0392 -0.1779
 1738TIP3    H126629   0.971   3.373  14.830  0.0294  1.8069 -0.3381
 1738TIP3    H226630   0.846   3.289  14.812  1.7033 -1.0473  1.0533
 1739TIP3   OH226631   4.535   3.546   1.990 -0.3183 -0.0566 -0.3479
 1739TIP3    H126632   4.537   3.456   2.023 -0.3114  0.2323  0.4423
 1739TIP3    H226633   4.626   3.566   1.968 -0.2811 -0.1482 -0.2755
 1740TIP3   OH226634   2.077   1.123   0.476  0.6171  0.0229 -0.0438
 1740TIP3    H126635   2.084   1.209   0.435  0.9597 -1.1707 -2.5847
 1740TIP3    H226636   1.996   1.128   0.527 -0.3834  1.2507 -1.6791
 1741TIP3   OH226637   3.738   0.629  13.185 -0.4900  0.3414  0.2340
 1741TIP3    H126638   3.794   0.609  13.260  1.4170 -1.6657 -1.6788
 1741TIP3    H226639   3.733   0.547  13.136 -1.4683  1.6893 -1.9963
 1742TIP3   OH226640   1.325   3.508  14.584  0.5908  0.0570 -0.3620
 1742TIP3    H126641   1.381   3.543  14.653 -1.6759  0.2977  1.4199
 1742TIP3    H226642   1.303   3.585  14.530 -0.6778  0.5743  0.8687
 1743TIP3   OH226643   2.428   1.983   1.830 -0.2316 -0.5006  0.2943
 1743TIP3    H126644   2.490   1.910   1.838 -0.1556 -0.4725 -0.0587
 1743TIP3    H226645   2.348   1.949   1.870  0.0482 -0.4869  0.8820
 1744TIP3   OH226646   1.070   0.105   6.024 -0.0662  0.4901 -0.9112
 1744TIP3    H126647   1.148   0.061   5.989  0.6309  0.3770  0.7540
 1744TIP3    H226648   1.076   0.194   5.989 -0.1414  0.0068 -2.2154
 1745TIP3   OH226649   1.543   3.178   0.798 -0.4365  0.1666 -0.2217
 1745TIP3    H126650   1.578   3.178   0.887 -2.0789  0.0973  0.4534
 1745TIP3    H226651   1.492   3.259   0.792 -1.6796 -0.6074 -0.5166
 1746TIP3   OH226652   0.549   2.537   4.267  0.0536  0.1341 -0.6921
 1746TIP3    H126653   0.590   2.520   4.352  0.5298  0.2355 -0.9010
 1746TIP3    H226654   0.455   2.532   4.285  0.1331 -4.5105 -1.0615
 1747TIP3   OH226655   3.699   2.743  13.823  0.1304 -0.1254  0.1227
 1747TIP3    H126656   3.769   2.804  13.846  1.0632 -1.1000 -0.1105
 1747TIP3    H226657   3.712   2.726  13.729 -0.4192 -0.3064  0.0771
 1748TIP3   OH226658   2.726   3.716  10.751  0.3608 -0.3858 -0.1016
 1748TIP3    H126659   2.716   3.810  10.735  0.1898 -0.7348 -2.0840
 1748TIP3    H226660   2.821   3.704  10.756  0.5203 -0.5622 -2.8329
 1749TIP3   OH226661   4.030   0.073   5.981 -0.2615 -0.1414 -0.0744
 1749TIP3    H126662   4.099   0.084   5.915  0.7660  0.4582  1.0590
 1749TIP3    H226663   3.994   0.161   5.993 -0.3310 -0.2170  0.2718
 1750TIP3   OH226664   4.913   2.250  15.108  0.0058  0.1657 -0.0841
 1750TIP3    H126665   4.990   2.201  15.136 -0.3481 -0.4447 -0.1777
 1750TIP3    H226666   4.934   2.341  15.128  1.0532  0.0894 -0.7921
 1751TIP3   OH226667   4.253   1.898  15.269  0.3072  0.2206 -0.1075
 1751TIP3    H126668   4.174   1.924  15.221  0.2593  0.9425  0.3523
 1751TIP3    H226669   4.296   1.835  15.211 -0.7988 -0.4857 -0.1919
 1752TIP3   OH226670   6.571   4.578  11.979  0.6655  0.0157 -0.2238
 1752TIP3    H126671   6.643   4.594  12.040  1.4428 -3.8584  0.0496
 1752TIP3    H226672   6.614   4.556  11.896 -0.2194 -0.6049 -0.5283
 1753TIP3   OH226673   1.986   4.347   1.148 -0.0489  0.3100 -0.1387
 1753TIP3    H126674   1.936   4.271   1.176 -0.3542  0.6350  0.1962
 1753TIP3    H226675   1.924   4.420   1.153  0.5750  0.7888  0.7055
 1754TIP3   OH226676   4.143   2.440  14.842 -0.0114 -0.2185  0.0380
 1754TIP3    H126677   4.065   2.406  14.886 -0.6649  0.2765 -0.7270
 1754TIP3    H226678   4.110   2.504  14.780  0.9226 -0.6879 -0.9651
 1755TIP3   OH226679   1.477   4.782   2.746 -0.1885 -0.4840  0.2142
 1755TIP3    H126680   1.401   4.735   2.782  1.4099 -0.9835  3.1284
 1755TIP3    H226681   1.530   4.803   2.823  1.9598  1.0717 -1.6383
 1756TIP3   OH226682   6.574   6.578   2.743  0.0402  0.0762  0.5827
 1756TIP3    H126683   6.640   6.539   2.686 -0.5865 -1.3920  0.8381
 1756TIP3    H226684   6.530   6.644   2.689  0.6763 -0.0211 -0.0487
 1757TIP3   OH226685   3.902   0.632   5.223  0.3320 -0.4172 -0.7018
 1757TIP3    H126686   3.976   0.577   5.249 -0.0114 -0.1494  0.9406
 1757TIP3    H226687   3.825   0.583   5.250 -0.0862 -0.5734 -2.1626
 1758TIP3   OH226688   5.774   6.377  14.207 -0.1365  1.1036 -0.0637
 1758TIP3    H126689   5.746   6.351  14.119  0.9037  3.0610 -0.9779
 1758TIP3    H226690   5.868   6.360  14.209 -0.5602 -1.4184  1.5949
 1759TIP3   OH226691   3.345   4.251  11.146 -0.3224  0.3383  0.5153
 1759TIP3    H126692   3.418   4.269  11.206  0.8224  0.7489 -0.9761
 1759TIP3    H226693   3.387   4.220  11.066 -1.9482 -2.5456  0.7005
 1760TIP3   OH226694   1.697   3.257  16.294 -0.5245  0.1110  0.3894
 1760TIP3    H126695   1.691   3.286  16.203 -0.2975  0.2441  0.4166
 1760TIP3    H226696   1.700   3.337  16.345 -0.1039  0.0365  0.4775
 1761TIP3   OH226697   5.593   6.696  13.934 -0.4124  0.3717 -0.1574
 1761TIP3    H126698   5.686   6.682  13.946 -0.2106  1.3206 -0.5507
 1761TIP3    H226699   5.554   6.609  13.940  0.3804  0.0907  1.0103
 1762TIP3   OH226700   1.095   3.452  11.530 -0.2695 -0.2144 -0.5555
 1762TIP3    H126701   1.071   3.410  11.448 -0.6618  0.0453 -0.5794
 1762TIP3    H226702   1.191   3.453  11.530 -0.2654 -0.5304 -0.8458
 1763TIP3   OH226703   1.327   2.403  11.709 -0.7382 -0.0786  0.1379
 1763TIP3    H126704   1.263   2.472  11.729 -0.3156  0.5068 -0.4923
 1763TIP3    H226705   1.276   2.322  11.712 -1.6555  0.4298 -0.8864
 1764TIP3   OH226706   0.786   1.140   6.298  0.7133  0.4604 -0.4830
 1764TIP3    H126707   0.840   1.062   6.288 -0.0810 -0.0923 -0.4614
 1764TIP3    H226708   0.837   1.196   6.358  1.7562  0.4118 -1.3129
 1765TIP3   OH226709   2.233   1.386  15.754  0.3434  0.1089  0.0678
 1765TIP3    H126710   2.270   1.450  15.693 -0.3049  0.8872  0.4745
 1765TIP3    H226711   2.150   1.425  15.782  0.3266 -0.5330  0.9438
 1766TIP3   OH226712   0.609   2.488   4.520 -0.6377  0.9282 -0.3253
 1766TIP3    H126713   0.571   2.400   4.528  1.7550 -0.1415 -0.1343
 1766TIP3    H226714   0.649   2.505   4.605  1.2344  1.0513 -1.2020
 1767TIP3   OH226715   0.994   1.583   4.523 -0.0281 -0.3859  0.3795
 1767TIP3    H126716   1.005   1.678   4.525  1.3523 -0.5122 -0.3508
 1767TIP3    H226717   0.962   1.561   4.610  0.2287  0.6758  0.7526
 1768TIP3   OH226718   4.136   3.881  16.674 -0.1867 -0.5493 -0.3160
 1768TIP3    H126719   4.206   3.876  16.609  0.2899  0.9547  0.0542
 1768TIP3    H226720   4.073   3.942  16.635  0.2965  0.6758  0.7990
 1769TIP3   OH226721   0.444   6.440  16.764  0.4926  0.2286  0.3058
 1769TIP3    H126722   0.351   6.464  16.767 -0.1147 -2.1249  1.5416
 1769TIP3    H226723   0.462   6.428  16.671 -0.7121 -0.2842  0.1238
 1770TIP3   OH226724   3.738   3.141  15.123  0.7298 -0.3508  0.6433
 1770TIP3    H126725   3.799   3.158  15.195  2.9912  1.2729 -1.5687
 1770TIP3    H226726   3.674   3.212  15.128  1.2624  0.1339  0.6856
 1771TIP3   OH226727   3.738   0.193  15.052 -0.1364 -0.0619 -0.6286
 1771TIP3    H126728   3.732   0.134  14.977  0.6008 -1.6859  0.5611
 1771TIP3    H226729   3.830   0.218  15.057  0.4880 -2.6151  1.6783
 1772TIP3   OH226730   6.277   4.700   4.604 -0.4981 -0.6768 -0.5106
 1772TIP3    H126731   6.316   4.641   4.669 -1.5340 -0.9539 -0.1295
 1772TIP3    H226732   6.272   4.784   4.649 -0.0931 -0.5726 -0.6561
 1773TIP3   OH226733   1.885   4.629  15.787  0.2816  0.8077  0.3210
 1773TIP3    H126734   1.793   4.645  15.811  0.6485  0.6053  1.8871
 1773TIP3    H226735   1.892   4.662  15.697 -1.9916 -1.5233 -0.7885
 1774TIP3   OH226736   1.419   5.119   2.682  0.1990 -0.0887  0.0866
 1774TIP3    H126737   1.435   5.184   2.750  2.6507  0.5046 -1.0005
 1774TIP3    H226738   1.432   5.035   2.724 -0.1974  0.2144  0.8145
 1775TIP3   OH226739   4.156   6.696   5.613 -0.0266 -0.5472  0.1972
 1775TIP3    H126740   4.195   6.614   5.643 -1.6072 -1.5011 -0.3153
 1775TIP3    H226741   4.121   6.676   5.526 -0.6860  0.5904  0.1917
 1776TIP3   OH226742   5.459   2.792  12.479  0.0142 -0.5833 -0.5517
 1776TIP3    H126743   5.546   2.821  12.451 -0.6563  1.2556 -0.7922
 1776TIP3    H226744   5.474   2.750  12.563  1.1539 -0.3383 -0.6206
 1777TIP3   OH226745   5.961   1.424  15.783 -0.7085  0.7082 -0.5562
 1777TIP3    H126746   6.054   1.439  15.795 -0.5675 -0.8370  0.3515
 1777TIP3    H226747   5.954   1.336  15.746 -1.8683 -0.0040  1.2273
 1778TIP3   OH226748   6.257   0.447   2.213  0.2299 -0.7861  0.1620
 1778TIP3    H126749   6.344   0.418   2.186  0.5089  0.4234 -0.2960
 1778TIP3    H226750   6.263   0.543   2.212 -0.9704 -0.6999  0.5753
 1779TIP3   OH226751   4.597   5.682  13.780 -0.0391  0.2916 -0.3824
 1779TIP3    H126752   4.565   5.613  13.838  0.1447  0.4730 -0.0564
 1779TIP3    H226753   4.629   5.749  13.840 -0.9058  0.9861 -0.6887
 1780TIP3   OH226754   4.927   5.369  11.948 -0.1022 -0.3333 -0.7364
 1780TIP3    H126755   4.941   5.288  11.899  1.8709 -1.1317  1.0589
 1780TIP3    H226756   4.906   5.340  12.037 -2.9141  1.0948 -0.8711
 1781TIP3   OH226757   4.332   6.099   2.142 -0.6222  0.1740  0.7759
 1781TIP3    H126758   4.408   6.073   2.090 -2.1278  0.3331 -1.5520
 1781TIP3    H226759   4.312   6.021   2.195  0.4746 -0.2568  0.5734
 1782TIP3   OH226760   5.291   4.596   4.792 -0.7043 -0.3624  0.4040
 1782TIP3    H126761   5.379   4.606   4.757  0.1263 -0.5829  2.3205
 1782TIP3    H226762   5.239   4.664   4.749  0.8638  1.0399  0.6696
 1783TIP3   OH226763   5.048   1.325   5.058  0.4310  0.5187 -0.4178
 1783TIP3    H126764   5.069   1.415   5.083 -0.1772  0.2122  1.2626
 1783TIP3    H226765   5.124   1.295   5.007  0.5413  2.0385 -1.1584
 1784TIP3   OH226766   0.171   0.751  17.095 -0.0459 -0.0055  0.3753
 1784TIP3    H126767   0.120   0.825  17.062  0.6539 -0.3936 -1.6486
 1784TIP3    H226768   0.170   0.761  17.190  0.1598  2.6717  0.1132
 1785TIP3   OH226769   6.505   3.563   2.087  0.4303 -0.0818  0.2525
 1785TIP3    H126770   6.534   3.507   2.015  3.1006  0.6358  0.6789
 1785TIP3    H226771   6.483   3.646   2.046  1.0820  0.0346  0.1225
 1786TIP3   OH226772   0.203   0.066  13.395 -0.7287 -0.6469  0.0685
 1786TIP3    H126773   0.234   0.070  13.486 -1.4246  0.3078  0.2755
 1786TIP3    H226774   0.281   0.044  13.344 -0.2020 -0.5712  0.8320
 1787TIP3   OH226775   0.141   0.760  11.070 -0.1724  0.5295 -0.7461
 1787TIP3    H126776   0.211   0.824  11.084  0.7342 -0.6209  0.1362
 1787TIP3    H226777   0.184   0.688  11.024 -1.1003  0.3854 -1.4055
 1788TIP3   OH226778   4.709   5.643   5.990 -0.4009  0.2046 -0.5163
 1788TIP3    H126779   4.765   5.622   6.064 -0.7013  0.2369 -0.2814
 1788TIP3    H226780   4.753   5.602   5.915 -1.0803 -1.4552 -0.0320
 1789TIP3   OH226781   2.087   3.700   0.714  0.6173 -0.2369 -0.1192
 1789TIP3    H126782   2.068   3.670   0.803 -2.9465  1.7523 -0.1298
 1789TIP3    H226783   2.068   3.624   0.659  1.0225 -0.8995  0.6411
 1790TIP3   OH226784   6.745   1.048   2.941 -0.0031  0.2239  0.2957
 1790TIP3    H126785   6.689   1.123   2.963 -1.1278 -0.3762 -0.4179
 1790TIP3    H226786   6.683   0.981   2.911  1.0186 -0.8668  0.6018
 1791TIP3   OH226787   4.727   0.639   4.057  0.5679  0.3564  0.1060
 1791TIP3    H126788   4.676   0.559   4.048  1.4503 -0.3254  1.1499
 1791TIP3    H226789   4.687   0.700   3.994 -0.1534 -0.8630 -0.6243
 1792TIP3   OH226790   2.218   1.230   3.081  0.8618  0.1250 -0.6940
 1792TIP3    H126791   2.184   1.142   3.067 -1.0621  0.8011 -0.3909
 1792TIP3    H226792   2.266   1.225   3.164 -2.1392  0.1410  1.1113
 1793TIP3   OH226793   5.715   6.726   2.699 -0.1097  0.0253 -0.1167
 1793TIP3    H126794   5.650   6.707   2.767  1.0257  0.5479  1.1450
 1793TIP3    H226795   5.732   6.642   2.658 -0.5273 -0.3685  0.5062
 1794TIP3   OH226796   4.500   5.536   1.160 -0.4448  0.2764 -0.4603
 1794TIP3    H126797   4.419   5.584   1.175  0.5823  2.1151 -0.6291
 1794TIP3    H226798   4.563   5.576   1.219  1.2574  1.3130 -2.8844
 1795TIP3   OH226799   1.595   0.257  11.284  0.1830  0.0493  0.2216
 1795TIP3    H126800   1.578   0.189  11.349  0.8694 -0.2308  0.1039
 1795TIP3    H226801   1.690   0.264  11.280  0.1159  1.2879  0.5179
 1796TIP3   OH226802   1.526   4.237  12.046 -0.1080  0.9491  0.8615
 1796TIP3    H126803   1.605   4.290  12.045 -0.2792  1.2320 -2.9499
 1796TIP3    H226804   1.537   4.179  12.122  3.5323  1.2597  0.6412
 1797TIP3   OH226805   2.548   4.523  15.896 -0.3383  0.2118 -0.2398
 1797TIP3    H126806   2.455   4.523  15.919 -0.2078  1.8886  0.3746
 1797TIP3    H226807   2.556   4.454  15.830 -2.5973  1.9861 -2.5441
 1798TIP3   OH226808   6.433   5.735  15.751 -0.0195  0.2895 -0.1398
 1798TIP3    H126809   6.403   5.815  15.708 -0.3074 -0.3835 -1.2174
 1798TIP3    H226810   6.491   5.694  15.686 -0.9454 -1.0449 -0.1270
 1799TIP3   OH226811   6.483   2.019   0.735  0.4018 -0.2589 -0.6465
 1799TIP3    H126812   6.543   2.067   0.792  0.1011 -1.1515  0.4502
 1799TIP3    H226813   6.396   2.043   0.767  0.1941  0.0401 -1.4138
 1800TIP3   OH226814   1.361   5.188   3.120  0.4241  0.4222  0.0879
 1800TIP3    H126815   1.335   5.143   3.201 -1.1807 -0.2546 -0.7728
 1800TIP3    H226816   1.441   5.143   3.092  0.3634 -0.0829  0.7155
 1801TIP3   OH226817   1.985   1.354  14.013  0.4593 -0.2993  0.3065
 1801TIP3    H126818   2.040   1.301  14.071  0.0263 -1.6122 -0.4519
 1801TIP3    H226819   2.017   1.334  13.925  0.5112  0.9765  0.0315
 1802TIP3   OH226820   1.312   0.449   0.623  0.1969 -0.0707 -0.0081
 1802TIP3    H126821   1.365   0.484   0.552  0.6992  0.5585  0.6648
 1802TIP3    H226822   1.235   0.506   0.625  0.3055  0.0750  0.1096
 1803TIP3   OH226823   0.944   4.300   6.132 -0.2196  0.0073 -0.0783
 1803TIP3    H126824   0.890   4.294   6.211  1.9696 -2.7299  1.3080
 1803TIP3    H226825   0.886   4.275   6.061 -1.2088 -1.3047  1.1762
 1804TIP3   OH226826   6.008   3.511  12.922  0.0640 -0.4075 -0.0735
 1804TIP3    H126827   5.984   3.445  12.987 -1.2204 -1.9011 -2.0274
 1804TIP3    H226828   6.005   3.594  12.970 -1.9987 -1.3539  1.5181
 1805TIP3   OH226829   1.047   6.501   2.802 -0.1264  0.6761 -0.2816
 1805TIP3    H126830   1.057   6.407   2.815 -0.4208  0.6411 -0.3052
 1805TIP3    H226831   1.123   6.527   2.751 -0.6998  0.2270 -1.3774
 1806TIP3   OH226832   4.237   2.609  15.961  0.3243 -0.3724 -0.0778
 1806TIP3    H126833   4.199   2.562  15.887 -1.5792  0.5702  0.2881
 1806TIP3    H226834   4.166   2.617  16.024  1.5838 -0.0388  1.3389
 1807TIP3   OH226835   1.817   5.348   2.466 -0.6165  0.2425 -0.0338
 1807TIP3    H126836   1.754   5.281   2.439  0.7293 -1.7163  1.5406
 1807TIP3    H226837   1.802   5.359   2.560  0.0080  1.2621 -0.0450
 1808TIP3   OH226838   0.261   6.115  12.545  0.3267  0.6240 -0.5647
 1808TIP3    H126839   0.212   6.196  12.557  0.7247  0.8778 -0.6544
 1808TIP3    H226840   0.193   6.048  12.533 -0.0184  0.7890  0.4097
 1809TIP3   OH226841   1.929   5.942   5.118  0.4445 -0.3230 -0.6950
 1809TIP3    H126842   1.837   5.968   5.110  0.9178  1.2700 -1.0611
 1809TIP3    H226843   1.976   6.023   5.138  1.5257 -1.4613  1.5966
 1810TIP3   OH226844   4.762   5.541   1.541 -0.3658  0.3328 -0.0416
 1810TIP3    H126845   4.800   5.571   1.624 -0.4370  1.8985 -0.5604
 1810TIP3    H226846   4.668   5.539   1.556 -0.3100 -0.3147  0.2150
 1811TIP3   OH226847   2.008   5.117   2.169  0.7095  0.6011 -0.0625
 1811TIP3    H126848   1.925   5.159   2.147 -0.9356 -2.1162  0.7239
 1811TIP3    H226849   2.058   5.118   2.087 -0.5169  1.2777 -0.8205
 1812TIP3   OH226850   0.608   3.124   5.267 -0.5908 -0.0764  0.5055
 1812TIP3    H126851   0.576   3.182   5.337 -0.1069  0.2092  0.4886
 1812TIP3    H226852   0.701   3.112   5.286 -0.7968 -1.2929  0.8238
 1813TIP3   OH226853   4.427   0.106   3.799 -0.3859 -0.2641 -0.9644
 1813TIP3    H126854   4.366   0.085   3.729 -1.3036 -1.5192  0.1944
 1813TIP3    H226855   4.398   0.192   3.831 -1.8571 -1.0793 -0.0902
 1814TIP3   OH226856   1.057   3.197  12.823  0.8996  0.3972  0.2995
 1814TIP3    H126857   1.019   3.284  12.814 -0.3687 -0.4069 -2.9914
 1814TIP3    H226858   1.148   3.208  12.795 -0.0083  0.1830 -2.9220
 1815TIP3   OH226859   3.990   0.632  15.990 -0.0948 -0.5058 -0.4105
 1815TIP3    H126860   3.956   0.628  15.901  0.3918 -0.5982 -0.5936
 1815TIP3    H226861   4.067   0.688  15.985  0.1355 -0.7918 -0.1131
 1816TIP3   OH226862   0.605   5.389   0.828  0.1900 -0.6466 -0.2826
 1816TIP3    H126863   0.570   5.316   0.880 -1.3630 -0.6780 -1.3174
 1816TIP3    H226864   0.629   5.455   0.893  0.0887 -1.4374  0.5777
 1817TIP3   OH226865   6.477   2.325  16.424  0.3052  0.4219  0.6630
 1817TIP3    H126866   6.431   2.244  16.400 -0.3614  0.3234  2.2092
 1817TIP3    H226867   6.549   2.296  16.480  0.2041  0.8818  1.0305
 1818TIP3   OH226868   5.233   5.075  15.335  0.7286 -0.2923 -0.5482
 1818TIP3    H126869   5.320   5.096  15.369  0.0012  1.4192  0.2865
 1818TIP3    H226870   5.181   5.153  15.351 -0.9775 -1.2973 -1.0494
 1819TIP3   OH226871   0.909   2.207  16.364 -0.0672  0.1971  0.0492
 1819TIP3    H126872   0.927   2.257  16.444  0.0681  0.5779 -0.2201
 1819TIP3    H226873   0.823   2.168  16.380 -0.9552  1.9362 -0.4453
 1820TIP3   OH226874   5.909   0.825   4.524  0.0998 -0.2850  0.0479
 1820TIP3    H126875   5.902   0.899   4.464 -0.0619  0.2340  0.7072
 1820TIP3    H226876   5.945   0.862   4.604 -1.7349 -0.5562  1.0147
 1821TIP3   OH226877   2.137   4.316   4.249  0.3225 -0.1393  1.0579
 1821TIP3    H126878   2.133   4.225   4.280  1.4257 -0.3837  0.4865
 1821TIP3    H226879   2.104   4.368   4.323 -0.5144 -1.0210  1.3050
 1822TIP3   OH226880   3.837   1.711   0.152  0.4452  0.5492 -0.0660
 1822TIP3    H126881   3.845   1.763   0.232  1.8212  0.8676 -0.3989
 1822TIP3    H226882   3.918   1.728   0.104  0.2481 -0.7381 -0.8798
 1823TIP3   OH226883   1.236   6.406   1.278 -0.4880 -0.1442  0.0179
 1823TIP3    H126884   1.323   6.441   1.300 -0.1935 -1.2692  0.6736
 1823TIP3    H226885   1.178   6.482   1.283  0.5465  0.7316 -0.9744
 1824TIP3   OH226886   4.533   6.013   1.961 -0.0932 -0.0777  0.2740
 1824TIP3    H126887   4.574   6.092   1.926 -0.0024  0.2029  0.9984
 1824TIP3    H226888   4.555   6.015   2.054 -2.3030  0.3948  0.8009
 1825TIP3   OH226889   2.601   2.777   2.808 -0.3747  0.4170 -0.5817
 1825TIP3    H126890   2.638   2.699   2.847 -1.6490  0.7768  1.4226
 1825TIP3    H226891   2.546   2.815   2.877 -0.1530  2.8094 -1.6670
 1826TIP3   OH226892   0.289   5.085  12.804 -0.0909 -0.5591  0.0772
 1826TIP3    H126893   0.257   5.109  12.891  1.5074  1.2823  0.1939
 1826TIP3    H226894   0.241   5.142  12.745  1.3647  0.6735  0.0673
 1827TIP3   OH226895   5.973   1.685   4.361  0.5701 -0.1958  0.4019
 1827TIP3    H126896   5.988   1.593   4.343  0.1238 -0.0005 -1.0140
 1827TIP3    H226897   6.008   1.731   4.285  1.1561  0.8341  1.2804
 1828TIP3   OH226898   0.303   0.091  15.271  0.1405 -0.0977  0.2215
 1828TIP3    H126899   0.276   0.147  15.344 -1.3550  0.3594 -0.6704
 1828TIP3    H226900   0.273   0.137  15.193  1.7833 -0.5587 -0.7083
 1829TIP3   OH226901   0.481   2.530  12.400  0.6205 -0.0524 -0.0566
 1829TIP3    H126902   0.545   2.586  12.357  1.5851 -1.4094 -0.4259
 1829TIP3    H226903   0.506   2.530  12.492  2.2484 -1.9675 -0.4627
 1830TIP3   OH226904   5.222   1.356  16.243  0.1494 -0.1258 -0.6865
 1830TIP3    H126905   5.209   1.262  16.258  1.0299 -0.1597 -0.1245
 1830TIP3    H226906   5.151   1.381  16.184 -1.9441 -0.4845  1.6308
 1831TIP3   OH226907   4.062   5.850   1.107 -0.0746  0.2105 -0.2075
 1831TIP3    H126908   4.015   5.772   1.137 -1.1332  0.4167 -1.3009
 1831TIP3    H226909   4.079   5.900   1.187  0.3141 -0.9715  0.4610
 1832TIP3   OH226910   1.609   0.858  11.857 -0.1211  0.6009 -0.4308
 1832TIP3    H126911   1.683   0.797  11.860 -0.6088  0.0244 -0.0406
 1832TIP3    H226912   1.578   0.855  11.767 -1.1476 -0.9333 -0.0324
 1833TIP3   OH226913   6.674   4.036   0.702  0.0855 -0.4056  0.0189
 1833TIP3    H126914   6.624   3.955   0.709 -1.1873  0.3418 -0.2560
 1833TIP3    H226915   6.608   4.105   0.699  1.1404  0.6161 -0.2116
 1834TIP3   OH226916   5.021   1.513  11.456 -0.4098  0.0891  0.3394
 1834TIP3    H126917   5.104   1.480  11.420 -1.1551 -1.8269  0.3487
 1834TIP3    H226918   4.966   1.527  11.379 -0.2735  0.8762  0.3753
 1835TIP3   OH226919   2.325   4.494   0.377 -0.4115  0.4711 -0.1026
 1835TIP3    H126920   2.404   4.486   0.323  1.2520  0.1647  2.2974
 1835TIP3    H226921   2.306   4.588   0.379  1.3176  0.8231  1.2181
 1836TIP3   OH226922   1.158   0.992  11.427  0.1291 -0.1524 -0.0248
 1836TIP3    H126923   1.214   0.919  11.453 -1.5300 -0.8205  1.8117
 1836TIP3    H226924   1.070   0.956  11.427 -0.6009  1.5798 -0.1211
 1837TIP3   OH226925   0.598   1.789   3.448  0.8589 -0.0380 -0.5495
 1837TIP3    H126926   0.571   1.809   3.538  0.8352 -0.1066 -0.5419
 1837TIP3    H226927   0.693   1.787   3.452  0.9119  1.3850 -0.8156
 1838TIP3   OH226928   3.840   3.020   4.141  0.2953 -0.0616 -0.4069
 1838TIP3    H126929   3.811   2.930   4.158  0.1654 -0.2938 -1.8229
 1838TIP3    H226930   3.934   3.019   4.158  0.3492 -0.5499 -0.7208
 1839TIP3   OH226931   3.617   1.575   0.117 -0.0848  0.1380  0.3089
 1839TIP3    H126932   3.621   1.548   0.208  1.0166  2.4197  0.9712
 1839TIP3    H226933   3.687   1.639   0.107 -1.4412  1.4067 -1.6111
 1840TIP3   OH226934   1.039   3.979  16.762 -0.0385  0.4310 -0.4779
 1840TIP3    H126935   1.022   3.959  16.670 -0.1180  0.8474 -0.5569
 1840TIP3    H226936   1.017   3.899  16.809 -3.5619  1.3165 -0.4427
 1841TIP3   OH226937   1.021   5.735   0.125 -0.4091 -0.1926  0.6271
 1841TIP3    H126938   1.028   5.656   0.178 -0.4774 -0.8500 -0.3193
 1841TIP3    H226939   1.111   5.768   0.118 -0.3352 -0.3708  0.7455
 1842TIP3   OH226940   5.355   1.202  10.835 -0.2091 -0.1955 -0.2398
 1842TIP3    H126941   5.335   1.256  10.911 -0.1573  0.1915 -0.4995
 1842TIP3    H226942   5.273   1.196  10.787 -0.5242 -1.3707  0.4254
 1843TIP3   OH226943   1.721   1.808  16.528 -0.8341  0.3005 -0.0104
 1843TIP3    H126944   1.768   1.813  16.445  0.1249  1.9423  0.6091
 1843TIP3    H226945   1.696   1.716  16.536  1.3080 -0.3824 -0.8956
 1844TIP3   OH226946   4.532   6.575   5.721  0.2328 -0.1931 -0.8568
 1844TIP3    H126947   4.624   6.583   5.698  0.2766  0.6389 -0.4138
 1844TIP3    H226948   4.526   6.613   5.809 -0.6729  0.4743 -1.2007
 1845TIP3   OH226949   0.057   1.625   0.528  0.1257  0.2938 -0.5578
 1845TIP3    H126950   0.123   1.666   0.584  0.5307 -0.4325 -0.4922
 1845TIP3    H226951   0.094   1.540   0.505 -1.3678 -0.6943  0.5910
 1846TIP3   OH226952   6.612   1.248   2.195  0.5648 -0.6262 -0.3228
 1846TIP3    H126953   6.543   1.214   2.252  0.8585  0.2118  0.5517
 1846TIP3    H226954   6.679   1.180   2.195 -0.4310 -1.6311 -1.5155
 1847TIP3   OH226955   6.687   3.515  15.995 -0.3407  0.0877 -0.1784
 1847TIP3    H126956   6.596   3.515  15.967 -0.3841  2.9523 -0.1840
 1847TIP3    H226957   6.732   3.571  15.931  1.0586  0.2350  0.8979
 1848TIP3   OH226958   5.317   6.356   5.190  0.9628  0.0099 -0.2712
 1848TIP3    H126959   5.225   6.384   5.191  0.6604 -0.8129  3.8449
 1848TIP3    H226960   5.317   6.276   5.137 -1.1967 -1.3873  1.7387
 1849TIP3   OH226961   5.809   2.606   2.741 -0.1457 -0.1847  0.2609
 1849TIP3    H126962   5.836   2.607   2.649  0.4696 -1.4076  0.4174
 1849TIP3    H226963   5.812   2.514   2.766 -2.4420 -0.1229  0.9070
 1850TIP3   OH226964   4.243   5.004  15.174 -0.2903  0.0422 -0.4497
 1850TIP3    H126965   4.309   4.936  15.158 -1.4163 -1.3637  0.6937
 1850TIP3    H226966   4.254   5.066  15.102  1.9456 -0.4234 -0.5298
 1851TIP3   OH226967   5.159   6.481   3.505 -0.0973 -0.6185 -0.0097
 1851TIP3    H126968   5.112   6.555   3.542  0.5774 -0.8886  1.4218
 1851TIP3    H226969   5.093   6.433   3.454 -0.7447  0.4287 -0.1617
 1852TIP3   OH226970   5.111   4.096  12.752  0.2373 -0.0897 -0.7865
 1852TIP3    H126971   5.024   4.064  12.726  0.2926 -0.8249 -0.1047
 1852TIP3    H226972   5.097   4.187  12.777 -1.3066 -1.4523  3.8975
 1853TIP3   OH226973   0.048   0.623   2.109  0.6973  0.2992 -0.4969
 1853TIP3    H126974   0.105   0.556   2.144 -2.5013 -1.4727  1.5195
 1853TIP3    H226975  -0.009   0.577   2.047 -0.2506  1.5036 -0.5538
 1854TIP3   OH226976   1.647   6.070  13.602 -0.1831 -0.1320 -0.3237
 1854TIP3    H126977   1.720   6.036  13.549  0.2561 -2.0924  1.4454
 1854TIP3    H226978   1.664   6.164  13.609  1.2255 -0.2917 -1.3790
 1855TIP3   OH226979   3.653   4.235  12.014  0.3533 -0.7705 -0.4601
 1855TIP3    H126980   3.733   4.267  12.056 -1.0435  1.4807  0.5668
 1855TIP3    H226981   3.594   4.310  12.015 -1.6103 -2.2581 -1.6594
 1856TIP3   OH226982   0.308   6.282  17.132  0.3361  0.2101 -0.4787
 1856TIP3    H126983   0.373   6.307  17.066  1.4243  0.4086  0.6335
 1856TIP3    H226984   0.337   6.196  17.162 -1.2204 -0.7115 -1.5686
 1857TIP3   OH226985   4.738   1.792   4.098  0.5828 -0.1110 -0.1453
 1857TIP3    H126986   4.645   1.793   4.074 -0.0525 -0.1654  2.1701
 1857TIP3    H226987   4.778   1.856   4.039 -0.4085 -1.9871 -2.9757
 1858TIP3   OH226988   5.022   3.842   3.905  0.3370  0.9852  0.1573
 1858TIP3    H126989   4.964   3.826   3.830 -0.7044  1.6074  0.8254
 1858TIP3    H226990   5.087   3.771   3.900  0.4299  1.1756 -1.4768
 1859TIP3   OH226991   2.397   3.822   3.046 -1.0295 -0.2271  0.0306
 1859TIP3    H126992   2.316   3.833   3.095 -0.8921 -1.1975  0.4851
 1859TIP3    H226993   2.408   3.727   3.038 -0.1573 -0.0997 -0.3916
 1860TIP3   OH226994   1.024   5.334  11.884  0.3143  0.0938 -0.3821
 1860TIP3    H126995   0.961   5.334  11.956  0.1732  0.3667 -0.5046
 1860TIP3    H226996   1.081   5.409  11.902  0.7018 -0.2483 -0.1876
 1861TIP3   OH226997   6.167   4.921  11.847  0.0385  0.0407 -0.1914
 1861TIP3    H126998   6.250   4.881  11.873  0.5721  1.4142  0.2600
 1861TIP3    H226999   6.101   4.854  11.864  0.7376 -0.1343  1.9142
 1862TIP3   OH227000   4.702   3.728   3.871 -0.0766 -0.4431  0.4040
 1862TIP3    H127001   4.631   3.664   3.866  0.5508 -1.1991  0.9338
 1862TIP3    H227002   4.781   3.676   3.860  0.3328  0.6896 -2.3803
 1863TIP3   OH227003   3.134   2.218   3.913 -0.4662 -0.0718  0.1179
 1863TIP3    H127004   3.058   2.183   3.960  1.4049 -0.8728  2.6717
 1863TIP3    H227005   3.191   2.142   3.901  0.9758  0.9721  0.3343
 1864TIP3   OH227006   2.092   6.531  15.162 -0.0401  0.3917  0.3064
 1864TIP3    H127007   2.042   6.611  15.175  0.7052  0.8428  0.4350
 1864TIP3    H227008   2.106   6.527  15.067 -0.6038  0.0922  0.2368
 1865TIP3   OH227009   1.515   5.664  12.799  0.4227  0.8999  0.1747
 1865TIP3    H127010   1.539   5.592  12.856  1.4048  0.9164 -0.2033
 1865TIP3    H227011   1.498   5.738  12.858  0.5624  0.6767  0.4911
 1866TIP3   OH227012   3.329   3.665  13.253 -0.0413 -0.4706  0.1223
 1866TIP3    H127013   3.361   3.604  13.320  4.3695  0.6468 -0.8119
 1866TIP3    H227014   3.305   3.744  13.301 -1.1275 -1.2317  0.8356
 1867TIP3   OH227015   2.463   6.264   3.383  0.5162 -0.4908  0.1944
 1867TIP3    H127016   2.394   6.283   3.446  0.6648  1.0711 -0.0927
 1867TIP3    H227017   2.425   6.197   3.325 -0.6617  0.1419  0.2149
 1868TIP3   OH227018   6.467   0.344   1.998 -0.0569 -0.1887 -0.1976
 1868TIP3    H127019   6.511   0.407   2.054 -0.1120 -0.5695  0.2805
 1868TIP3    H227020   6.537   0.289   1.963  0.0936  0.7356 -1.3853
 1869TIP3   OH227021   4.901   6.011   4.959 -0.0237 -0.7521  0.2612
 1869TIP3    H127022   4.846   5.933   4.972  0.6644 -1.2623  0.1341
 1869TIP3    H227023   4.988   5.976   4.939  0.7182  0.0530  2.0274
 1870TIP3   OH227024   6.666   3.185  15.203  0.2417 -0.4053 -0.0081
 1870TIP3    H127025   6.595   3.216  15.146  0.7280  1.0424  0.1537
 1870TIP3    H227026   6.745   3.224  15.166  0.6160  0.1400  1.3464
 1871TIP3   OH227027   3.366   5.161  16.600 -0.0755  0.2556 -0.0228
 1871TIP3    H127028   3.453   5.186  16.569 -0.6973  3.2267  0.4304
 1871TIP3    H227029   3.309   5.176  16.525 -0.2947 -1.0563 -0.1196
 1872TIP3   OH227030   0.430   0.064   5.622 -0.0124  0.4176  0.0864
 1872TIP3    H127031   0.435   0.125   5.548  0.7420  0.0565 -0.1558
 1872TIP3    H227032   0.404  -0.019   5.583 -1.0603  0.5828  0.4204
 1873TIP3   OH227033   5.145   0.878  13.085 -0.0584 -0.2422 -0.2566
 1873TIP3    H127034   5.214   0.912  13.028 -0.8371  1.6366 -0.1220
 1873TIP3    H227035   5.178   0.894  13.174 -0.4701  0.2935 -0.1942
 1874TIP3   OH227036   1.935   3.053  13.176  0.7077  0.2309 -0.1309
 1874TIP3    H127037   1.852   3.009  13.155 -0.1223  1.6268  0.1830
 1874TIP3    H227038   1.966   3.087  13.092 -0.1853  1.6510  0.0981
 1875TIP3   OH227039   4.909   3.287   5.728 -0.5525  0.0016  0.2732
 1875TIP3    H127040   4.934   3.196   5.715  0.3484  0.1701  0.8582
 1875TIP3    H227041   4.956   3.315   5.806  0.2755  1.3836 -0.7060
 1876TIP3   OH227042   2.542   5.217   0.713 -0.0029 -0.5520  0.0541
 1876TIP3    H127043   2.576   5.290   0.765 -2.7008  0.8159 -0.0317
 1876TIP3    H227044   2.448   5.216   0.732 -0.7877 -1.0388 -3.5608
 1877TIP3   OH227045   2.648   1.568  14.997 -0.0894  0.7498  0.3166
 1877TIP3    H127046   2.607   1.646  15.034  0.3233  0.5118  1.3061
 1877TIP3    H227047   2.578   1.503  14.990 -0.0913  0.6746  1.0430
 1878TIP3   OH227048   3.229   2.608   5.844  0.0953 -0.2365 -0.0704
 1878TIP3    H127049   3.141   2.629   5.813 -0.1342 -0.3865  0.4729
 1878TIP3    H227050   3.279   2.689   5.833 -0.0844 -0.1809 -0.4680
 1879TIP3   OH227051   0.656   5.071   5.475 -0.7785  0.3050  0.8576
 1879TIP3    H127052   0.587   5.018   5.513 -0.7300 -0.6435 -0.3343
 1879TIP3    H227053   0.617   5.158   5.462 -1.7142 -0.1995  0.2728
 1880TIP3   OH227054   3.221   6.335  15.777 -0.3426  0.1216  0.7624
 1880TIP3    H127055   3.251   6.264  15.721 -0.7182 -1.6164  2.7042
 1880TIP3    H227056   3.136   6.306  15.809 -0.2616  1.2143  2.0140
 1881TIP3   OH227057   3.571   3.536   0.675 -0.3886  0.2812  0.3840
 1881TIP3    H127058   3.530   3.499   0.753 -0.0307  0.7328  0.7886
 1881TIP3    H227059   3.512   3.605   0.647 -0.0444  0.7447  0.8028
 1882TIP3   OH227060   1.318   0.154   4.274  0.1381  0.4214  0.1019
 1882TIP3    H127061   1.263   0.119   4.344  1.6434  0.6200  1.4109
 1882TIP3    H227062   1.258   0.208   4.222 -1.2655 -0.6775  0.5183
 1883TIP3   OH227063   1.749   0.463  14.256 -0.4230  0.6520 -0.1731
 1883TIP3    H127064   1.757   0.370  14.236 -0.1392  0.6763 -0.1725
 1883TIP3    H227065   1.772   0.469  14.349 -2.0786  0.4898  0.2633
 1884TIP3   OH227066   2.574   3.329  16.835  0.1447 -0.0136 -0.0919
 1884TIP3    H127067   2.577   3.423  16.819 -0.4998  0.2523  1.2533
 1884TIP3    H227068   2.486   3.313  16.869  0.2245 -1.1094 -0.3847
 1885TIP3   OH227069   3.457   1.523  16.898 -0.1211 -0.3995 -0.0791
 1885TIP3    H127070   3.550   1.534  16.917 -0.1584 -0.7440  0.2979
 1885TIP3    H227071   3.455   1.468  16.820 -0.0304 -1.0111  0.3516
 1886TIP3   OH227072   4.835   2.461  16.524 -0.5324 -0.1113  0.2413
 1886TIP3    H127073   4.757   2.412  16.553 -0.2934 -1.3515 -1.1148
 1886TIP3    H227074   4.909   2.406  16.551 -0.2439 -0.3038 -0.9061
 1887TIP3   OH227075   0.523   6.393  13.280  0.4204  0.6319 -0.5005
 1887TIP3    H127076   0.525   6.461  13.214  2.1617  1.3806  0.2988
 1887TIP3    H227077   0.457   6.423  13.343 -0.9878  0.0829 -1.6822
 1888TIP3   OH227078   6.404   3.398  16.410 -0.4551  0.0230  0.8956
 1888TIP3    H127079   6.461   3.474  16.415  0.8270 -0.7923 -0.8384
 1888TIP3    H227080   6.317   3.431  16.433 -0.2338  2.3513 -1.4225
 1889TIP3   OH227081   4.329   6.482   5.419 -0.1903 -0.7185 -0.3436
 1889TIP3    H127082   4.259   6.538   5.384  1.6081  1.6491 -0.2246
 1889TIP3    H227083   4.307   6.472   5.512  0.6644  1.6748  0.1408
 1890TIP3   OH227084   1.376   0.271   1.438 -0.0557  0.0396  0.4166
 1890TIP3    H127085   1.408   0.242   1.353  0.9230  0.2182  0.7242
 1890TIP3    H227086   1.364   0.191   1.488 -0.6296 -0.0655  0.1190
 1891TIP3   OH227087   3.017   5.926   5.124  0.0218  0.2687 -0.0490
 1891TIP3    H127088   3.088   5.862   5.130 -0.0642  0.1470 -0.3718
 1891TIP3    H227089   2.963   5.896   5.051 -1.2498 -0.5204  1.1937
 1892TIP3   OH227090   3.398   6.658  13.100  0.4309  0.3254 -0.1024
 1892TIP3    H127091   3.411   6.587  13.163 -1.8485 -1.7588 -1.9017
 1892TIP3    H227092   3.452   6.634  13.025 -0.8578  0.1135 -0.9830
 1893TIP3   OH227093   0.495   2.331  16.027  0.8964 -0.0104 -0.3475
 1893TIP3    H127094   0.515   2.309  16.118  1.7353 -0.6909 -0.6804
 1893TIP3    H227095   0.501   2.247  15.981 -1.7251 -0.0521 -0.6552
 1894TIP3   OH227096   3.194   2.689   3.898  0.1350  0.1333  0.2330
 1894TIP3    H127097   3.139   2.697   3.821  0.0687  1.7274  0.4340
 1894TIP3    H227098   3.284   2.685   3.864  0.0822  0.4421  0.0600
 1895TIP3   OH227099   3.965   0.046  11.719 -0.1474 -0.7087  0.3658
 1895TIP3    H127100   3.977  -0.048  11.734  0.2801 -0.2872  2.9611
 1895TIP3    H227101   3.872   0.056  11.699 -0.7689 -1.4065  2.7361
 1896TIP3   OH227102   1.766   4.085  13.367 -0.3547  0.1582  0.1514
 1896TIP3    H127103   1.712   4.014  13.403  0.1060 -0.0333  0.4781
 1896TIP3    H227104   1.764   4.072  13.273 -0.9687  0.2152  0.1580
 1897TIP3   OH227105   4.283   5.677  13.823  0.1085 -0.9992 -0.0415
 1897TIP3    H127106   4.199   5.721  13.814 -0.3467 -2.1467 -1.4877
 1897TIP3    H227107   4.328   5.725  13.893 -2.0600 -0.8898  1.3157
 1898TIP3   OH227108   0.107   4.477   0.332 -0.4713 -0.5379  0.6542
 1898TIP3    H127109   0.054   4.404   0.365  1.2640 -1.2816  1.8707
 1898TIP3    H227110   0.088   4.479   0.238 -0.9096 -2.2536  0.6780
 1899TIP3   OH227111   3.524   1.062   1.812 -0.1345  0.1049 -0.2194
 1899TIP3    H127112   3.527   1.004   1.888  0.2730 -1.8529 -1.7046
 1899TIP3    H227113   3.437   1.049   1.776 -1.0999  2.5892  1.0422
 1900TIP3   OH227114   3.244   5.253   3.557 -0.7930 -0.6290  0.0496
 1900TIP3    H127115   3.279   5.173   3.595 -0.3469 -0.3565  0.2196
 1900TIP3    H227116   3.320   5.309   3.544 -0.8718 -0.9138 -1.7414
 1901TIP3   OH227117   0.898   1.843   5.425 -0.4676 -0.6280 -0.3786
 1901TIP3    H127118   0.806   1.870   5.436 -0.4729 -0.0226 -1.8195
 1901TIP3    H227119   0.934   1.907   5.364  1.1450 -0.3800  0.8256
 1902TIP3   OH227120   3.734   5.048  14.233  0.2789 -0.3862  0.3463
 1902TIP3    H127121   3.691   5.018  14.313  1.3014 -1.4496  0.5064
 1902TIP3    H227122   3.705   4.987  14.166 -0.1992  0.2235 -0.0153
 1903TIP3   OH227123   4.706   5.856   4.555  0.3659  0.0622  0.0760
 1903TIP3    H127124   4.777   5.800   4.587 -0.5500 -1.4338 -0.4373
 1903TIP3    H227125   4.645   5.862   4.628  0.4371  0.3689  0.1131
 1904TIP3   OH227126   4.295   6.182  11.825 -0.0202  0.2769 -0.0428
 1904TIP3    H127127   4.218   6.206  11.773  0.6811  1.1846 -0.6708
 1904TIP3    H227128   4.317   6.093  11.797 -1.2679 -0.2752  0.6666
 1905TIP3   OH227129   5.815   1.016   0.231 -0.0935 -0.7250 -0.0056
 1905TIP3    H127130   5.800   1.029   0.137 -2.4567 -1.3659  0.2623
 1905TIP3    H227131   5.728   1.017   0.270  0.8365 -0.9003  2.1466
 1906TIP3   OH227132   3.864   5.131   2.922  0.3039 -0.3963  0.0063
 1906TIP3    H127133   3.847   5.223   2.900  2.0390 -0.3134 -1.0838
 1906TIP3    H227134   3.928   5.135   2.993 -0.5857 -0.7712  0.8529
 1907TIP3   OH227135   0.749   3.256   1.692 -0.0707  0.0365  0.2418
 1907TIP3    H127136   0.688   3.183   1.687  0.5337 -0.6568  2.5489
 1907TIP3    H227137   0.732   3.307   1.612 -1.6114 -1.7210 -0.5817
 1908TIP3   OH227138   3.095   5.370   2.414  0.0555  0.2444  0.0317
 1908TIP3    H127139   3.138   5.365   2.330  0.9254 -2.9761  0.5929
 1908TIP3    H227140   3.156   5.417   2.471  1.6059 -1.7001  0.0441
 1909TIP3   OH227141   4.505   1.168   2.204 -0.2766  0.0566 -0.5826
 1909TIP3    H127142   4.410   1.157   2.207 -0.3570  0.5840 -1.1984
 1909TIP3    H227143   4.538   1.083   2.174 -0.4614 -0.5280  0.8262
 1910TIP3   OH227144   4.803   2.510   1.516  0.2234 -0.3138 -0.0029
 1910TIP3    H127145   4.898   2.503   1.507  0.1973  1.4364 -1.9897
 1910TIP3    H227146   4.769   2.467   1.437 -0.5821  0.6183 -0.1616
 1911TIP3   OH227147   2.898   6.173   1.528 -0.2502 -0.1060 -0.0294
 1911TIP3    H127148   2.829   6.186   1.463 -0.6448  0.4317  0.4895
 1911TIP3    H227149   2.888   6.247   1.589 -1.8628 -2.2838  2.4313
 1912TIP3   OH227150   0.202   5.383  11.969  0.2229  0.4601 -0.6122
 1912TIP3    H127151   0.155   5.339  11.898 -0.3492 -0.3764  0.2754
 1912TIP3    H227152   0.168   5.473  11.967  0.1997  0.4391 -1.3892
 1913TIP3   OH227153   0.204   0.239  12.242 -0.0164  0.2919 -0.2544
 1913TIP3    H127154   0.212   0.146  12.220  0.5220  0.1571  0.4977
 1913TIP3    H227155   0.114   0.248  12.275 -0.3336  0.2010 -1.0808
 1914TIP3   OH227156   4.456   0.426  14.547 -0.2316 -1.0610 -0.1646
 1914TIP3    H127157   4.387   0.483  14.516 -1.0358 -0.8618  1.9127
 1914TIP3    H227158   4.411   0.356  14.595  1.0539  0.6973  3.8659
 1915TIP3   OH227159   4.671   3.868   2.369  0.5815  0.3045 -0.2213
 1915TIP3    H127160   4.675   3.947   2.314  2.3800 -0.3996 -1.1340
 1915TIP3    H227161   4.667   3.902   2.459  1.1695  1.4297 -0.6151
 1916TIP3   OH227162   1.065   6.555  14.901  0.5396 -0.2312 -0.1553
 1916TIP3    H127163   1.012   6.481  14.931 -0.0809  0.2655 -0.0153
 1916TIP3    H227164   1.006   6.631  14.906  1.2790  0.3432  0.0850
 1917TIP3   OH227165   4.536   4.061   3.976 -0.0381 -0.1620  0.9145
 1917TIP3    H127166   4.581   4.028   3.899 -1.4509 -1.0149  0.4540
 1917TIP3    H227167   4.474   4.125   3.942  3.5758  4.1361  1.8832
 1918TIP3   OH227168   6.086   2.277   3.348  0.4029 -0.1879 -0.3030
 1918TIP3    H127169   6.111   2.293   3.439  0.6110 -1.5243 -0.1207
 1918TIP3    H227170   6.169   2.255   3.304  0.2386  0.0392 -0.7338
 1919TIP3   OH227171   3.306   6.550  11.666 -0.0811 -0.8598  0.2890
 1919TIP3    H127172   3.341   6.520  11.582  2.4400 -0.5200  1.1885
 1919TIP3    H227173   3.228   6.601  11.642  1.1042 -0.0080 -1.9201
 1920TIP3   OH227174   4.192   0.208  15.622 -0.3652 -0.0520 -0.2301
 1920TIP3    H127175   4.216   0.151  15.549 -1.1421 -1.1127  0.3272
 1920TIP3    H227176   4.100   0.226  15.609  0.0370  1.6444 -0.7695
 1921TIP3   OH227177   1.419   1.124  16.953 -0.3508 -0.0844 -0.5264
 1921TIP3    H127178   1.488   1.058  16.961  0.4671  0.6893 -0.9721
 1921TIP3    H227179   1.343   1.085  16.995  0.7153 -0.4746  1.0819
 1922TIP3   OH227180   2.002   5.714   3.260  0.8428 -0.5469  0.1808
 1922TIP3    H127181   2.046   5.641   3.303 -0.9600 -1.4540  0.5436
 1922TIP3    H227182   1.915   5.680   3.238  0.1043  1.3740  0.0311
 1923TIP3   OH227183   3.603   1.381   1.946  0.1152 -0.2113 -0.4800
 1923TIP3    H127184   3.603   1.300   1.894  0.3353 -0.5549  0.0435
 1923TIP3    H227185   3.681   1.374   2.001 -1.6207 -1.2128  1.9666
 1924TIP3   OH227186   4.548   1.875  13.169  0.3575  0.5834  0.0262
 1924TIP3    H127187   4.455   1.854  13.181  0.3783 -0.3489 -1.3433
 1924TIP3    H227188   4.549   1.948  13.108  0.5439  0.3357 -0.2671
 1925TIP3   OH227189   2.141   6.773  14.053 -0.1182 -0.7900  0.2142
 1925TIP3    H127190   2.147   6.845  13.990 -1.8086 -1.6046 -0.9134
 1925TIP3    H227191   2.171   6.697  14.004  1.0926 -0.9694  1.2211
 1926TIP3   OH227192   4.573   1.786   0.976 -0.2214  0.4177  0.6767
 1926TIP3    H127193   4.659   1.810   1.011  0.1787 -0.5195  0.3530
 1926TIP3    H227194   4.516   1.784   1.052 -0.1008  1.6605  0.8128
 1927TIP3   OH227195   5.507   5.878  11.914 -0.1104 -0.1476  0.0679
 1927TIP3    H127196   5.487   5.868  11.821  0.1901 -0.0642 -0.0088
 1927TIP3    H227197   5.492   5.971  11.932 -0.8610 -0.3047  0.2760
 1928TIP3   OH227198   1.282   4.427  15.284  0.1225 -0.2618 -0.1167
 1928TIP3    H127199   1.353   4.469  15.236 -0.2964  1.1548  0.4814
 1928TIP3    H227200   1.207   4.429  15.224 -0.4790  1.7617  0.6738
 1929TIP3   OH227201   0.724   5.368   0.574 -0.0209 -0.0262  0.2170
 1929TIP3    H127202   0.749   5.281   0.604  1.5683  0.7269  1.1272
 1929TIP3    H227203   0.677   5.407   0.648  1.8078  0.9451  0.8993
 1930TIP3   OH227204   0.729   5.625  11.887 -0.6008 -0.8530 -0.2971
 1930TIP3    H127205   0.787   5.597  11.957 -0.9020  0.4057  0.4759
 1930TIP3    H227206   0.683   5.701  11.923  0.3512  0.7791 -2.3684
 1931TIP3   OH227207   3.207   4.518   3.945  0.1062 -0.4382 -0.2309
 1931TIP3    H127208   3.134   4.462   3.922  0.6589 -1.3803  0.2634
 1931TIP3    H227209   3.238   4.554   3.862 -0.0340 -1.1442 -0.5903
 1932TIP3   OH227210   3.049   4.935   5.738 -0.5837  0.5208  0.0807
 1932TIP3    H127211   2.980   5.001   5.734 -0.4582  0.7896  1.9418
 1932TIP3    H227212   3.130   4.985   5.745 -0.1369  0.2103 -2.2642
 1933TIP3   OH227213   3.647   5.305   4.430  0.0026 -0.1252 -0.0942
 1933TIP3    H127214   3.734   5.279   4.459  0.2612  0.3166 -0.4642
 1933TIP3    H227215   3.599   5.323   4.511  0.1338 -0.7509  0.1228
 1934TIP3   OH227216   1.958   3.261   5.298 -0.2007 -0.9314 -0.3930
 1934TIP3    H127217   2.024   3.216   5.244 -0.3025 -0.6928 -0.7102
 1934TIP3    H227218   1.916   3.323   5.239 -0.1481 -0.5040  0.0219
 1935TIP3   OH227219   2.855   0.820  17.029  0.1483  0.3106 -0.8100
 1935TIP3    H127220   2.809   0.791  16.950  0.4820  0.4235 -1.0441
 1935TIP3    H227221   2.932   0.764  17.034 -1.4920 -1.8620  1.1846
 1936TIP3   OH227222   2.491   3.924   2.807 -0.1264  0.5005  0.1710
 1936TIP3    H127223   2.440   3.891   2.881 -0.4395 -1.9580 -1.0618
 1936TIP3    H227224   2.441   3.999   2.775 -1.6072 -0.2830  0.5782
 1937TIP3   OH227225   1.259   1.111  16.543  0.1227  0.2621  0.0303
 1937TIP3    H127226   1.228   1.106  16.633  0.1882  1.5418  0.1431
 1937TIP3    H227227   1.283   1.021  16.520 -2.0185 -0.4560  0.5180
 1938TIP3   OH227228   5.370   4.689  17.216  0.0057 -0.4136 -0.1887
 1938TIP3    H127229   5.307   4.756  17.242 -0.2585 -0.3066 -1.0977
 1938TIP3    H227230   5.448   4.737  17.190 -0.1373 -0.4568 -0.7112
 1939TIP3   OH227231   2.215   3.517   5.070 -0.2774  0.0707  0.0296
 1939TIP3    H127232   2.273   3.535   4.996 -2.6686  2.3195 -1.3703
 1939TIP3    H227233   2.188   3.426   5.057  1.5399 -0.4599 -0.2360
 1940TIP3   OH227234   3.497   4.955  12.468 -0.4192  0.4900 -0.4182
 1940TIP3    H127235   3.420   4.908  12.502 -0.1314  1.0156  1.0185
 1940TIP3    H227236   3.468   4.991  12.384 -1.0757 -1.0710 -0.8729
 1941TIP3   OH227237   6.244   5.129   2.200  0.1905  0.0312  0.3158
 1941TIP3    H127238   6.169   5.100   2.147 -0.1695 -0.0240  0.8568
 1941TIP3    H227239   6.209   5.139   2.288  0.6743  0.6362  0.4418
 1942TIP3   OH227240   1.754   4.699  12.429 -0.4339 -0.5699  0.3642
 1942TIP3    H127241   1.723   4.736  12.512 -1.1689  0.6684 -0.4363
 1942TIP3    H227242   1.758   4.774  12.370 -1.0512 -1.6205 -1.0499
 1943TIP3   OH227243   4.447   3.529   1.484  0.3264  0.0186 -0.3999
 1943TIP3    H127244   4.373   3.473   1.462  0.3778  0.1434 -0.9121
 1943TIP3    H227245   4.497   3.479   1.549 -0.2077 -0.0602 -0.0535
 1944TIP3   OH227246   0.988   6.582   1.495 -0.6633 -0.3048 -0.4095
 1944TIP3    H127247   1.012   6.600   1.404 -0.8006 -0.7577 -0.5372
 1944TIP3    H227248   1.007   6.663   1.542  0.7212 -0.5253 -0.5858
 1945TIP3   OH227249   4.762   6.080   5.387 -0.2476  0.4618 -0.4949
 1945TIP3    H127250   4.834   6.115   5.439 -0.4216  1.2499 -0.7768
 1945TIP3    H227251   4.736   6.152   5.330  0.6034 -0.7153 -2.4087
 1946TIP3   OH227252   3.180   0.231  16.793  0.2449 -0.3675  0.5298
 1946TIP3    H127253   3.252   0.214  16.732  0.4818  3.2010 -0.2682
 1946TIP3    H227254   3.121   0.289  16.746 -2.3427 -1.8470  1.8117
 1947TIP3   OH227255   5.814   5.047   3.004 -0.6620 -0.2160  0.2094
 1947TIP3    H127256   5.893   5.036   2.951 -0.3806  0.1723  0.5449
 1947TIP3    H227257   5.754   4.980   2.972  0.0034 -0.8776  0.3351
 1948TIP3   OH227258   5.923   6.564   3.564 -0.2686 -0.4427 -0.7650
 1948TIP3    H127259   5.929   6.473   3.534  0.7805 -0.1458 -1.4891
 1948TIP3    H227260   5.968   6.565   3.648 -0.4260 -0.6250 -0.6785
 1949TIP3   OH227261   0.143   2.117  15.514  0.4588 -0.2593 -0.7083
 1949TIP3    H127262   0.090   2.180  15.562  0.1435  1.3864 -3.1712
 1949TIP3    H227263   0.232   2.129  15.549  0.0870  0.3138  0.0575
 1950TIP3   OH227264   6.287   0.125   5.491  0.3532 -0.1627  0.4523
 1950TIP3    H127265   6.235   0.090   5.563  0.7687 -0.9832  0.3552
 1950TIP3    H227266   6.233   0.112   5.414 -0.2976  1.1539  0.6639
 1951TIP3   OH227267   2.412   0.389  15.121 -0.1264 -0.3505  0.0214
 1951TIP3    H127268   2.334   0.443  15.106  0.1654 -0.1730 -0.8610
 1951TIP3    H227269   2.383   0.324  15.185 -1.0821 -0.4338 -0.4761
 1952TIP3   OH227270   2.433   0.841  11.733  0.2228  0.5839 -0.1070
 1952TIP3    H127271   2.413   0.756  11.773 -1.9142  2.0524  2.1011
 1952TIP3    H227272   2.369   0.849  11.662 -1.6224  1.6340  1.6313
 1953TIP3   OH227273   1.318   2.229  13.693 -0.3045 -0.2864  0.0432
 1953TIP3    H127274   1.301   2.234  13.787 -2.2752 -0.0980 -0.3025
 1953TIP3    H227275   1.267   2.154  13.663  0.2849 -0.3257 -0.8915
 1954TIP3   OH227276   1.943   3.074  12.049 -0.1479 -0.4175 -0.7689
 1954TIP3    H127277   1.961   2.979  12.053  1.0119 -0.3283 -3.0821
 1954TIP3    H227278   1.954   3.096  11.957  0.0084  2.0655 -0.1764
 1955TIP3   OH227279   0.088   0.475  16.949 -0.2215  0.4888 -0.2698
 1955TIP3    H127280   0.092   0.380  16.947 -0.5945  0.4901 -1.6456
 1955TIP3    H227281   0.022   0.495  17.015 -1.0315 -0.2289 -0.8607
 1956TIP3   OH227282   3.937   3.871   5.013  1.3822  0.5035 -0.0769
 1956TIP3    H127283   3.980   3.841   5.093  0.2463  0.9551  0.7045
 1956TIP3    H227284   3.845   3.845   5.023  1.4304 -0.4070 -1.7140
 1957TIP3   OH227285   4.674   0.486  12.510 -0.7515 -0.1169  0.5037
 1957TIP3    H127286   4.678   0.514  12.419 -2.4858  2.1835  1.1192
 1957TIP3    H227287   4.766   0.476  12.536 -0.2153  0.8658 -0.9891
 1958TIP3   OH227288   5.744   1.645   3.765  0.0440  0.3540 -0.2981
 1958TIP3    H127289   5.683   1.655   3.838 -0.6337 -0.5931 -0.7248
 1958TIP3    H227290   5.773   1.554   3.771  0.8136  0.5770 -0.5747
 1959TIP3   OH227291   2.007   6.350  16.519  0.2041 -0.5400 -0.1568
 1959TIP3    H127292   1.945   6.329  16.449  1.0264 -0.4522 -0.9179
 1959TIP3    H227293   1.995   6.279  16.582  0.6383 -1.5405 -1.1736
 1960TIP3   OH227294   1.414   3.362  13.910  0.2088 -0.0066  0.2243
 1960TIP3    H127295   1.493   3.308  13.911  1.2295  1.4588  0.2790
 1960TIP3    H227296   1.427   3.422  13.837 -0.7764  0.3594  0.3449
 1961TIP3   OH227297   6.638   6.079  12.437 -0.5597 -0.1095  0.0938
 1961TIP3    H127298   6.726   6.051  12.412 -0.6466 -1.6090  1.3849
 1961TIP3    H227299   6.586   5.999  12.432 -1.7219  0.6475 -0.0510
 1962TIP3   OH227300   4.992   1.851   0.478  1.2340 -0.2087 -0.6590
 1962TIP3    H127301   4.909   1.834   0.521  0.6211 -0.4368 -1.9152
 1962TIP3    H227302   4.971   1.915   0.410  2.3007  0.6135 -0.2328
 1963TIP3   OH227303   6.613   3.545  13.443 -0.3129 -0.2011 -0.1186
 1963TIP3    H127304   6.531   3.595  13.439  0.3504  0.8772 -0.6749
 1963TIP3    H227305   6.610   3.488  13.366  0.3189  1.2329 -1.2333
 1964TIP3   OH227306   6.082   3.036   1.917  0.1335 -0.3868 -0.0338
 1964TIP3    H127307   6.176   3.038   1.904  0.1816 -3.1131 -0.5720
 1964TIP3    H227308   6.051   2.968   1.856 -2.0508 -0.1780  0.7841
 1965TIP3   OH227309   4.771   4.317   4.300  0.1634  0.3429 -0.7640
 1965TIP3    H127310   4.728   4.255   4.242  1.3367 -0.0698 -1.2203
 1965TIP3    H227311   4.700   4.359   4.348 -0.7140 -0.5083 -1.2986
 1966TIP3   OH227312   5.598   6.755  14.893  0.5430  0.0413 -0.1244
 1966TIP3    H127313   5.584   6.725  14.983 -1.4360 -1.9689 -1.0819
 1966TIP3    H227314   5.524   6.812  14.875  1.2822  0.9698 -0.2862
 1967TIP3   OH227315   3.836   6.710  12.782 -0.4703  0.4276  0.0448
 1967TIP3    H127316   3.895   6.763  12.729 -0.0187 -0.0616  0.0528
 1967TIP3    H227317   3.893   6.666  12.846 -1.1636  2.0853  1.8581
 1968TIP3   OH227318   6.308   0.184  14.641  0.6595  0.0329 -0.0722
 1968TIP3    H127319   6.217   0.161  14.625  0.9716 -0.3458 -1.3793
 1968TIP3    H227320   6.320   0.172  14.735 -0.3998 -0.7906 -0.0383
 1969TIP3   OH227321   3.366   5.260  13.384 -0.3489 -0.5517  0.0938
 1969TIP3    H127322   3.284   5.308  13.377 -1.8394 -2.9895  0.6001
 1969TIP3    H227323   3.386   5.260  13.478 -0.5905 -1.3221  0.1449
 1970TIP3   OH227324   4.189   0.195   5.412 -0.5978  0.6591  0.2060
 1970TIP3    H127325   4.280   0.181   5.389 -0.7090  0.5013 -0.1431
 1970TIP3    H227326   4.141   0.129   5.362 -0.9888  1.3428 -0.3284
 1971TIP3   OH227327   3.511   4.892  16.532  0.5156  0.2688  0.2202
 1971TIP3    H127328   3.584   4.953  16.545  1.1808 -0.4393 -0.1460
 1971TIP3    H227329   3.459   4.932  16.462  0.7196  0.6211  0.2667
 1972TIP3   OH227330   5.862   1.235   3.106 -0.4297  0.2300 -0.2661
 1972TIP3    H127331   5.931   1.215   3.168  0.2321  0.7473 -0.8318
 1972TIP3    H227332   5.832   1.150   3.074  0.8515  0.0387 -1.0024
 1973TIP3   OH227333   0.366   0.618   2.613 -0.1893  0.5260 -0.1481
 1973TIP3    H127334   0.408   0.703   2.609 -1.1334  0.9810 -0.6177
 1973TIP3    H227335   0.284   0.629   2.565  0.7161 -1.2432 -2.2033
 1974TIP3   OH227336   4.369   6.018  11.323  0.3216 -0.3686 -0.1940
 1974TIP3    H127337   4.365   5.935  11.369 -1.4934  0.0451  0.4196
 1974TIP3    H227338   4.345   6.084  11.388  0.0705  0.4589 -1.1028
 1975TIP3   OH227339   4.795   3.598  11.862  0.3655 -0.0221  0.4742
 1975TIP3    H127340   4.829   3.678  11.821 -0.3997 -0.2647 -0.6259
 1975TIP3    H227341   4.740   3.630  11.934 -1.2057  0.4944 -0.9270
 1976TIP3   OH227342   0.622   6.454  11.452 -0.4327 -0.0531 -0.0936
 1976TIP3    H127343   0.645   6.521  11.388  2.2924 -1.0521 -0.2278
 1976TIP3    H227344   0.599   6.502  11.531  1.0075  1.0581 -0.3373
 1977TIP3   OH227345   1.422   5.631  13.905  0.2408  0.4116  0.1081
 1977TIP3    H127346   1.513   5.638  13.933  0.0024  0.4311  0.8938
 1977TIP3    H227347   1.405   5.537  13.903  0.0687  0.4254  0.6779
 1978TIP3   OH227348   2.674   5.691  16.745  0.3243  0.3211  0.2853
 1978TIP3    H127349   2.651   5.784  16.751  0.6735  0.3557  1.0643
 1978TIP3    H227350   2.769   5.689  16.751  0.3513 -0.0460 -0.2759
 1979TIP3   OH227351   4.570   4.408   1.401 -0.0211 -0.1546 -0.1621
 1979TIP3    H127352   4.567   4.400   1.306  0.2852  1.0170 -0.2690
 1979TIP3    H227353   4.484   4.377   1.430  0.0335 -0.9114 -0.7825
 1980TIP3   OH227354   6.764   0.949   3.979 -0.0942  0.2330  0.0313
 1980TIP3    H127355   6.740   1.011   4.048 -1.0210  0.1850 -0.2398
 1980TIP3    H227356   6.783   0.868   4.026 -0.6134  0.2298  0.2420
 1981TIP3   OH227357   3.126   5.959   4.781  0.5571  0.1110 -0.0239
 1981TIP3    H127358   3.191   5.942   4.849  1.2012 -0.6721 -0.8250
 1981TIP3    H227359   3.083   6.040   4.808  3.2492  1.7635 -0.5453
 1982TIP3   OH227360   2.441   4.924   2.643 -0.4429  0.1411 -0.7160
 1982TIP3    H127361   2.437   4.975   2.723 -2.8489 -0.2277 -0.5743
 1982TIP3    H227362   2.429   4.987   2.573  1.8416  0.4896 -0.8306
 1983TIP3   OH227363   6.248   2.020   5.497 -0.6862 -0.6463  0.6081
 1983TIP3    H127364   6.193   2.098   5.505  0.6299  0.2817  0.7081
 1983TIP3    H227365   6.333   2.047   5.531  0.0426 -1.8517 -0.2361
 1984TIP3   OH227366   1.914   4.148   4.394 -0.5588  0.7182 -0.2439
 1984TIP3    H127367   1.836   4.153   4.449 -0.4822  0.8947 -0.1505
 1984TIP3    H227368   1.976   4.096   4.444 -1.8369 -2.3914 -1.7951
 1985TIP3   OH227369   4.328   0.291  10.674 -0.2240  0.0891 -0.3464
 1985TIP3    H127370   4.350   0.260  10.586 -1.0433 -3.0208  0.4991
 1985TIP3    H227371   4.250   0.345  10.661  0.5913  0.9997 -1.7007
 1986TIP3   OH227372   6.423   6.344  14.909 -0.2173 -0.4058  0.2450
 1986TIP3    H127373   6.504   6.293  14.903 -0.6112 -1.2956  2.1017
 1986TIP3    H227374   6.425   6.382  14.997 -1.7084 -0.2751  0.2344
 1987TIP3   OH227375   0.681   0.728   1.302  0.0662 -0.5782  0.0086
 1987TIP3    H127376   0.687   0.665   1.231 -1.3686 -0.9206  0.1735
 1987TIP3    H227377   0.599   0.706   1.347  0.1987  0.5839  0.8495
 1988TIP3   OH227378   3.269   1.568   2.716  0.4325  0.0708 -0.0175
 1988TIP3    H127379   3.313   1.643   2.756  1.7065 -0.2178 -0.8788
 1988TIP3    H227380   3.304   1.562   2.628 -0.2634 -1.0510 -0.2386
 1989TIP3   OH227381   5.592   6.331  15.395  0.3238  0.0755  0.2076
 1989TIP3    H127382   5.673   6.351  15.442 -0.4302  0.9019  1.1794
 1989TIP3    H227383   5.605   6.242  15.361  1.6211  0.1937  0.3756
 1990TIP3   OH227384   5.047   0.827  11.516 -0.6945 -0.3365 -0.0779
 1990TIP3    H127385   5.073   0.878  11.593  0.5891  0.3258 -0.9242
 1990TIP3    H227386   4.985   0.763  11.549 -2.9337  2.2187  0.9197
 1991TIP3   OH227387   4.880   2.936  16.681  0.0536  0.0240 -0.0888
 1991TIP3    H127388   4.881   3.026  16.649 -1.5804 -0.0988 -0.5599
 1991TIP3    H227389   4.907   2.943  16.773 -0.6686  1.0789  0.0536
 1992TIP3   OH227390   2.099   3.531  13.993  0.1672  0.2460 -0.0425
 1992TIP3    H127391   2.164   3.464  13.970 -0.6687 -0.3735 -0.6119
 1992TIP3    H227392   2.126   3.561  14.080  1.2272  0.0017 -0.2727
 1993TIP3   OH227393   1.605   1.445  12.094  0.0346  0.1882  0.2370
 1993TIP3    H127394   1.568   1.528  12.125  2.5186  0.2049  3.3663
 1993TIP3    H227395   1.565   1.378  12.150  0.1271 -0.4518 -0.4483
 1994TIP3   OH227396   0.638   4.100   0.452  0.3740  0.1676  0.5175
 1994TIP3    H127397   0.590   4.164   0.400  0.5131 -1.7278 -2.0279
 1994TIP3    H227398   0.678   4.151   0.522  1.3407  3.0505 -2.0369
 1995TIP3   OH227399   2.133   5.962   2.341 -0.3713  0.6342  0.4711
 1995TIP3    H127400   2.214   6.012   2.351 -0.2482  0.5231  0.0144
 1995TIP3    H227401   2.156   5.873   2.366 -0.7984  0.9656  2.1286
 1996TIP3   OH227402   6.738   5.930  11.555  0.6530 -0.8072  0.2241
 1996TIP3    H127403   6.647   5.934  11.525  0.6741 -1.9476  0.0017
 1996TIP3    H227404   6.773   6.017  11.534 -0.1077 -0.6775 -0.5743
 1997TIP3   OH227405   5.381   3.927   3.904  0.4763  0.3741  0.4974
 1997TIP3    H127406   5.357   3.870   3.832 -1.1065  1.1502  0.3903
 1997TIP3    H227407   5.455   3.978   3.871  0.8385 -0.4581  0.0240
 1998TIP3   OH227408   2.101   2.976  13.648  0.3465  0.2125  0.7884
 1998TIP3    H127409   2.027   2.922  13.677 -1.2981  1.1122 -1.6201
 1998TIP3    H227410   2.140   2.927  13.577  1.9528 -0.1338  1.8850
 1999TIP3   OH227411   3.427   1.930  10.865  0.7252  1.0337 -0.1440
 1999TIP3    H127412   3.462   2.007  10.912  0.9373  1.0866 -0.3905
 1999TIP3    H227413   3.489   1.915  10.794 -0.1826  1.6135 -1.0652
 2000TIP3   OH227414   2.268   0.328   2.794 -0.3279  0.3816 -0.1770
 2000TIP3    H127415   2.350   0.325   2.843 -0.4708  1.2888  0.1239
 2000TIP3    H227416   2.292   0.364   2.709 -0.1277 -0.9438 -0.7039
 2001TIP3   OH227417   3.376   6.140  15.052  0.1010 -0.4232  0.4278
 2001TIP3    H127418   3.455   6.168  15.004  0.8343  0.9488  2.3857
 2001TIP3    H227419   3.355   6.054  15.015  1.3712  0.0425 -1.4725
 2002TIP3   OH227420   5.557   3.256  10.443 -0.3749 -0.0344 -0.0228
 2002TIP3    H127421   5.623   3.318  10.475 -0.8585 -0.7630  2.5496
 2002TIP3    H227422   5.474   3.289  10.479 -0.7099 -1.8133  0.8844
 2003TIP3   OH227423   2.166   1.042  14.067  0.0136  0.3398 -0.3012
 2003TIP3    H127424   2.217   1.110  14.112 -1.5490  0.6442  1.0671
 2003TIP3    H227425   2.195   0.961  14.108 -1.4396  0.6204  1.3724
 2004TIP3   OH227426   6.054   5.490  17.058  0.0690 -0.0241 -0.3331
 2004TIP3    H127427   6.072   5.433  16.984 -0.2498  1.3194 -1.4558
 2004TIP3    H227428   5.972   5.456  17.095  0.7216 -1.2688 -0.0205
 2005TIP3   OH227429   2.589   6.060  17.171 -0.2867 -0.0270 -0.1241
 2005TIP3    H127430   2.547   6.092  17.092 -0.3972 -1.4536 -0.6607
 2005TIP3    H227431   2.622   5.973  17.147 -0.0290 -0.3324  1.2925
 2006TIP3   OH227432   1.850   1.825  14.480  0.4015 -0.4422 -0.1741
 2006TIP3    H127433   1.944   1.813  14.471  0.4546  0.6350 -1.1927
 2006TIP3    H227434   1.828   1.892  14.415 -0.6483  1.1914  1.8018
 2007TIP3   OH227435   2.874   1.669   5.682  0.2465  0.2123 -0.6778
 2007TIP3    H127436   2.930   1.592   5.690  0.5499  0.5389  0.4813
 2007TIP3    H227437   2.802   1.654   5.742  0.6530  1.1152  0.0562
 2008TIP3   OH227438   1.711   2.914  13.179  0.1993 -0.1192  0.3728
 2008TIP3    H127439   1.651   2.878  13.114  0.2529  1.2394 -0.4404
 2008TIP3    H227440   1.665   2.902  13.262  0.3396 -2.3054  0.1612
 2009TIP3   OH227441   4.669   3.323   4.180  0.6189 -0.6246 -0.1307
 2009TIP3    H127442   4.723   3.317   4.102  1.1580 -3.0250  0.3940
 2009TIP3    H227443   4.714   3.269   4.245 -0.7828 -0.1606  1.2717
 2010TIP3   OH227444   4.860   0.804   6.433  0.4495  0.0376  0.1959
 2010TIP3    H127445   4.818   0.864   6.495 -0.8820  0.7968 -1.4128
 2010TIP3    H227446   4.869   0.854   6.352  0.6182 -1.4676 -0.7471
 2011TIP3   OH227447   3.233   4.260  14.668  0.2844 -1.3146  0.0725
 2011TIP3    H127448   3.150   4.226  14.633  0.2629 -1.5804  0.3807
 2011TIP3    H227449   3.206   4.316  14.741  0.2896 -0.2484 -0.7353
 2012TIP3   OH227450   6.158   4.487   3.937 -0.4013 -0.5470  0.3443
 2012TIP3    H127451   6.221   4.430   3.981 -0.4650 -2.6624 -2.1332
 2012TIP3    H227452   6.184   4.485   3.845 -1.4158  2.1579 -0.0594
 2013TIP3   OH227453   3.396   2.838  12.784  0.5172 -0.2794 -0.2673
 2013TIP3    H127454   3.477   2.803  12.820 -0.7010 -1.7979  1.0528
 2013TIP3    H227455   3.385   2.792  12.701  1.2774  0.3560 -0.7349
 2014TIP3   OH227456   4.848   5.094   2.428  0.5142 -0.0248 -0.2765
 2014TIP3    H127457   4.904   5.017   2.419 -0.7145 -1.1401  1.3177
 2014TIP3    H227458   4.777   5.065   2.485  0.7546  2.6780  1.4949
 2015TIP3   OH227459   3.596   4.334  13.741  0.0794 -0.0652 -0.2233
 2015TIP3    H127460   3.618   4.322  13.649  0.5713  0.2730 -0.1498
 2015TIP3    H227461   3.525   4.398  13.741  0.2306  0.1033 -0.3549
 2016TIP3   OH227462   2.924   1.817   2.084 -0.1791  0.0867 -0.0784
 2016TIP3    H127463   2.878   1.875   2.023  1.0029  0.8471 -0.2553
 2016TIP3    H227464   2.863   1.808   2.158 -0.6981  0.9292 -0.3941
 2017TIP3   OH227465   2.706   2.209  15.601  0.1111  0.0828 -0.0456
 2017TIP3    H127466   2.783   2.224  15.546 -0.5926  0.8781 -0.8123
 2017TIP3    H227467   2.667   2.129  15.566  1.8719 -1.6395  1.8118
 2018TIP3   OH227468   2.267   1.373   1.216  0.2392  0.1020 -0.2831
 2018TIP3    H127469   2.315   1.438   1.163  0.8261  0.7829  1.0577
 2018TIP3    H227470   2.176   1.400   1.209  0.5502  1.5255  0.8316
 2019TIP3   OH227471   3.942   6.218   2.011 -0.2527 -0.4449  0.4156
 2019TIP3    H127472   3.853   6.225   2.046 -0.3201 -0.2912  0.2190
 2019TIP3    H227473   3.929   6.210   1.916  0.0504  2.7716  0.0431
 2020TIP3   OH227474   3.475   4.562  10.972 -0.6452 -0.0963  0.4590
 2020TIP3    H127475   3.409   4.561  11.042 -0.8643 -0.0864  0.2527
 2020TIP3    H227476   3.551   4.604  11.011 -0.7485 -0.1440  0.7119
 2021TIP3   OH227477   1.147   0.080   3.250  0.0291 -0.7245 -0.1488
 2021TIP3    H127478   1.227   0.036   3.280 -1.4727 -2.7075  1.0662
 2021TIP3    H227479   1.103   0.107   3.331 -0.9859 -0.4916 -0.7729
 2022TIP3   OH227480   4.482   1.912   3.108  0.0677  0.0960 -0.4005
 2022TIP3    H127481   4.435   1.981   3.155 -0.9590 -0.6494 -0.3360
 2022TIP3    H227482   4.444   1.912   3.020  0.0469 -0.4095 -0.3939
 2023TIP3   OH227483   4.479   1.298   5.310 -0.5657 -0.3147  0.5461
 2023TIP3    H127484   4.501   1.205   5.302 -0.8280 -0.3948  0.7516
 2023TIP3    H227485   4.550   1.343   5.264 -0.5622 -0.6285  0.2386
 2024TIP3   OH227486   6.109   2.979  13.661 -0.1950  0.0328 -0.1713
 2024TIP3    H127487   6.105   3.023  13.577  0.2895  0.2354 -0.0899
 2024TIP3    H227488   6.155   3.040  13.719 -1.1762  0.2033  0.4375
 2025TIP3   OH227489   4.732   6.596   3.017 -0.7625 -0.4592  0.4029
 2025TIP3    H127490   4.664   6.529   3.029 -2.2136  1.3774  2.9019
 2025TIP3    H227491   4.728   6.648   3.097  0.7816  2.2255 -1.2162
 2026TIP3   OH227492   1.780   1.545   4.495  0.2074  0.0280  0.2510
 2026TIP3    H127493   1.706   1.594   4.460  1.3896 -0.0639 -2.5178
 2026TIP3    H227494   1.854   1.606   4.490  1.1725 -1.2146 -0.8970
 2027TIP3   OH227495   0.524   4.934  12.676 -0.2590  0.0859  0.3664
 2027TIP3    H127496   0.468   4.999  12.719  0.9614  0.9629  0.6565
 2027TIP3    H227497   0.471   4.901  12.604 -1.2265  0.7549  0.7565
 2028TIP3   OH227498   6.454   5.825  14.779 -0.2935 -0.2555  0.0093
 2028TIP3    H127499   6.417   5.892  14.837 -0.9137 -0.7071  0.1425
 2028TIP3    H227500   6.424   5.851  14.692  0.5714  0.3778 -0.1041
 2029TIP3   OH227501   2.807   6.450  15.562  0.6242  0.2476 -0.3179
 2029TIP3    H127502   2.770   6.462  15.649  0.1350 -1.1820 -0.3205
 2029TIP3    H227503   2.747   6.498  15.504 -0.5333 -1.0050 -0.1744
 2030TIP3   OH227504   4.475   5.228  15.638 -0.3731  0.2601 -0.4641
 2030TIP3    H127505   4.528   5.285  15.694  2.0034 -0.1149 -2.2501
 2030TIP3    H227506   4.398   5.208  15.691  1.1364  1.0492  2.1398
 2031TIP3   OH227507   0.918   3.120  17.160 -0.2506  0.2544  0.2417
 2031TIP3    H127508   0.961   3.037  17.181  1.1440  0.7352 -0.6342
 2031TIP3    H227509   0.831   3.113  17.200 -0.5198 -2.0284 -0.6660
 2032TIP3   OH227510   3.618   2.848   1.429  0.4872 -0.0322  0.1611
 2032TIP3    H127511   3.556   2.777   1.412 -0.4695  0.9705 -0.6326
 2032TIP3    H227512   3.676   2.849   1.353 -0.9711  1.5354 -0.9626
 2033TIP3   OH227513   3.701   4.218  12.998 -0.2507 -0.6567 -0.1404
 2033TIP3    H127514   3.742   4.147  13.048 -1.6305  0.1655  2.2468
 2033TIP3    H227515   3.609   4.192  12.991 -1.1799  1.7560  2.4376
 2034TIP3   OH227516   5.513   5.183   2.609  0.3074 -0.1313 -0.1187
 2034TIP3    H127517   5.557   5.101   2.589 -1.7349 -1.3479  0.2457
 2034TIP3    H227518   5.430   5.179   2.562  0.6869  2.2922 -1.1100
 2035TIP3   OH227519   2.255   1.564  14.287  0.1506  0.6155 -0.2189
 2035TIP3    H127520   2.166   1.528  14.275  0.6169 -0.3158 -0.9618
 2035TIP3    H227521   2.311   1.487  14.294  0.9462  1.2030 -0.0442
 2036TIP3   OH227522   0.804   5.218  11.628 -0.2118 -0.3106 -0.3686
 2036TIP3    H127523   0.829   5.247  11.540 -0.1853 -1.8360 -0.8838
 2036TIP3    H227524   0.770   5.297  11.671 -2.3677 -0.0180 -2.5089
 2037TIP3   OH227525   5.067   1.113  14.313 -0.4268 -0.0774 -0.1078
 2037TIP3    H127526   5.128   1.186  14.322 -1.7146  1.1217 -0.9528
 2037TIP3    H227527   5.009   1.139  14.242 -1.3247 -1.6324  0.0420
 2038TIP3   OH227528   1.858   6.152   5.501  0.3412 -0.2095 -0.1666
 2038TIP3    H127529   1.910   6.224   5.466  0.1303  0.4187  0.8167
 2038TIP3    H227530   1.768   6.182   5.496  0.3662  0.2371  1.7073
 2039TIP3   OH227531   4.274   6.214  11.495  0.2728  0.5313 -0.2888
 2039TIP3    H127532   4.350   6.271  11.503 -0.2952  1.6297 -2.4216
 2039TIP3    H227533   4.219   6.256  11.429 -1.2409 -1.3092 -0.2472
 2040TIP3   OH227534   1.031   6.307  13.915 -0.0824  0.4226 -0.0661
 2040TIP3    H127535   1.099   6.241  13.901  0.7296  1.2463 -0.0562
 2040TIP3    H227536   0.973   6.298  13.840  0.4057  0.1630 -0.4118
 2041TIP3   OH227537   0.374   0.630  14.461  0.3424 -0.1664 -0.1097
 2041TIP3    H127538   0.336   0.552  14.422  1.0805  0.0868 -1.3821
 2041TIP3    H227539   0.312   0.657  14.528 -1.6632  0.1864 -2.0673
 2042TIP3   OH227540   5.148   5.600   0.229  0.4704  0.3093 -0.0926
 2042TIP3    H127541   5.109   5.623   0.144 -0.7684  1.0140  0.6570
 2042TIP3    H227542   5.219   5.663   0.241 -0.9504  1.8000  0.5411
 2043TIP3   OH227543   3.255   1.787   5.377 -0.0286  0.1957 -0.0180
 2043TIP3    H127544   3.167   1.778   5.414  0.4728 -0.1996  1.1097
 2043TIP3    H227545   3.309   1.816   5.450  0.5854  1.4448 -0.9512
 2044TIP3   OH227546   3.900   2.375  11.499 -0.4767 -0.9432  0.2841
 2044TIP3    H127547   3.985   2.418  11.492 -0.4657 -0.8308  1.0589
 2044TIP3    H227548   3.838   2.446  11.519 -1.0451 -0.7623 -1.9571
 2045TIP3   OH227549   2.272   4.576  13.700  0.1658 -0.4171 -0.1679
 2045TIP3    H127550   2.363   4.547  13.706 -0.0569 -0.9872  0.6010
 2045TIP3    H227551   2.276   4.671  13.710  0.7515 -0.3626 -0.9714
 2046TIP3   OH227552   1.268   0.151  14.743 -0.1146  0.0166 -0.1617
 2046TIP3    H127553   1.217   0.173  14.820 -0.9336 -1.0754 -0.3747
 2046TIP3    H227554   1.214   0.178  14.669  1.2019  2.2171 -0.3701
 2047TIP3   OH227555   2.003   3.399  12.221 -0.6575 -0.3225 -0.4976
 2047TIP3    H127556   1.934   3.425  12.282  0.1990 -0.3273  0.4770
 2047TIP3    H227557   2.079   3.453  12.246 -0.3711 -0.1361 -1.7152
 2048TIP3   OH227558   2.926   2.837  16.218 -0.2068 -0.0806 -0.8232
 2048TIP3    H127559   2.921   2.836  16.122  0.5298 -1.9151 -0.8554
 2048TIP3    H227560   2.953   2.926  16.239  2.9203 -0.5461 -2.5233
 2049TIP3   OH227561   4.501   4.472   0.607 -0.0336  0.1351 -0.1833
 2049TIP3    H127562   4.469   4.554   0.569 -0.2133  1.1597  2.0788
 2049TIP3    H227563   4.458   4.403   0.556 -1.8834  1.4737 -0.4859
 2050TIP3   OH227564   4.963   6.302  16.683 -0.5712  0.0784  0.1484
 2050TIP3    H127565   4.937   6.301  16.592  0.4353  0.8179 -0.1607
 2050TIP3    H227566   4.985   6.211  16.703  0.1730  0.0839 -0.6355
 2051TIP3   OH227567   4.351   4.499  11.846 -0.2042  0.7731  0.7602
 2051TIP3    H127568   4.291   4.573  11.837 -0.7858  0.3226  0.8951
 2051TIP3    H227569   4.317   4.449  11.920  0.1755  0.3567  0.6579
 2052TIP3   OH227570   2.048   5.894  15.061 -0.5673  0.1041  0.1269
 2052TIP3    H127571   2.048   5.823  14.996 -2.2376 -0.5768  0.8462
 2052TIP3    H227572   2.072   5.851  15.143 -2.0084  0.2485  0.6501
 2053TIP3   OH227573   4.601   0.901  15.343  0.3008 -0.3114 -0.0119
 2053TIP3    H127574   4.643   0.877  15.261 -0.2659 -0.2074 -0.3339
 2053TIP3    H227575   4.649   0.852  15.410  0.0653 -1.2394 -0.5176
 2054TIP3   OH227576   5.417   6.019   0.505 -0.2828  0.0192 -0.2755
 2054TIP3    H127577   5.489   6.039   0.444 -0.3830  0.4185 -0.2588
 2054TIP3    H227578   5.362   6.097   0.505 -1.4726 -0.8052 -1.3450
 2055TIP3   OH227579   2.607   2.295  14.736  0.6074  0.2524 -0.2913
 2055TIP3    H127580   2.656   2.228  14.783  1.8953  1.0866 -0.4058
 2055TIP3    H227581   2.569   2.350  14.804  1.0870  0.4839 -0.2098
 2056TIP3   OH227582   0.548   4.197   2.719  0.1235  0.3201 -0.6841
 2056TIP3    H127583   0.550   4.230   2.629 -1.6942  0.2323 -0.7747
 2056TIP3    H227584   0.457   4.172   2.733  1.0229 -2.8310  0.0528
 2057TIP3   OH227585   3.381   2.832  11.616 -0.5124 -0.3340  0.3776
 2057TIP3    H127586   3.312   2.798  11.559  0.3703  0.3584 -1.1589
 2057TIP3    H227587   3.462   2.801  11.576  0.1855  1.4007  0.3975
 2058TIP3   OH227588   6.286   6.190   3.507  0.2339  0.1856 -0.0910
 2058TIP3    H127589   6.275   6.164   3.598 -1.0813  0.8833 -0.0329
 2058TIP3    H227590   6.296   6.285   3.509  3.7520 -0.1091 -0.4088
 2059TIP3   OH227591   5.564   2.822  15.052 -0.1060  0.6394  0.3108
 2059TIP3    H127592   5.514   2.761  15.106  1.9054 -1.4927 -0.1225
 2059TIP3    H227593   5.579   2.898  15.107 -0.4387 -0.3674  1.8036
 2060TIP3   OH227594   4.284   4.395  14.207 -0.4873  0.2036 -0.2452
 2060TIP3    H127595   4.224   4.322  14.221 -0.2624 -0.0739 -0.7349
 2060TIP3    H227596   4.325   4.409  14.293  0.5202 -1.1799 -0.4819
 2061TIP3   OH227597   1.173   1.699   4.219 -0.3225 -0.0666 -0.1181
 2061TIP3    H127598   1.248   1.754   4.196 -1.1154  1.1685  0.2288
 2061TIP3    H227599   1.166   1.706   4.315  0.7471 -2.3093  0.1549
 2062TIP3   OH227600   3.930   2.382  14.981  0.0876  0.5516  0.4919
 2062TIP3    H127601   3.932   2.364  15.075  0.2943  1.3263  0.6350
 2062TIP3    H227602   3.872   2.457  14.971 -1.1920 -0.4918 -0.1757
 2063TIP3   OH227603   1.657   4.961  13.837  0.0922  0.5356 -0.2684
 2063TIP3    H127604   1.566   4.934  13.822  0.0690 -0.1434  1.0088
 2063TIP3    H227605   1.699   4.883  13.874  0.7297  1.4092  0.8745
 2064TIP3   OH227606   0.416   6.371   3.588  0.2105  0.5925  0.3925
 2064TIP3    H127607   0.440   6.388   3.679 -0.8219  0.3466  0.7177
 2064TIP3    H227608   0.491   6.403   3.537  0.6207  1.1025  1.3003
 2065TIP3   OH227609   3.079   6.595   2.930 -0.3634  0.1549  0.3614
 2065TIP3    H127610   3.017   6.551   2.989  1.0752 -2.3314  0.1035
 2065TIP3    H227611   3.037   6.591   2.844 -0.3428 -0.5679  0.3797
 2066TIP3   OH227612   4.200   0.472  13.195 -0.5669  0.4005 -0.0166
 2066TIP3    H127613   4.192   0.563  13.167  1.5005  0.6537  0.0952
 2066TIP3    H227614   4.245   0.428  13.122 -1.0322 -0.3949  0.1669
 2067TIP3   OH227615   0.596   6.381  15.023  0.0461  0.7286 -0.4191
 2067TIP3    H127616   0.602   6.306  14.963 -1.8614  1.7152 -1.8838
 2067TIP3    H227617   0.659   6.444  14.989  1.7025 -0.1911  0.8543
 2068TIP3   OH227618   5.473   1.945  11.658  0.3594 -0.0036 -0.3775
 2068TIP3    H127619   5.443   1.882  11.723 -0.8900  0.6699 -0.2916
 2068TIP3    H227620   5.545   1.900  11.613 -0.1244 -1.2591  0.0717
 2069TIP3   OH227621   3.415   6.530  15.281  0.2815  0.1702 -0.2810
 2069TIP3    H127622   3.379   6.553  15.195  0.5893  1.3775 -0.0913
 2069TIP3    H227623   3.486   6.593  15.295  0.3579 -0.1446  0.7718
 2070TIP3   OH227624   6.377   6.517  12.199 -0.5992  0.2178 -0.0494
 2070TIP3    H127625   6.435   6.451  12.159 -2.3216 -0.5133 -1.3984
 2070TIP3    H227626   6.368   6.585  12.133  0.4648  1.4224  1.0107
 2071TIP3   OH227627   1.976   2.528   2.817  0.1761 -0.2006 -0.3088
 2071TIP3    H127628   1.984   2.620   2.841 -0.7589 -0.6277  1.7643
 2071TIP3    H227629   1.882   2.513   2.812  0.3346 -0.8816 -1.3250
 2072TIP3   OH227630   4.162   2.581  12.329  0.3496  0.7202 -0.2137
 2072TIP3    H127631   4.170   2.635  12.408 -0.8707 -0.6186  0.8526
 2072TIP3    H227632   4.090   2.621  12.280  1.4556  1.8689 -0.9156
 2073TIP3   OH227633   2.205   6.412  14.375 -0.3197 -0.3638  0.2730
 2073TIP3    H127634   2.228   6.505  14.374 -0.8310 -0.2377 -0.5834
 2073TIP3    H227635   2.289   6.366  14.377 -0.0430  0.1131 -0.3324
 2074TIP3   OH227636   1.458   6.403  11.691 -0.0125 -0.0863  0.1392
 2074TIP3    H127637   1.377   6.362  11.720 -0.0105  0.7707  1.4042
 2074TIP3    H227638   1.512   6.331  11.658 -2.1704 -0.3761 -2.8669
 2075TIP3   OH227639   5.985   5.143   0.121  0.0682 -0.6862 -0.3391
 2075TIP3    H127640   5.903   5.158   0.167  0.0425  1.2187 -0.9373
 2075TIP3    H227641   6.016   5.059   0.153 -1.5074 -0.8569  0.7963
 2076TIP3   OH227642   6.673   2.779   5.172 -0.9277  0.4443 -0.0970
 2076TIP3    H127643   6.622   2.832   5.111 -0.5732  0.6179 -0.2447
 2076TIP3    H227644   6.662   2.689   5.141 -0.2061  0.5999 -0.8147
 2077TIP3   OH227645   6.745   0.298   0.212 -0.0619  0.4634 -0.1983
 2077TIP3    H127646   6.742   0.213   0.255  0.4463  0.5845  0.0848
 2077TIP3    H227647   6.710   0.360   0.275  0.7089  0.6450  0.0641
 2078TIP3   OH227648   0.324   4.768  10.555  0.4701 -0.3299 -0.8923
 2078TIP3    H127649   0.409   4.812  10.556  0.3524 -0.0895 -1.3137
 2078TIP3    H227650   0.291   4.777  10.645  0.0274  1.2810 -1.1986
 2079TIP3   OH227651   6.705   6.169  11.262  0.9716  0.0584 -0.4388
 2079TIP3    H127652   6.623   6.143  11.304  0.4358 -1.5127 -2.3786
 2079TIP3    H227653   6.697   6.138  11.172  2.5344  2.4456 -1.4387
 2080TIP3   OH227654   2.294   3.099  13.297 -0.0800 -0.1618  0.4181
 2080TIP3    H127655   2.221   3.145  13.339  0.1165 -0.7933  1.4763
 2080TIP3    H227656   2.303   3.018  13.347  0.4203 -0.7498 -0.6105
 2081TIP3   OH227657   0.245   6.568   1.763 -0.0927  0.5023 -0.6883
 2081TIP3    H127658   0.248   6.473   1.778  1.2707  0.4789 -1.0857
 2081TIP3    H227659   0.336   6.594   1.751 -0.5779  1.6542 -2.0029
 2082TIP3   OH227660   2.208   2.503   0.664 -0.0266 -0.5449  0.0143
 2082TIP3    H127661   2.182   2.422   0.620  2.9976 -1.5171 -0.0637
 2082TIP3    H227662   2.258   2.474   0.740 -1.9581  1.2112  2.0130
 2083TIP3   OH227663   6.349   4.323  15.767  0.2085 -0.2400  0.0254
 2083TIP3    H127664   6.402   4.386  15.816  1.2301  0.1078 -1.5085
 2083TIP3    H227665   6.398   4.241  15.774  1.1714  0.1671 -1.7088
 2084TIP3   OH227666   3.385   0.747   4.025  0.9500  0.6392  0.5987
 2084TIP3    H127667   3.330   0.705   4.091  0.3127  1.7621  0.8092
 2084TIP3    H227668   3.411   0.676   3.966 -0.7067  0.0812  0.5139
 2085TIP3   OH227669   1.181   6.666  12.580  0.0105 -0.1625  0.6259
 2085TIP3    H127670   1.216   6.667  12.669 -0.6699  1.5510  0.8782
 2085TIP3    H227671   1.241   6.609  12.532  3.0103  2.5027  1.1060
 2086TIP3   OH227672   0.038   3.078   2.534 -0.0149 -0.2015  0.1269
 2086TIP3    H127673   0.054   2.983   2.535 -1.8412 -0.5239  0.3435
 2086TIP3    H227674   0.032   3.102   2.626 -2.2106 -0.3615  0.0402
 2087TIP3   OH227675   2.578   0.427   2.519  0.0389 -0.7892 -0.3729
 2087TIP3    H127676   2.512   0.477   2.471  1.8566  1.4717 -0.6206
 2087TIP3    H227677   2.645   0.405   2.453  1.5214  0.5143  0.6573
 2088TIP3   OH227678   3.471   4.065  12.977 -0.1652 -0.7254  0.0185
 2088TIP3    H127679   3.380   4.036  12.971 -0.3867  0.1125 -0.7494
 2088TIP3    H227680   3.505   4.057  12.889  0.2467 -0.2076  0.1238
 2089TIP3   OH227681   4.906   4.093   4.372 -0.2836  0.0033  0.3949
 2089TIP3    H127682   4.887   4.067   4.281 -0.3089 -0.7648  0.6112
 2089TIP3    H227683   4.857   4.173   4.385  1.4766  1.3672 -0.9924
 2090TIP3   OH227684   3.370   4.470   2.473  0.0102  1.0566 -0.0675
 2090TIP3    H127685   3.305   4.403   2.453 -0.4151  2.6874 -4.7892
 2090TIP3    H227686   3.320   4.542   2.513 -0.9830  1.8683 -2.6942
 2091TIP3   OH227687   2.524   4.760   1.893  0.1802 -0.0840 -0.5586
 2091TIP3    H127688   2.611   4.796   1.910 -0.0775  0.1844  0.2112
 2091TIP3    H227689   2.464   4.833   1.908 -0.4556 -1.1254  2.3485
 2092TIP3   OH227690   6.253   2.896  15.198  0.3979 -0.0743 -0.6784
 2092TIP3    H127691   6.288   2.983  15.217  1.0263 -0.1709 -1.3723
 2092TIP3    H227692   6.190   2.879  15.268  1.0533  0.4903  0.0437
 2093TIP3   OH227693   3.420   3.814   0.672  0.5649 -0.8691  0.3942
 2093TIP3    H127694   3.488   3.847   0.730  0.3586  1.6625 -0.7106
 2093TIP3    H227695   3.338   3.846   0.711  0.1840 -2.0563  0.5613
 2094TIP3   OH227696   4.996   2.867  12.076 -0.0004 -0.0328  0.9093
 2094TIP3    H127697   5.064   2.882  12.010 -0.1946 -0.6931  0.5593
 2094TIP3    H227698   4.980   2.954  12.113  1.0159  0.1324  0.9777
 2095TIP3   OH227699   3.786   2.843   1.202 -0.5550  0.7957 -0.0231
 2095TIP3    H127700   3.858   2.902   1.183 -0.6796  0.7412 -0.6661
 2095TIP3    H227701   3.770   2.797   1.120 -2.1283  1.6735 -0.2232
 2096TIP3   OH227702   5.990   0.936   4.768  0.3675 -0.3832 -0.0978
 2096TIP3    H127703   5.964   1.022   4.734  0.8228 -0.2339 -0.0666
 2096TIP3    H227704   5.934   0.923   4.845  2.8913  1.5802  2.1846
 2097TIP3   OH227705   4.261   0.765   5.679 -0.4402  0.2196  0.6673
 2097TIP3    H127706   4.277   0.756   5.773  1.7714  0.9487  0.3985
 2097TIP3    H227707   4.218   0.850   5.671  0.4892  0.7208  0.9163
 2098TIP3   OH227708   0.796   2.874  16.470  0.0965  0.4716  0.4309
 2098TIP3    H127709   0.842   2.874  16.554 -0.5941 -1.8079  0.8256
 2098TIP3    H227710   0.716   2.924  16.487 -0.7294 -1.2068  1.5279
 2099TIP3   OH227711   5.468   2.100   3.779 -0.1951  0.0176 -0.5660
 2099TIP3    H127712   5.503   2.101   3.868 -2.2050  0.2341  0.2481
 2099TIP3    H227713   5.482   2.011   3.749 -0.7491 -0.4400  0.4973
 2100TIP3   OH227714   2.593   2.587  13.445 -0.6381  0.1080 -0.2322
 2100TIP3    H127715   2.666   2.626  13.493 -0.3561  0.4428 -0.9260
 2100TIP3    H227716   2.635   2.522  13.388 -0.7636  0.9514 -1.3188
 2101TIP3   OH227717   0.468   2.047  12.967  0.9554 -0.1467 -0.2485
 2101TIP3    H127718   0.481   2.021  13.058  2.0502  1.0345 -0.0639
 2101TIP3    H227719   0.467   1.964  12.919 -0.3363 -0.8376  0.8989
 2102TIP3   OH227720   0.073   4.597  12.617  0.8309  0.6015 -0.2268
 2102TIP3    H127721   0.108   4.536  12.682 -3.5312 -0.2300  1.5206
 2102TIP3    H227722   0.042   4.541  12.546 -1.4163  0.8614  0.5112
 2103TIP3   OH227723   0.453   2.055  11.233 -0.4409 -0.2516  0.0515
 2103TIP3    H127724   0.530   2.071  11.288 -0.6455  0.7210  0.0617
 2103TIP3    H227725   0.477   1.980  11.179 -0.5464 -1.7500  2.0571
 2104TIP3   OH227726   0.576   2.355  12.216 -0.4138  0.2248  0.1546
 2104TIP3    H127727   0.575   2.411  12.139  1.3601  1.1255  0.7546
 2104TIP3    H227728   0.532   2.407  12.284  1.0728  0.8397  0.6626
 2105TIP3   OH227729   4.834   6.745  16.341 -0.0896 -0.7386  1.0620
 2105TIP3    H127730   4.874   6.831  16.355  1.1231 -1.3826  1.5536
 2105TIP3    H227731   4.827   6.708  16.429  2.1722 -2.3901  0.5649
 2106TIP3   OH227732   4.588   4.884   4.457  0.4250  0.0197 -0.2348
 2106TIP3    H127733   4.615   4.881   4.548 -0.2507  0.7145 -0.0065
 2106TIP3    H227734   4.540   4.803   4.443 -0.1153  0.2575  0.2366
 2107TIP3   OH227735   5.792   6.382  14.870  0.8098  0.1581  0.8681
 2107TIP3    H127736   5.745   6.454  14.911  0.8708 -0.0054  1.2288
 2107TIP3    H227737   5.744   6.304  14.895 -0.5432  0.2439 -1.3340
 2108TIP3   OH227738   5.097   2.129   2.391  0.4696 -0.1911 -0.1918
 2108TIP3    H127739   5.186   2.142   2.425 -0.1510  1.1810  0.9620
 2108TIP3    H227740   5.107   2.138   2.296  1.5842 -0.1504 -0.0804
 2109TIP3   OH227741   2.111   3.069  15.341 -0.4900 -0.4523  0.2241
 2109TIP3    H127742   2.020   3.077  15.368 -0.7220 -1.3871 -0.2742
 2109TIP3    H227743   2.108   3.020  15.259  0.3487  0.7853 -0.5718
 2110TIP3   OH227744   0.025   5.268   5.959  0.0061 -0.0913  0.2515
 2110TIP3    H127745  -0.018   5.317   6.029 -0.3197  0.4488 -0.3272
 2110TIP3    H227746   0.118   5.289   5.968 -0.0427  0.0251  0.4795
 2111TIP3   OH227747   4.535   6.191  15.826 -0.2005 -0.2612  0.4281
 2111TIP3    H127748   4.594   6.249  15.874 -0.1747  0.6722 -0.6891
 2111TIP3    H227749   4.462   6.175  15.886 -1.3709  2.8549 -0.0426
 2112TIP3   OH227750   6.604   1.569   0.168  0.5611 -0.0890  0.2904
 2112TIP3    H127751   6.609   1.489   0.117  1.8308  0.3731 -0.3245
 2112TIP3    H227752   6.518   1.606   0.147 -0.3831 -1.6894  1.2248
 2113TIP3   OH227753   3.287   0.299  12.787  0.4227 -0.1874  0.2612
 2113TIP3    H127754   3.378   0.327  12.775 -0.0780  1.0156 -0.8768
 2113TIP3    H227755   3.293   0.207  12.811  1.9301 -0.2152 -0.1761
 2114TIP3   OH227756   1.292   2.619   4.923 -0.1903 -0.4398 -0.2717
 2114TIP3    H127757   1.305   2.713   4.925  2.6452 -0.7855 -0.6211
 2114TIP3    H227758   1.322   2.589   5.009  0.0782 -1.1724 -0.6161
 2115TIP3   OH227759   1.060   1.325  15.257  0.4962  1.1192 -0.1219
 2115TIP3    H127760   1.095   1.259  15.197  0.8131  2.8721 -1.9416
 2115TIP3    H227761   1.124   1.329  15.328  0.9072  0.0737 -0.4277
 2116TIP3   OH227762   3.271   4.367  13.133 -0.2501  0.1665 -0.2554
 2116TIP3    H127763   3.331   4.331  13.198  1.0807  1.3187 -0.8244
 2116TIP3    H227764   3.319   4.364  13.051 -1.6487 -0.5941 -1.0726
 2117TIP3   OH227765   0.797   3.985   6.243  0.1889 -0.3655 -0.2685
 2117TIP3    H127766   0.744   4.063   6.254  1.4171  0.5651 -0.8054
 2117TIP3    H227767   0.736   3.912   6.255 -1.0881  0.6704 -0.4031
 2118TIP3   OH227768   0.278   2.543   4.292  0.8114 -0.4844 -0.0108
 2118TIP3    H127769   0.260   2.476   4.226  1.6299 -1.1111  0.3946
 2118TIP3    H227770   0.232   2.621   4.260 -1.6100 -1.7020  0.4109
 2119TIP3   OH227771   4.843   1.310  15.594 -0.3804 -0.5266 -0.3174
 2119TIP3    H127772   4.841   1.292  15.500  0.7479 -0.3593 -0.3801
 2119TIP3    H227773   4.891   1.236  15.632 -1.3113 -0.8696  0.1959
 2120TIP3   OH227774   6.234   0.616   3.919  0.1066 -0.3580 -0.8610
 2120TIP3    H127775   6.141   0.623   3.939 -0.1885 -2.7379 -1.2358
 2120TIP3    H227776   6.278   0.666   3.989 -1.3689 -0.5362  0.2124
 2121TIP3   OH227777   5.944   2.606   6.019  0.7121 -0.0608 -0.1030
 2121TIP3    H127778   5.945   2.535   6.083 -2.4520 -1.3928 -1.4456
 2121TIP3    H227779   5.985   2.680   6.065 -0.0371 -1.4237  2.8772
 2122TIP3   OH227780   2.824   3.295   6.788 -0.3660 -0.1207 -0.2440
 2122TIP3    H127781   2.888   3.227   6.766 -0.9538 -1.2919  1.5843
 2122TIP3    H227782   2.857   3.373   6.744  1.0902 -1.2352 -1.2064
 2123TIP3   OH227783   3.038   0.216  11.741 -0.6956  0.0873  0.5163
 2123TIP3    H127784   3.057   0.127  11.769  0.3266 -0.2156 -1.0708
 2123TIP3    H227785   3.089   0.271  11.800  0.2393 -0.4763  0.2533
 2124TIP3   OH227786   1.108   2.089   5.694 -0.2799 -0.1960  0.0469
 2124TIP3    H127787   1.196   2.124   5.685 -0.0751 -0.4194  1.0951
 2124TIP3    H227788   1.097   2.074   5.788 -0.7480 -1.9455 -0.2594
 2125TIP3   OH227789   5.641   4.816  16.358  0.1222  0.9616  0.5845
 2125TIP3    H127790   5.724   4.769  16.352 -0.0818  0.6242  0.3962
 2125TIP3    H227791   5.574   4.748  16.348 -0.1737  1.3222  0.1097
 2126TIP3   OH227792   3.712   5.788  16.182  0.1964 -0.0670  0.0200
 2126TIP3    H127793   3.656   5.724  16.138 -0.4209  0.4159  0.1037
 2126TIP3    H227794   3.800   5.751  16.174  0.0426 -0.1951 -1.2634
 2127TIP3   OH227795   4.403   3.266  12.405 -0.5956 -0.2980  0.0626
 2127TIP3    H127796   4.413   3.212  12.483 -0.3175  1.4719  1.2775
 2127TIP3    H227797   4.330   3.325  12.426  0.9986  1.7552 -0.0887
 2128TIP3   OH227798   3.371   0.522   5.219 -0.7497 -0.2449  0.3618
 2128TIP3    H127799   3.324   0.439   5.210 -0.1145 -0.6421  0.7228
 2128TIP3    H227800   3.460   0.498   5.243  0.0585  0.4536 -1.8119
 2129TIP3   OH227801   1.289   1.667   1.448 -0.5113 -0.6536 -0.3122
 2129TIP3    H127802   1.270   1.753   1.412  2.1729 -0.0721 -0.4039
 2129TIP3    H227803   1.332   1.620   1.377  1.9106 -0.5946  1.0700
 2130TIP3   OH227804   4.032   5.067   5.080 -0.3547  0.4309  0.5240
 2130TIP3    H127805   4.018   5.102   5.168 -0.2652  0.1420  0.6554
 2130TIP3    H227806   4.012   4.974   5.088 -0.0307  0.3397  0.3160
 2131TIP3   OH227807   5.207   3.068  14.976  0.3946 -0.3443 -0.4110
 2131TIP3    H127808   5.294   3.071  14.937  0.1778  1.8293 -0.8023
 2131TIP3    H227809   5.148   3.066  14.901  0.0969 -0.8806 -0.1581
 2132TIP3   OH227810   5.122   6.279  14.131  0.3234  0.2952 -0.0348
 2132TIP3    H127811   5.182   6.223  14.081  1.6078  0.8521  0.8582
 2132TIP3    H227812   5.152   6.272  14.222 -0.8361  0.7516  0.3912
 2133TIP3   OH227813   4.227   0.415  15.186 -0.2702 -0.3711 -0.3574
 2133TIP3    H127814   4.274   0.359  15.124 -0.1669 -1.0581  0.3308
 2133TIP3    H227815   4.253   0.504  15.162  1.8024 -0.7510  0.2911
 2134TIP3   OH227816   3.402   2.178  15.373 -0.4589 -0.1825  0.3205
 2134TIP3    H127817   3.476   2.163  15.313  0.1177  2.8193  0.2254
 2134TIP3    H227818   3.326   2.147  15.324  0.5511 -2.0470 -0.1255
 2135TIP3   OH227819   5.173   6.489   0.259  0.1496  0.1284 -0.3562
 2135TIP3    H127820   5.088   6.446   0.268 -0.8355  2.1618  0.5301
 2135TIP3    H227821   5.152   6.578   0.229  2.0131  0.4157 -0.8876
 2136TIP3   OH227822   2.228   2.440   2.143 -0.2511  0.3542  0.3088
 2136TIP3    H127823   2.254   2.522   2.101 -0.7164 -0.1057 -0.8870
 2136TIP3    H227824   2.255   2.451   2.234  3.5891  0.1150 -0.7250
 2137TIP3   OH227825   3.318   3.389   4.231  0.5167 -0.3579  0.2081
 2137TIP3    H127826   3.398   3.430   4.264  1.5521 -0.8180 -1.6535
 2137TIP3    H227827   3.348   3.312   4.183 -1.0162 -0.3564 -0.7997
 2138TIP3   OH227828   4.033   6.200  12.645 -0.6319  0.4169  0.8256
 2138TIP3    H127829   4.071   6.269  12.589  1.3629 -0.0816  1.5097
 2138TIP3    H227830   3.970   6.156  12.589  0.1175  1.0075 -0.5191
 2139TIP3   OH227831   0.758   5.361   1.658  0.1173  0.4377  0.0583
 2139TIP3    H127832   0.754   5.295   1.590  1.6385 -0.9192  1.2562
 2139TIP3    H227833   0.842   5.405   1.644 -0.8244  2.0544 -0.6516
 2140TIP3   OH227834   2.337   4.975  15.806 -0.0041  0.1561 -0.0605
 2140TIP3    H127835   2.355   4.885  15.779  1.0370  0.7268 -1.3011
 2140TIP3    H227836   2.302   4.966  15.895  0.0050 -1.4746 -0.1955
 2141TIP3   OH227837   1.117   5.589  16.183  0.1079  0.2421  0.0545
 2141TIP3    H127838   1.117   5.643  16.262  1.5484 -0.5623  0.6242
 2141TIP3    H227839   1.130   5.650  16.111  1.3011  0.7048  0.6589
 2142TIP3   OH227840   5.901   0.837   2.638  0.0931 -0.2025  0.0758
 2142TIP3    H127841   5.846   0.768   2.601 -0.9322  1.6162 -1.9164
 2142TIP3    H227842   5.867   0.918   2.600  2.7491  1.1908  0.5371
 2143TIP3   OH227843   4.083   3.984  10.334  0.2252  0.0409 -0.3199
 2143TIP3    H127844   4.015   4.052  10.338  0.3428  0.1514 -0.1875
 2143TIP3    H227845   4.072   3.935  10.415 -0.0535 -0.2859 -0.5548
 2144TIP3   OH227846   5.385   1.813   0.739  0.0118 -0.0417  0.4165
 2144TIP3    H127847   5.384   1.843   0.648 -0.6184  1.9353  1.0496
 2144TIP3    H227848   5.295   1.786   0.757  0.7761 -3.3617 -0.4455
 2145TIP3   OH227849   0.961   4.779   3.051 -0.3407 -0.6085  0.2823
 2145TIP3    H127850   1.021   4.706   3.067 -0.8361 -0.7265  1.7719
 2145TIP3    H227851   0.990   4.847   3.113  0.3826  0.6324 -1.3872
 2146TIP3   OH227852   4.142   4.747   1.656  0.4871 -0.6843  0.1275
 2146TIP3    H127853   4.050   4.721   1.649  0.6951 -1.1290 -1.2031
 2146TIP3    H227854   4.152   4.818   1.593  0.9739 -0.4121  0.5075
 2147TIP3   OH227855   5.062   3.855  15.481  0.1373 -0.3730  0.1481
 2147TIP3    H127856   4.982   3.839  15.431  1.1646 -3.4467 -0.6155
 2147TIP3    H227857   5.080   3.771  15.524  1.9531  0.8290  1.7799
 2148TIP3   OH227858   2.092   6.186   5.139 -0.0014 -0.1810  0.2843
 2148TIP3    H127859   2.045   6.269   5.141 -0.6743 -0.6090  2.2971
 2148TIP3    H227860   2.172   6.203   5.190  0.9189 -0.1662 -1.1083
 2149TIP3   OH227861   3.529   1.568  15.191  0.0066 -0.3822  0.1181
 2149TIP3    H127862   3.531   1.638  15.257 -2.7408 -0.8051  0.7360
 2149TIP3    H227863   3.512   1.613  15.109  1.3296 -0.0414  0.0300
 2150TIP3   OH227864   4.484   3.759  15.527 -0.1431  0.5580 -0.0611
 2150TIP3    H127865   4.394   3.726  15.528  0.1093 -0.1305  0.1075
 2150TIP3    H227866   4.478   3.845  15.568 -0.5212 -0.0237  1.1230
 2151TIP3   OH227867   0.949   2.865   1.069  0.0760 -0.1084  0.1836
 2151TIP3    H127868   0.927   2.860   0.976 -0.2774 -0.3856  0.2808
 2151TIP3    H227869   1.042   2.891   1.070  0.1774 -0.4420 -0.2480
 2152TIP3   OH227870   0.253   3.288  14.658 -0.4933 -0.5642 -0.1014
 2152TIP3    H127871   0.310   3.262  14.730 -0.6955 -2.1077 -0.4932
 2152TIP3    H227872   0.313   3.298  14.583 -0.6096 -1.2626 -0.2867
 2153TIP3   OH227873   2.324   0.041  15.117  0.7991  0.4627 -0.1430
 2153TIP3    H127874   2.385   0.086  15.059  2.6738 -1.3603  0.3935
 2153TIP3    H227875   2.346  -0.051  15.110 -0.9462 -0.0896  1.1823
 2154TIP3   OH227876   0.109   3.808   0.227 -0.7599  0.1737  0.2933
 2154TIP3    H127877   0.148   3.725   0.254  1.0641  0.9905  0.2710
 2154TIP3    H227878   0.096   3.857   0.308 -1.4349  0.0499  0.2658
 2155TIP3   OH227879   4.487   0.371  13.604 -0.5557  0.6403  0.0877
 2155TIP3    H127880   4.468   0.279  13.588 -0.3531  0.7519 -0.8595
 2155TIP3    H227881   4.415   0.418  13.560  0.4517  0.9864 -1.2302
 2156TIP3   OH227882   5.585   0.418  13.842  0.1719  0.6782  0.0276
 2156TIP3    H127883   5.551   0.329  13.837  0.9349  0.1360  3.3375
 2156TIP3    H227884   5.649   0.415  13.913 -0.2813  4.0432  0.6563
 2157TIP3   OH227885   5.839   3.732  14.706 -0.9664  0.3577  0.0782
 2157TIP3    H127886   5.838   3.783  14.787 -0.9737 -1.4939  1.2696
 2157TIP3    H227887   5.754   3.750  14.666 -0.3711  2.4549 -0.2908
 2158TIP3   OH227888   5.007   4.760  17.011 -0.3200 -0.2168 -0.1906
 2158TIP3    H127889   5.007   4.848  16.973  0.9754  0.0919  0.5056
 2158TIP3    H227890   5.094   4.726  16.993 -1.1833 -1.8330 -1.4946
 2159TIP3   OH227891   3.614   2.352   2.799  0.3587  0.4390 -0.4674
 2159TIP3    H127892   3.539   2.381   2.746  1.8648 -0.2464 -3.0907
 2159TIP3    H227893   3.680   2.420   2.784  0.4054  0.8429  1.5222
 2160TIP3   OH227894   5.279   3.963   0.909 -0.4628 -0.7903 -0.0055
 2160TIP3    H127895   5.267   3.965   0.814  1.8495 -0.1264 -0.3129
 2160TIP3    H227896   5.205   4.014   0.944  0.1962  1.3177 -1.6245
 2161TIP3   OH227897   0.930   5.066   1.918  0.2273  0.3909  0.2138
 2161TIP3    H127898   0.934   5.065   2.014  1.2397  0.1208  0.1781
 2161TIP3    H227899   0.898   4.980   1.894  0.2597  0.3543  0.3013
 2162TIP3   OH227900   6.319   6.574  16.845  0.2654 -0.0640 -0.0194
 2162TIP3    H127901   6.356   6.662  16.834 -1.5505  0.6142 -0.8963
 2162TIP3    H227902   6.351   6.545  16.931 -0.3937  2.0904  0.9767
 2163TIP3   OH227903   1.307   0.599  10.909 -0.2326  0.9495  0.7350
 2163TIP3    H127904   1.381   0.589  10.970 -0.2366 -0.9276  0.4720
 2163TIP3    H227905   1.346   0.589  10.822 -1.2613 -4.0371  0.6740
 2164TIP3   OH227906   0.686   1.264  13.162  0.2080  0.0990 -0.2048
 2164TIP3    H127907   0.651   1.259  13.073  0.1676 -0.0771 -0.1790
 2164TIP3    H227908   0.780   1.275  13.150  0.2257 -0.1163 -0.2679
 2165TIP3   OH227909   0.531   0.422   2.274 -0.4176 -0.2024  0.1727
 2165TIP3    H127910   0.618   0.416   2.235 -1.2953 -0.1016 -1.8223
 2165TIP3    H227911   0.500   0.331   2.277 -0.4590 -0.1814  0.4453
 2166TIP3   OH227912   6.276   3.389   6.382  0.1381 -0.5759 -0.0555
 2166TIP3    H127913   6.363   3.413   6.413  0.3483 -0.9854 -0.3186
 2166TIP3    H227914   6.250   3.315   6.436  1.2041 -2.3658 -1.9281
 2167TIP3   OH227915   4.792   6.757   6.180 -0.0649 -0.0866  0.4917
 2167TIP3    H127916   4.746   6.676   6.157 -0.7313  0.1596  0.9439
 2167TIP3    H227917   4.737   6.797   6.247 -0.1992  1.1972 -0.3736
 2168TIP3   OH227918   5.242   3.211   4.143  0.2377  0.1648  0.1089
 2168TIP3    H127919   5.285   3.271   4.082 -0.3894 -0.8163 -1.2991
 2168TIP3    H227920   5.155   3.196   4.106  0.1828 -1.1811  0.7586
 2169TIP3   OH227921   2.811   0.121   0.430 -0.6340  0.2693 -0.3458
 2169TIP3    H127922   2.768   0.036   0.418  0.2035 -0.3351  0.8140
 2169TIP3    H227923   2.888   0.116   0.375 -0.7143  0.3690 -0.4663
 2170TIP3   OH227924   5.363   5.619  11.527  0.6914 -0.5265 -0.4785
 2170TIP3    H127925   5.277   5.608  11.567  0.1455  0.0780 -1.4742
 2170TIP3    H227926   5.418   5.555  11.572  0.0611  0.0577  1.1432
 2171TIP3   OH227927   3.933   5.014   6.300  0.0509 -0.3572  0.1505
 2171TIP3    H127928   4.013   5.008   6.247  0.5544 -0.2809  0.8930
 2171TIP3    H227929   3.899   5.101   6.282  0.0701 -0.4322 -0.2609
 2172TIP3   OH227930   5.206   4.959  10.974 -0.0713 -0.1764  0.0929
 2172TIP3    H127931   5.203   4.950  10.878  0.0459  0.1007  0.0623
 2172TIP3    H227932   5.160   5.041  10.991 -0.5779 -0.5042  0.3184
 2173TIP3   OH227933   3.461   3.992   4.521  0.3446 -0.4135 -0.7288
 2173TIP3    H127934   3.478   3.898   4.521  2.6370 -0.0407 -0.3942
 2173TIP3    H227935   3.432   4.011   4.610 -1.0803 -0.9628 -1.0805
 2174TIP3   OH227936   6.527   4.593  13.162  0.3227 -0.3608 -0.2979
 2174TIP3    H127937   6.590   4.612  13.093  0.0975  2.2343  0.1378
 2174TIP3    H227938   6.464   4.533  13.122  1.7390 -1.0797 -1.4673
 2175TIP3   OH227939   6.551   3.842   3.208 -0.2289 -0.2777 -0.2651
 2175TIP3    H127940   6.514   3.921   3.170 -0.7201 -1.1231 -1.5961
 2175TIP3    H227941   6.502   3.770   3.167  1.5183 -1.3368 -0.5666
 2176TIP3   OH227942   2.635   1.861  13.236 -0.6889 -0.5108 -0.2224
 2176TIP3    H127943   2.648   1.782  13.289  1.0649 -0.1947 -0.1561
 2176TIP3    H227944   2.722   1.881  13.201 -0.7056  2.4851  1.2984
 2177TIP3   OH227945   3.264   1.096   1.030  0.0969  0.3086 -0.2605
 2177TIP3    H127946   3.341   1.103   0.973 -0.8175 -0.3013 -1.5980
 2177TIP3    H227947   3.252   1.002   1.042  1.7056  0.4221  2.9753
 2178TIP3   OH227948   2.344   5.333  14.620 -0.1884 -0.4412 -0.0126
 2178TIP3    H127949   2.358   5.427  14.614  0.4131 -0.6657 -2.3535
 2178TIP3    H227950   2.250   5.321  14.602 -0.5097 -0.2164  1.4257
 2179TIP3   OH227951   5.459   3.378   5.634 -0.5131  0.2077 -0.7199
 2179TIP3    H127952   5.515   3.356   5.560  0.2552 -0.1527 -0.0361
 2179TIP3    H227953   5.515   3.430   5.691 -0.1166 -2.1702  1.1300
 2180TIP3   OH227954   1.416   1.280  12.541 -0.6469  0.1606 -0.0540
 2180TIP3    H127955   1.507   1.294  12.568 -0.4692 -0.8352 -0.1516
 2180TIP3    H227956   1.412   1.190  12.511 -1.3359  0.6307 -1.4370
 2181TIP3   OH227957   1.911   3.598   4.086  0.2549 -0.4430 -0.3358
 2181TIP3    H127958   1.927   3.627   3.997  0.6603  1.2512  0.2656
 2181TIP3    H227959   1.993   3.554   4.112 -0.3293 -2.0913 -1.2174
 2182TIP3   OH227960   2.076   3.676  12.545 -0.1212  0.2645  0.8490
 2182TIP3    H127961   2.066   3.664  12.640 -1.3293 -2.3472  0.4463
 2182TIP3    H227962   1.986   3.682  12.513  0.2789  0.9432 -0.1591
 2183TIP3   OH227963   5.700   6.365  12.498 -0.3989 -0.1824  0.5742
 2183TIP3    H127964   5.608   6.385  12.518 -0.2605 -1.2921  2.4552
 2183TIP3    H227965   5.722   6.294  12.558  2.2473  1.3153  1.4161
 2184TIP3   OH227966   0.644   2.869   0.259 -0.0888 -0.2349  0.5433
 2184TIP3    H127967   0.694   2.823   0.192  0.0940  0.3876  0.2503
 2184TIP3    H227968   0.709   2.919   0.308 -0.5243  1.4651 -0.5532
 2185TIP3   OH227969   5.846   0.910  13.933 -0.2464  0.3659  0.4554
 2185TIP3    H127970   5.788   0.901  13.857 -0.0573  0.5857  0.2878
 2185TIP3    H227971   5.911   0.975  13.907  1.2616 -1.3342 -0.0711
 2186TIP3   OH227972   3.918   3.571  14.457 -0.4235 -0.4276 -0.1243
 2186TIP3    H127973   3.833   3.541  14.489 -0.9213  0.1129 -0.9145
 2186TIP3    H227974   3.902   3.660  14.425  0.6786  0.0854  0.7117
 2187TIP3   OH227975   0.208   4.805   1.855  0.0547 -0.1025  0.6137
 2187TIP3    H127976   0.166   4.871   1.801 -0.6993 -2.2171 -1.4739
 2187TIP3    H227977   0.169   4.816   1.942  0.3221  2.4830  0.4471
 2188TIP3   OH227978   5.521   2.679  12.716  0.5989  0.1748 -0.5978
 2188TIP3    H127979   5.478   2.681  12.801 -1.8149 -1.6729 -1.7443
 2188TIP3    H227980   5.609   2.646  12.734  0.0605 -0.3380  1.1465
 2189TIP3   OH227981   3.934   4.920  14.536  0.0549 -0.3521  0.0584
 2189TIP3    H127982   3.916   4.995  14.480  1.9365 -0.7731 -1.1242
 2189TIP3    H227983   4.019   4.939  14.575  0.6411 -1.9592 -0.4119
 2190TIP3   OH227984   6.676   0.608  15.723  0.0603  0.7094 -0.7379
 2190TIP3    H127985   6.759   0.573  15.757  0.3650 -0.0704 -2.2382
 2190TIP3    H227986   6.609   0.567  15.777  0.5886  0.2745 -0.4058
 2191TIP3   OH227987   2.933   0.451  16.744  0.3316  0.4953  0.2271
 2191TIP3    H127988   2.879   0.408  16.677  0.1950 -1.7916  1.7631
 2191TIP3    H227989   3.017   0.466  16.702  0.2250 -0.8624 -0.4782
 2192TIP3   OH227990   4.232   2.539   1.068 -0.2516 -0.3171  0.0530
 2192TIP3    H127991   4.197   2.626   1.048  1.5650 -0.1054 -2.4513
 2192TIP3    H227992   4.295   2.554   1.138  0.0509  0.3919 -0.3638
 2193TIP3   OH227993   4.520   6.054   5.553  0.3520  0.4993  0.0573
 2193TIP3    H127994   4.602   6.053   5.504  0.9412 -0.4120  1.0220
 2193TIP3    H227995   4.542   6.100   5.635 -0.4418  1.4259 -0.2413
 2194TIP3   OH227996   5.382   5.237  14.875  0.0705 -0.1964  0.1808
 2194TIP3    H127997   5.301   5.285  14.886 -1.4569 -3.0739  2.1035
 2194TIP3    H227998   5.395   5.234  14.780 -0.8219  2.2272 -0.0494
 2195TIP3   OH227999   6.664   5.270  12.781  0.0946  0.0023 -0.3202
 2195TIP3    H128000   6.746   5.302  12.744  0.8243 -0.6540  0.7141
 2195TIP3    H228001   6.598   5.293  12.716  1.1860 -0.0194 -1.4553
 2196TIP3   OH228002   3.916   3.216   0.948  0.8310  0.3819 -0.0055
 2196TIP3    H128003   3.857   3.288   0.971  2.1558  1.5987 -0.3836
 2196TIP3    H228004   3.981   3.215   1.018  0.7477 -0.5515  0.0700
 2197TIP3   OH228005   2.062   3.296  10.975 -0.0851  0.2693 -0.0087
 2197TIP3    H128006   1.986   3.246  10.946 -0.6399  1.2004 -0.1726
 2197TIP3    H228007   2.119   3.300  10.898 -0.9019  1.5036 -0.5666
 2198TIP3   OH228008   5.770   5.102   1.290 -0.6979 -0.3992 -0.0250
 2198TIP3    H128009   5.685   5.062   1.305 -1.4872  0.7803 -1.2570
 2198TIP3    H228010   5.757   5.159   1.215  1.0785  0.1220  0.0359
 2199TIP3   OH228011   6.731   4.123  15.080  0.0450  0.7433 -0.3131
 2199TIP3    H128012   6.714   4.179  15.005 -3.0172  2.3895  1.5329
 2199TIP3    H228013   6.825   4.104  15.075  0.6148  3.8089 -2.5016
 2200TIP3   OH228014   5.365   1.651   2.149 -0.4545 -0.5209  0.5033
 2200TIP3    H128015   5.413   1.578   2.189 -0.9310 -1.2384 -0.2120
 2200TIP3    H228016   5.291   1.609   2.104 -0.4777  0.3664 -0.3017
 2201TIP3   OH228017   0.540   1.418   2.375  0.6139  0.8426 -0.0719
 2201TIP3    H128018   0.510   1.336   2.335  0.0227  0.4701  1.1114
 2201TIP3    H228019   0.514   1.411   2.467  0.8408  2.2286  0.1096
 2202TIP3   OH228020   2.975   2.940  14.419  0.2960  0.8382  0.4407
 2202TIP3    H128021   2.950   2.930  14.511 -0.9419 -0.0064  0.0304
 2202TIP3    H228022   3.020   2.858  14.398  0.0787  0.7975  0.1351
 2203TIP3   OH228023   5.574   5.358  16.438  0.1109  0.5343  0.2153
 2203TIP3    H128024   5.520   5.419  16.489  0.1157  0.4704  0.2979
 2203TIP3    H228025   5.621   5.413  16.376  2.0389  0.8911  1.9611
 2204TIP3   OH228026   5.577   6.295   0.769  0.2353 -0.3736  0.3318
 2204TIP3    H128027   5.587   6.307   0.674  0.9152 -0.0844  0.4315
 2204TIP3    H228028   5.541   6.378   0.800  2.1332  0.3820  0.6187
 2205TIP3   OH228029   5.140   2.926   6.130  0.7873 -0.4745 -0.0826
 2205TIP3    H128030   5.046   2.926   6.151  0.2796 -1.7669 -2.3003
 2205TIP3    H228031   5.173   2.844   6.166  0.7071 -0.8718 -0.9220
 2206TIP3   OH228032   1.504   0.672  13.043  0.1291 -0.0411  0.3181
 2206TIP3    H128033   1.579   0.644  13.095 -0.2027 -0.5750  0.5089
 2206TIP3    H228034   1.436   0.607  13.061 -0.0794 -0.0718 -0.5551
 2207TIP3   OH228035   0.238   5.715   2.474  0.1926  0.3604  0.1545
 2207TIP3    H128036   0.263   5.808   2.469 -3.8291  1.6116  1.6446
 2207TIP3    H228037   0.146   5.713   2.449 -0.0553 -3.1469  1.0572
 2208TIP3   OH228038   4.422   1.314  10.909 -0.1087 -0.8330  0.0282
 2208TIP3    H128039   4.456   1.254  10.843  0.5461 -1.6511  1.0902
 2208TIP3    H228040   4.328   1.295  10.912  0.0737 -1.7453  0.2838
 2209TIP3   OH228041   5.088   5.815  15.414  0.0874 -0.2067 -0.5229
 2209TIP3    H128042   4.993   5.813  15.401  0.1802 -0.7897 -1.1291
 2209TIP3    H228043   5.105   5.743  15.475  0.1142  0.0176 -0.2685
 2210TIP3   OH228044   0.857   6.107   4.503 -0.6548  0.1117 -0.4376
 2210TIP3    H128045   0.903   6.168   4.445 -1.4887  0.7517 -0.4474
 2210TIP3    H228046   0.910   6.105   4.583  0.4323 -0.6860 -1.1836
 2211TIP3   OH228047   4.708   0.588   0.645  0.8583  0.6610  0.4753
 2211TIP3    H128048   4.633   0.646   0.630  0.2377 -0.5089 -1.0763
 2211TIP3    H228049   4.780   0.648   0.666 -0.1616  1.8946  0.5548
 2212TIP3   OH228050   4.532   2.833   6.069 -0.2801  0.0996  0.3430
 2212TIP3    H128051   4.581   2.881   6.135 -1.0195  0.3743  0.7031
 2212TIP3    H228052   4.441   2.840   6.097 -0.4096 -1.4322  0.3284
 2213TIP3   OH228053   5.448   6.373  15.985 -0.0927  0.2910  0.6706
 2213TIP3    H128054   5.431   6.363  16.079  1.2334 -0.3540  0.8545
 2213TIP3    H228055   5.460   6.284  15.953 -2.2618  0.3817 -0.4645
 2214TIP3   OH228056   2.432   1.596  16.770 -0.6369 -0.0925 -0.2094
 2214TIP3    H128057   2.401   1.506  16.764 -1.8020  0.2983 -0.1293
 2214TIP3    H228058   2.366   1.648  16.724 -0.1910  0.7612  0.0977
 2215TIP3   OH228059   1.898   3.759  16.386  0.2277  0.0891 -0.1943
 2215TIP3    H128060   1.937   3.763  16.299  1.2930  0.9168  0.3091
 2215TIP3    H228061   1.804   3.772  16.371  0.2750 -0.7569 -1.2995
 2216TIP3   OH228062   0.685   1.538   2.832 -0.3697 -0.0184 -0.1745
 2216TIP3    H128063   0.671   1.444   2.842 -0.4147  0.0564  0.4369
 2216TIP3    H228064   0.602   1.578   2.857 -0.0142  0.2456  0.5873
 2217TIP3   OH228065   3.210   1.768  11.604  0.2010  0.2753  0.1885
 2217TIP3    H128066   3.123   1.796  11.576 -0.1640 -2.0217 -1.1646
 2217TIP3    H228067   3.228   1.819  11.682 -3.3343 -0.7969  1.8186
 2218TIP3   OH228068   2.618   3.676   3.682  0.5259 -0.3747 -0.1610
 2218TIP3    H128069   2.553   3.635   3.739 -0.8392  0.9383 -0.7608
 2218TIP3    H228070   2.618   3.622   3.603  0.2487 -0.4512 -0.1095
 2219TIP3   OH228071   4.304   1.201  16.340  0.3726 -0.2689  0.0333
 2219TIP3    H128072   4.257   1.284  16.347 -1.9260 -1.4208 -1.3637
 2219TIP3    H228073   4.327   1.194  16.248  1.0143 -0.9528  0.2373
 2220TIP3   OH228074   5.867   3.134   1.173 -0.2586 -0.3931 -0.0913
 2220TIP3    H128075   5.784   3.118   1.128  0.0205 -0.1047 -0.7081
 2220TIP3    H228076   5.902   3.213   1.132 -0.1513  0.0522  0.8438
 2221TIP3   OH228077   5.823   2.242   2.045 -0.8035  0.1789  0.3154
 2221TIP3    H128078   5.767   2.296   1.989 -1.0085  0.9267  1.2311
 2221TIP3    H228079   5.910   2.249   2.005 -1.1829 -0.3114 -0.6255
 2222TIP3   OH228080   3.880   4.937   5.669 -0.3554 -0.0686  0.3942
 2222TIP3    H128081   3.916   4.872   5.608 -0.6904 -0.6598  0.8216
 2222TIP3    H228082   3.787   4.941   5.647 -0.4221 -0.0700  0.6798
 2223TIP3   OH228083   6.379   4.195  14.815 -0.6527  0.0689  0.7041
 2223TIP3    H128084   6.333   4.200  14.731 -2.0464  2.5295  1.5545
 2223TIP3    H228085   6.310   4.196  14.881  0.4802 -0.1218  1.9265
 2224TIP3   OH228086   2.503   0.011   3.697 -0.3793  0.1487  0.3595
 2224TIP3    H128087   2.505  -0.074   3.652  1.2798  0.0013  0.6878
 2224TIP3    H228088   2.458   0.070   3.636  1.9209 -0.0156 -1.5532
 2225TIP3   OH228089   0.523   0.879  13.344 -0.1132 -0.5237  0.0429
 2225TIP3    H128090   0.481   0.855  13.261  0.0546 -0.3070 -0.1084
 2225TIP3    H228091   0.615   0.891  13.321 -0.3053  0.9276 -0.0295
 2226TIP3   OH228092   0.149   0.999   5.344  0.5176  0.4690 -0.2922
 2226TIP3    H128093   0.192   1.049   5.414  0.8846 -1.3278  0.7906
 2226TIP3    H228094   0.219   0.978   5.283  1.0353 -1.5055  0.9163
 2227TIP3   OH228095   0.614   6.387   3.127 -0.4636 -0.7428  0.0798
 2227TIP3    H128096   0.585   6.372   3.037 -1.7751 -0.3591  0.4359
 2227TIP3    H228097   0.645   6.477   3.128 -0.1035 -0.8622 -0.0696
 2228TIP3   OH228098   5.891   2.301   5.779 -0.5594 -0.1589  0.9385
 2228TIP3    H128099   5.800   2.329   5.785 -0.5896 -0.3998  1.7583
 2228TIP3    H228100   5.908   2.260   5.864  0.5236  0.5162  1.0550
 2229TIP3   OH228101   0.984   5.335  16.261 -0.1975  0.5334  0.3951
 2229TIP3    H128102   0.900   5.345  16.306  0.5671  3.0076  1.3775
 2229TIP3    H228103   1.013   5.425  16.244  1.3338 -0.3001 -1.7136
 2230TIP3   OH228104   6.523   3.330  13.287  0.0613  0.4422 -1.1920
 2230TIP3    H128105   6.538   3.239  13.260 -2.0221  0.4544 -2.5414
 2230TIP3    H228106   6.483   3.322  13.373 -1.1100 -0.0026 -1.7554
 2231TIP3   OH228107   5.103   6.107  16.268 -0.6095 -0.3494 -0.0247
 2231TIP3    H128108   5.093   6.034  16.328  2.2234  0.9391  2.1669
 2231TIP3    H228109   5.180   6.154  16.300 -0.6821  2.0057 -3.0164
 2232TIP3   OH228110   1.097   3.125   3.359 -0.1028 -0.2932  0.1227
 2232TIP3    H128111   1.004   3.106   3.374 -0.6162  0.1929 -2.2479
 2232TIP3    H228112   1.122   3.068   3.286  0.5980  1.8061 -1.3391
 2233TIP3   OH228113   6.060   1.366   0.943  0.4887  0.0407  0.4361
 2233TIP3    H128114   5.967   1.378   0.961  0.3008  0.8076 -0.9363
 2233TIP3    H228115   6.081   1.280   0.978 -1.0318 -0.6642 -0.3401
 2234TIP3   OH228116   4.971   2.641   0.335 -0.3774  0.0604 -0.0418
 2234TIP3    H128117   4.984   2.734   0.353  0.2716 -0.0107 -0.1374
 2234TIP3    H228118   4.972   2.599   0.420 -1.3231  0.2235  0.0485
 2235TIP3   OH228119   4.825   3.439  15.294 -0.4046  0.6056  0.8370
 2235TIP3    H128120   4.843   3.486  15.213  1.0392 -1.2069  0.0806
 2235TIP3    H228121   4.736   3.404  15.282  0.0330 -0.1510 -0.1991
 2236TIP3   OH228122   5.614   2.718   2.394  0.4993  0.2662  0.3684
 2236TIP3    H128123   5.695   2.676   2.422  0.7045  0.7067  0.4514
 2236TIP3    H228124   5.615   2.803   2.438  0.2977  0.5276 -0.1281
 2237TIP3   OH228125   6.282   2.268  16.641  0.5224  0.3640  0.1317
 2237TIP3    H128126   6.291   2.363  16.634  0.5661  0.3051 -0.7324
 2237TIP3    H228127   6.317   2.235  16.558 -1.1477 -0.2916 -0.3442
 2238TIP3   OH228128   0.654   1.419   6.081 -0.2842  0.4224  0.1230
 2238TIP3    H128129   0.745   1.439   6.060 -0.0306 -1.4152 -0.6226
 2238TIP3    H228130   0.620   1.500   6.118  2.0596  0.6870  1.8166
 2239TIP3   OH228131   1.415   6.230  17.120 -0.4245 -0.0330 -0.2497
 2239TIP3    H128132   1.339   6.283  17.145  0.1851  0.9727 -0.4706
 2239TIP3    H228133   1.444   6.268  17.037  0.4618 -0.2565 -0.0453
 2240TIP3   OH228134   3.070   6.222   2.402 -0.3680 -0.2374  0.0908
 2240TIP3    H128135   3.157   6.242   2.368 -0.4658  0.2454  0.1243
 2240TIP3    H228136   3.047   6.298   2.455 -0.3173 -0.8760  1.0447
 2241TIP3   OH228137   3.926   0.963   2.866 -0.6087  0.6902 -0.3806
 2241TIP3    H128138   3.892   0.998   2.949 -1.1373  2.8347 -1.4708
 2241TIP3    H228139   3.883   0.878   2.858  0.4231 -0.1322  2.1586
 2242TIP3   OH228140   2.538   5.398   3.234 -0.0917  0.1278  0.0715
 2242TIP3    H128141   2.507   5.313   3.263  1.1227 -0.5744 -0.6747
 2242TIP3    H228142   2.542   5.451   3.313  0.9579 -1.0665  0.8279
 2243TIP3   OH228143   6.631   4.520   4.154 -0.1476 -0.0643  0.0384
 2243TIP3    H128144   6.661   4.453   4.215  0.1758 -2.2822 -2.4768
 2243TIP3    H228145   6.708   4.542   4.102 -0.6213  1.1760 -0.1508
 2244TIP3   OH228146   6.332   2.780  17.195 -0.2458 -0.2904  0.0934
 2244TIP3    H128147   6.357   2.688  17.186  0.5948 -0.0786  0.2897
 2244TIP3    H228148   6.282   2.783  17.277 -1.6414 -0.8609 -0.7143
 2245TIP3   OH228149   6.778   1.781   0.077 -0.1588 -0.3111  0.3168
 2245TIP3    H128150   6.717   1.710   0.055  0.3178 -1.0772  1.4162
 2245TIP3    H228151   6.754   1.806   0.167  1.0631 -0.5452  0.7152
 2246TIP3   OH228152   1.296   4.488   2.703  0.3149 -0.3456 -0.1084
 2246TIP3    H128153   1.205   4.461   2.712  0.2137  0.1595  0.4419
 2246TIP3    H228154   1.340   4.447   2.778  0.3502  0.1960  0.1692
 2247TIP3   OH228155   4.279   0.953  15.770 -0.6346  0.1689 -0.1020
 2247TIP3    H128156   4.295   1.045  15.749  1.8252  0.0210  1.0013
 2247TIP3    H228157   4.243   0.955  15.859 -1.6383  0.1357 -0.5061
 2248TIP3   OH228158   3.001   6.661  13.258 -0.4633  0.6033 -0.5683
 2248TIP3    H128159   3.028   6.752  13.273  2.5395 -0.2826 -0.1944
 2248TIP3    H228160   2.906   6.662  13.268 -0.4523  3.6480 -0.3026
 2249TIP3   OH228161   1.668   5.029  15.018  0.6333  0.2373 -0.7705
 2249TIP3    H128162   1.605   5.002  14.951  0.2483 -0.6049 -0.0749
 2249TIP3    H228163   1.638   5.116  15.046  0.4719  0.3467 -1.2914
 2250TIP3   OH228164   1.988   5.031   5.913 -0.1024 -0.1453 -0.0782
 2250TIP3    H128165   1.908   5.028   5.964 -0.5872  1.1941 -0.7363
 2250TIP3    H228166   1.982   4.957   5.853  0.4359 -1.6838  1.7050
 2251TIP3   OH228167   3.650   5.303   0.028 -0.6222  0.0716 -0.8641
 2251TIP3    H128168   3.618   5.354  -0.047  0.3656 -0.7816 -1.8893
 2251TIP3    H228169   3.651   5.213  -0.004  0.9010 -0.1578 -0.1806
 2252TIP3   OH228170   4.717   4.552  13.172  0.3132  0.0577  0.4804
 2252TIP3    H128171   4.702   4.633  13.122  0.3140 -0.2729 -0.0628
 2252TIP3    H228172   4.687   4.572  13.260 -0.0074  0.5421  0.2631
 2253TIP3   OH228173   4.594   5.432   5.451 -0.4181  0.0853  0.0261
 2253TIP3    H128174   4.675   5.393   5.484 -0.7292 -0.3598  0.2696
 2253TIP3    H228175   4.525   5.374   5.484 -0.8500  0.5963  0.0164
 2254TIP3   OH228176   1.435   0.450   0.932  0.2914 -0.5718 -0.7787
 2254TIP3    H128177   1.349   0.490   0.918 -0.4266 -1.9649 -0.4387
 2254TIP3    H228178   1.485   0.472   0.854  0.1415  1.5462 -0.3020
 2255TIP3   OH228179   4.212   2.306   6.649 -0.0156 -0.0372  0.0573
 2255TIP3    H128180   4.226   2.278   6.559  0.3910  0.1531  0.0610
 2255TIP3    H228181   4.175   2.230   6.693  1.6229 -0.7568  0.2199
 2256TIP3   OH228182   4.503   1.582   1.860  0.1925 -0.0961  0.1286
 2256TIP3    H128183   4.597   1.584   1.840 -0.1829  2.0605 -1.6757
 2256TIP3    H228184   4.482   1.672   1.885 -1.1695 -0.8362  1.7289
 2257TIP3   OH228185   1.531   0.931  14.174  0.3703  0.0283  0.2488
 2257TIP3    H128186   1.592   1.003  14.192 -1.2280  1.2272  1.0068
 2257TIP3    H228187   1.448   0.975  14.156 -0.9542 -1.6659  2.0267
 2258TIP3   OH228188   0.965   6.057   1.332 -0.2246 -0.4470  0.0250
 2258TIP3    H128189   0.910   6.127   1.296 -3.4093  0.3701  5.9032
 2258TIP3    H228190   1.037   6.102   1.376  0.5773 -1.1654 -0.5219
 2259TIP3   OH228191   0.791   4.156   5.146 -0.2174  0.0156  0.0154
 2259TIP3    H128192   0.877   4.195   5.158  0.7793 -1.8529 -0.8670
 2259TIP3    H228193   0.735   4.200   5.211  1.1897  1.8118  0.0382
 2260TIP3   OH228194   1.963   3.916  11.673  0.2149  0.1564  0.3171
 2260TIP3    H128195   1.932   3.825  11.667 -0.6092  0.5221 -1.5662
 2260TIP3    H228196   1.998   3.934  11.585  1.1400  1.3848  0.9320
 2261TIP3   OH228197   3.508   0.654  15.408  0.3560 -0.1307 -0.0557
 2261TIP3    H128198   3.526   0.736  15.362  3.5283 -0.6580  0.1244
 2261TIP3    H228199   3.480   0.593  15.340 -1.7847  1.0175 -0.2217
 2262TIP3   OH228200   3.730   2.146   1.823 -0.0977  0.5083 -0.2559
 2262TIP3    H128201   3.702   2.146   1.732  0.5422 -1.3193 -0.4831
 2262TIP3    H228202   3.826   2.147   1.819 -0.0314 -1.2085  0.3368
 2263TIP3   OH228203   2.221   6.292   4.848  0.1346  0.2178  0.0000
 2263TIP3    H128204   2.230   6.371   4.900  2.6021  0.0763 -0.1141
 2263TIP3    H228205   2.131   6.294   4.815  0.0838  2.8396  0.1825
 2264TIP3   OH228206   1.526   5.662   0.922 -0.2544 -0.2905  0.3551
 2264TIP3    H128207   1.459   5.731   0.919  0.9440  0.8480 -0.9106
 2264TIP3    H228208   1.584   5.688   0.993  0.3830  0.1829 -0.3376
 2265TIP3   OH228209   0.656   4.493  15.185  0.1321 -0.4821 -0.8437
 2265TIP3    H128210   0.564   4.474  15.205 -0.3075  1.3674 -0.9896
 2265TIP3    H228211   0.705   4.421  15.225 -1.0975  0.4786  2.5600
 2266TIP3   OH228212   1.287   5.832   1.393 -0.3276  0.5800 -0.0520
 2266TIP3    H128213   1.375   5.806   1.421 -0.1657  0.8632 -0.3005
 2266TIP3    H228214   1.291   5.928   1.387 -0.9218  0.6687  0.8693
 2267TIP3   OH228215   1.577   3.894   4.841 -0.7403  0.1132  0.4121
 2267TIP3    H128216   1.539   3.977   4.813 -3.3302 -1.3253 -0.5239
 2267TIP3    H228217   1.630   3.865   4.767  0.5397  1.1292  0.9171
 2268TIP3   OH228218   2.643   2.965  16.203 -0.1247  0.6198 -0.4787
 2268TIP3    H128219   2.714   2.905  16.181  0.7117  1.1610  0.6766
 2268TIP3    H228220   2.686   3.049  16.219 -0.8649  0.6767  1.3901
 2269TIP3   OH228221   0.462   6.196  16.047 -0.3561 -0.4593 -0.0655
 2269TIP3    H128222   0.427   6.195  15.958 -2.9141  2.0305  0.8671
 2269TIP3    H228223   0.532   6.261  16.044 -2.0845  1.4428  0.3128
 2270TIP3   OH228224   0.237   5.224  16.857  0.5903  0.3947  0.0686
 2270TIP3    H128225   0.205   5.197  16.771  0.1107 -1.2373  0.7312
 2270TIP3    H228226   0.319   5.176  16.868  0.6150  0.5460  0.5389
 2271TIP3   OH228227   5.922   0.213  14.359  0.5562 -0.4286 -0.3043
 2271TIP3    H128228   5.902   0.157  14.284  1.4181  0.7803 -1.4551
 2271TIP3    H228229   6.000   0.261  14.333 -0.0435  1.1516  0.7572
 2272TIP3   OH228230   6.596   1.204  16.848 -0.0866 -0.0812 -0.0712
 2272TIP3    H128231   6.642   1.121  16.834 -1.5520 -1.2113  1.7711
 2272TIP3    H228232   6.644   1.266  16.792  2.0685 -1.7757 -0.2001
 2273TIP3   OH228233   0.997   2.871   1.417  0.3757 -0.4180  0.0926
 2273TIP3    H128234   0.927   2.862   1.482 -0.3226  0.8129 -0.4690
 2273TIP3    H228235   0.970   2.813   1.345  0.6890 -1.0823  0.5073
 2274TIP3   OH228236   4.370   2.998   4.975  0.4772  0.2773  0.0279
 2274TIP3    H128237   4.395   3.089   4.956  1.7291  0.4871  2.3762
 2274TIP3    H228238   4.275   2.997   4.968  0.5013  1.6184 -0.6813
 2275TIP3   OH228239   0.533   4.602   5.002  0.0459 -0.1624 -0.1823
 2275TIP3    H128240   0.519   4.690   5.038  0.7042  0.8110 -2.2024
 2275TIP3    H228241   0.449   4.557   5.014 -0.1208  0.5308  1.3928
 2276TIP3   OH228242   2.481   5.108   1.155 -0.3140 -0.2536  0.1320
 2276TIP3    H128243   2.418   5.036   1.146  0.8200 -0.9647 -2.5979
 2276TIP3    H228244   2.429   5.179   1.193 -2.2556 -1.4924 -0.0822
 2277TIP3   OH228245   6.404   1.704   0.078  0.4918  0.6340  0.7393
 2277TIP3    H128246   6.406   1.718  -0.017  0.0774 -0.1073  0.6215
 2277TIP3    H228247   6.312   1.684   0.098  0.9143 -1.1575  1.0098
 2278TIP3   OH228248   2.139   2.177   2.308  0.4525  0.0717 -0.2551
 2278TIP3    H128249   2.103   2.190   2.221  0.5750 -0.8425 -0.4450
 2278TIP3    H228250   2.230   2.205   2.301  0.5920 -0.4643 -0.5383
 2279TIP3   OH228251   0.577   4.301  15.722  0.3625 -0.3177  0.5411
 2279TIP3    H128252   0.640   4.262  15.783  0.5440 -0.8810  0.0131
 2279TIP3    H228253   0.570   4.392  15.749 -1.0721 -1.0238  2.6335
 2280TIP3   OH228254   5.829   1.084   5.178 -0.1635  0.0074  0.6823
 2280TIP3    H128255   5.858   1.041   5.259  0.2526  1.4215  1.2875
 2280TIP3    H228256   5.742   1.117   5.198 -0.4431 -0.4407  0.2401
 2281TIP3   OH228257   0.776   6.600  12.495 -0.4209  0.3622 -0.2913
 2281TIP3    H128258   0.782   6.506  12.477 -2.0348  0.4175 -1.1986
 2281TIP3    H228259   0.683   6.620  12.489  0.1621  2.5731 -3.0679
 2282TIP3   OH228260   3.428   3.210   2.271  0.0463  0.0979 -0.0747
 2282TIP3    H128261   3.440   3.128   2.223 -0.9466  0.1197 -0.3684
 2282TIP3    H228262   3.335   3.210   2.295 -0.1247  1.4787 -0.7045
 2283TIP3   OH228263   1.751   4.255   1.914  0.3034 -0.7151 -0.3791
 2283TIP3    H128264   1.656   4.257   1.909  0.2729  3.9077  0.5361
 2283TIP3    H228265   1.780   4.261   1.823 -0.3144  2.2667 -0.4067
 2284TIP3   OH228266   5.656   1.967  12.809 -0.1684 -0.0545  0.0534
 2284TIP3    H128267   5.652   1.871  12.806 -2.2129  0.0147 -0.2667
 2284TIP3    H228268   5.650   1.994  12.718  0.9383  0.3816  0.1017
 2285TIP3   OH228269   6.180   5.384   4.829  0.0489 -0.1312 -0.1983
 2285TIP3    H128270   6.100   5.349   4.789  0.6122  0.0162 -1.4734
 2285TIP3    H228271   6.251   5.337   4.786  0.6638 -0.1113  0.7875
 2286TIP3   OH228272   1.399   4.829  16.849  0.8150  0.2221 -0.2831
 2286TIP3    H128273   1.373   4.799  16.762  2.5168  0.7639 -1.0117
 2286TIP3    H228274   1.332   4.795  16.907  0.1524 -0.9572 -1.6913
 2287TIP3   OH228275   1.155   0.831   1.446 -0.5593 -0.7480  0.0054
 2287TIP3    H128276   1.064   0.822   1.418 -1.1841  2.2473  0.9185
 2287TIP3    H228277   1.161   0.920   1.482  2.6376 -1.0077  0.2882
 2288TIP3   OH228278   5.611   2.764  11.126 -0.6028 -0.6267 -0.3017
 2288TIP3    H128279   5.623   2.743  11.033  0.6636  0.6851 -0.4551
 2288TIP3    H228280   5.628   2.858  11.131 -0.6713 -0.6906  1.2618
 2289TIP3   OH228281   3.531   3.082  12.097  0.4830 -0.1806  0.4272
 2289TIP3    H128282   3.623   3.093  12.072  0.1237  2.0983 -0.0635
 2289TIP3    H228283   3.486   3.062  12.015  0.0572  2.2006  0.0392
 2290TIP3   OH228284   1.182   3.188  14.912  0.3925 -0.0013 -0.1662
 2290TIP3    H128285   1.153   3.103  14.945  2.3274 -0.4931  0.3192
 2290TIP3    H228286   1.203   3.173  14.820  1.7811 -0.3211  0.1959
 2291TIP3   OH228287   6.032   6.038  16.475  0.0610  0.2566 -0.0293
 2291TIP3    H128288   5.993   5.954  16.498  0.5865 -0.0943 -0.4051
 2291TIP3    H228289   5.963   6.102  16.491 -0.0023 -0.1242  1.3028
 2292TIP3   OH228290   1.151   2.813  15.269 -0.7598  0.0110  0.4303
 2292TIP3    H128291   1.088   2.845  15.205  0.1125  0.3446 -0.2612
 2292TIP3    H228292   1.100   2.806  15.350 -1.7615 -0.0257 -0.1878
 2293TIP3   OH228293   0.387   1.336  16.066  0.0408  0.2876  0.2349
 2293TIP3    H128294   0.427   1.367  16.147  0.3727  3.2854 -1.0009
 2293TIP3    H228295   0.367   1.416  16.017 -3.5202 -1.2928 -1.0833
 2294TIP3   OH228296   6.154   5.549   0.282  0.1220 -0.4382 -0.1433
 2294TIP3    H128297   6.184   5.634   0.247  1.3742 -0.8773 -0.1544
 2294TIP3    H228298   6.072   5.532   0.234  0.5597  0.1262 -1.1247
 2295TIP3   OH228299   0.993   3.697   4.070 -0.2414  0.3042 -1.0797
 2295TIP3    H128300   1.070   3.671   4.121 -1.4518 -0.3432  0.4572
 2295TIP3    H228301   1.029   3.746   3.995  1.8000 -1.9902 -1.6489
 2296TIP3   OH228302   6.579   0.174  11.275  0.1627 -0.2509 -0.1419
 2296TIP3    H128303   6.634   0.251  11.260  1.2098 -1.0333 -0.4608
 2296TIP3    H228304   6.509   0.204  11.332  0.8680  0.8082  0.1746
 2297TIP3   OH228305   0.601   3.627   2.628 -0.0049 -0.2001 -0.9194
 2297TIP3    H128306   0.521   3.594   2.668  0.0875  0.2316 -0.3765
 2297TIP3    H228307   0.667   3.560   2.647  0.0482  0.0198 -0.3090
 2298TIP3   OH228308   2.934   2.193  14.890 -0.1212 -0.1637 -0.4837
 2298TIP3    H128309   2.896   2.279  14.873  0.7005  0.1974 -0.5427
 2298TIP3    H228310   3.028   2.209  14.890  0.0375 -1.0835 -0.6045
 2299TIP3   OH228311   0.428   2.103   6.585 -0.2992  0.1355  0.2913
 2299TIP3    H128312   0.405   2.180   6.532  1.4868  1.4575  1.3863
 2299TIP3    H228313   0.385   2.118   6.669  2.5033  1.4621  1.5410
 2300TIP3   OH228314   1.546   0.276   4.476  0.2965  0.1405 -0.2461
 2300TIP3    H128315   1.470   0.334   4.484 -0.1273 -0.4665  0.2424
 2300TIP3    H228316   1.541   0.242   4.386  0.0804  0.2267 -0.2664
 2301TIP3   OH228317   3.027   3.842   1.273 -1.1274  0.2343  0.0019
 2301TIP3    H128318   3.106   3.796   1.245 -1.3726 -1.3278  1.7279
 2301TIP3    H228319   2.992   3.881   1.193  1.2381  0.7321 -0.8281
 2302TIP3   OH228320   1.712   2.945  11.800  0.7440  0.4866  0.1814
 2302TIP3    H128321   1.777   2.972  11.735 -0.3846 -0.9286 -1.5678
 2302TIP3    H228322   1.632   2.991  11.776  0.0012 -0.9558 -0.1540
 2303TIP3   OH228323   4.613   3.374   1.210  0.0152  0.0952  0.3513
 2303TIP3    H128324   4.565   3.342   1.286  0.2613 -1.3847 -0.1093
 2303TIP3    H228325   4.663   3.299   1.179  1.6456  1.2769  0.0423
 2304TIP3   OH228326   0.697   0.715  13.042 -0.5368  0.1048 -0.0927
 2304TIP3    H128327   0.643   0.791  13.022 -0.7725 -0.1016 -0.2491
 2304TIP3    H228328   0.639   0.640  13.028  0.1059 -0.1821 -1.3860
 2305TIP3   OH228329   4.950   4.400   3.344  0.6555 -0.5795  0.3136
 2305TIP3    H128330   5.000   4.401   3.426  3.0987 -1.4674 -1.1012
 2305TIP3    H228331   4.867   4.358   3.367  1.1247 -0.4541  2.4136
 2306TIP3   OH228332   3.320   1.581   0.074 -0.2832  0.3994 -0.2701
 2306TIP3    H128333   3.413   1.562   0.084 -0.2552  0.5517 -0.2340
 2306TIP3    H228334   3.316   1.677   0.065 -0.4841  0.4435  0.2794
 2307TIP3   OH228335   1.672   6.434  11.377  0.1259  0.5231 -0.0794
 2307TIP3    H128336   1.751   6.459  11.425  1.3647 -1.1705 -1.1488
 2307TIP3    H228337   1.705   6.405  11.292 -1.8222  1.3804 -1.1546
 2308TIP3   OH228338   1.933   0.388  11.305 -0.4563  0.2858  0.0311
 2308TIP3    H128339   1.891   0.382  11.391  0.2567 -2.1977  0.2537
 2308TIP3    H228340   1.871   0.439  11.252 -3.3511 -2.3651  0.6636
 2309TIP3   OH228341   2.538   3.822  14.374 -0.2467  0.2093 -0.4993
 2309TIP3    H128342   2.626   3.861  14.371  0.6983 -1.9306 -3.4164
 2309TIP3    H228343   2.546   3.750  14.436 -0.1407  0.4395 -0.2412
 2310TIP3   OH228344   5.327   5.401  13.572  0.0537 -0.4712  0.6058
 2310TIP3    H128345   5.298   5.443  13.654  0.2493  0.2879  0.2922
 2310TIP3    H228346   5.246   5.371  13.531 -0.0517 -0.8104  1.0469
 2311TIP3   OH228347   0.997   0.972   5.310  0.0249  0.6815 -0.1646
 2311TIP3    H128348   0.994   1.019   5.227 -1.2554  1.2809  0.2112
 2311TIP3    H228349   1.066   1.017   5.360  0.7595  0.3514 -0.8699
 2312TIP3   OH228350   2.080   5.479   4.427  0.2565 -0.8201 -0.2767
 2312TIP3    H128351   2.028   5.442   4.356  1.0026 -2.1313 -0.1550
 2312TIP3    H228352   2.015   5.522   4.484 -0.5543 -1.3793 -0.7673
 2313TIP3   OH228353   2.967   6.184  12.217  0.4009 -0.2258  0.5964
 2313TIP3    H128354   3.032   6.177  12.286  1.2768  0.5366 -0.1483
 2313TIP3    H228355   2.998   6.255  12.161 -0.7352 -0.2751 -0.1172
 2314TIP3   OH228356   2.623   6.602  14.639  0.2047 -0.3848  0.0938
 2314TIP3    H128357   2.617   6.604  14.543  0.3352  0.8303  0.1051
 2314TIP3    H228358   2.536   6.630  14.669  0.8890  1.5487  0.3143
 2315TIP3   OH228359   5.728   0.897  17.239  0.1028  0.3389 -0.5388
 2315TIP3    H128360   5.637   0.868  17.247 -0.1151  1.1805  0.0947
 2315TIP3    H228361   5.750   0.879  17.148  0.1457 -2.2767 -0.0666
 2316TIP3   OH228362   0.561   0.909  11.895 -0.4656  0.7729 -0.0790
 2316TIP3    H128363   0.474   0.936  11.868 -0.4164  1.3704  0.3407
 2316TIP3    H228364   0.549   0.874  11.984 -0.6858 -1.4902 -0.9655
 2317TIP3   OH228365   4.384   6.472  15.386 -0.4357  0.2443  0.3397
 2317TIP3    H128366   4.473   6.495  15.357 -0.1863  0.8132  1.5184
 2317TIP3    H228367   4.362   6.393  15.337 -0.1337  1.3194 -1.5925
 2318TIP3   OH228368   1.375   2.458   1.896 -0.3422  0.0128 -0.1539
 2318TIP3    H128369   1.416   2.542   1.872 -0.2033 -0.3109 -1.0599
 2318TIP3    H228370   1.439   2.392   1.869 -0.1966 -0.3678  1.0917
 2319TIP3   OH228371   5.545   0.037  11.608 -0.3444  0.6788  0.1707
 2319TIP3    H128372   5.534   0.077  11.694  0.9706  1.5696 -0.0543
 2319TIP3    H228373   5.490  -0.042  11.610 -0.6604  0.9290  1.6541
 2320TIP3   OH228374   1.712   5.287  12.474 -0.2400 -0.4953 -0.3871
 2320TIP3    H128375   1.681   5.271  12.385 -1.4708  1.2296 -0.2888
 2320TIP3    H228376   1.686   5.377  12.493 -0.0054 -0.8472  1.7300
 2321TIP3   OH228377   0.758   6.339  12.383 -0.2201 -0.2794  0.1202
 2321TIP3    H128378   0.776   6.249  12.357 -1.2483 -0.5141  0.2066
 2321TIP3    H228379   0.663   6.344  12.388 -0.1191  0.4158  1.5200
 2322TIP3   OH228380   4.681   3.675   5.876  0.0355 -0.3252  0.0985
 2322TIP3    H128381   4.684   3.771   5.868 -0.6701 -0.2893  0.3017
 2322TIP3    H228382   4.681   3.645   5.785  0.9251 -0.1547  0.0357
 2323TIP3   OH228383   0.076   5.640  14.580  0.0184 -0.3751 -0.3254
 2323TIP3    H128384   0.086   5.665  14.488 -1.8183 -2.5445 -1.1453
 2323TIP3    H228385  -0.017   5.654  14.598  0.7215  1.8750  1.7959
 2324TIP3   OH228386   2.983   6.537  11.895  0.1755  0.2845 -0.4853
 2324TIP3    H128387   2.917   6.468  11.906  0.7440 -0.2638 -0.4488
 2324TIP3    H228388   2.939   6.604  11.842 -0.5038  0.0607 -0.2143
 2325TIP3   OH228389   3.085   3.807  14.683  0.0473  0.2582  0.2083
 2325TIP3    H128390   3.003   3.781  14.723  0.1626  2.0523  1.6333
 2325TIP3    H228391   3.062   3.831  14.593 -0.7512 -0.5105  0.2063
 2326TIP3   OH228392   2.999   2.781   1.604  0.1966  0.3187  0.4458
 2326TIP3    H128393   3.075   2.743   1.648  0.9979  1.0609 -0.2740
 2326TIP3    H228394   2.985   2.865   1.646 -0.2703  0.1639  0.6111
 2327TIP3   OH228395   5.231   0.459   3.786  0.2985  0.0531 -0.5064
 2327TIP3    H128396   5.190   0.375   3.807  0.2019  0.5498  1.4389
 2327TIP3    H228397   5.245   0.457   3.692 -2.5854 -0.8501 -0.9481
 2328TIP3   OH228398   5.717   3.396   2.623 -0.4284  0.4002  0.1517
 2328TIP3    H128399   5.796   3.354   2.588  0.0799  1.7991 -0.3923
 2328TIP3    H228400   5.648   3.330   2.611  0.2100 -0.0272 -1.3400
 2329TIP3   OH228401   4.676   1.305   4.417 -0.3141  0.1668  0.3896
 2329TIP3    H128402   4.690   1.375   4.353  1.6214 -0.1189  0.4651
 2329TIP3    H228403   4.748   1.244   4.401 -1.5517 -1.4455  0.8270
 2330TIP3   OH228404   3.408   2.818   6.710  0.2011 -0.2447  0.2235
 2330TIP3    H128405   3.442   2.877   6.643  1.9757 -1.0312  0.3870
 2330TIP3    H228406   3.452   2.846   6.790  0.0306 -0.9307  0.5563
 2331TIP3   OH228407   4.746   1.213  15.318 -0.4201  0.3977 -0.1320
 2331TIP3    H128408   4.707   1.228  15.232 -0.7230  0.4452  0.0123
 2331TIP3    H228409   4.840   1.206  15.301 -0.5968 -0.9559 -0.6570
 2332TIP3   OH228410   0.815   4.907   2.834 -0.4313  0.3644  0.2793
 2332TIP3    H128411   0.869   4.958   2.775 -0.0113  0.3443  0.6418
 2332TIP3    H228412   0.875   4.881   2.905 -0.6731 -0.4819  0.1831
 2333TIP3   OH228413   3.509   3.741   0.420 -0.0074  0.2636  0.0612
 2333TIP3    H128414   3.544   3.825   0.391 -0.8324  0.7478  0.4492
 2333TIP3    H228415   3.468   3.761   0.504  1.7880 -0.9821  1.2635
 2334TIP3   OH228416   2.539   5.494   1.196 -0.0284  0.2436  0.9456
 2334TIP3    H128417   2.582   5.451   1.123 -1.5198 -0.5105  0.4845
 2334TIP3    H228418   2.520   5.582   1.164 -2.5292 -0.7233 -0.3551
 2335TIP3   OH228419   6.536   5.045  14.017  0.1426  0.4596 -0.0187
 2335TIP3    H128420   6.527   4.952  13.999 -0.9658  0.6305 -0.3385
 2335TIP3    H228421   6.593   5.049  14.095  0.1126 -0.4794  0.0526
 2336TIP3   OH228422   0.104   5.382  12.600 -0.6436 -0.2834  0.2339
 2336TIP3    H128423   0.123   5.347  12.513  0.2656  0.1075  0.2666
 2336TIP3    H228424   0.042   5.453  12.585 -0.6249 -0.3356 -0.0809
 2337TIP3   OH228425   3.819   3.769  13.710  0.5812 -0.4836 -0.2866
 2337TIP3    H128426   3.821   3.864  13.716 -0.3447 -0.1124 -4.3205
 2337TIP3    H228427   3.910   3.744  13.693  0.5641 -0.1684 -0.8522
 2338TIP3   OH228428   5.352   4.663  13.448 -0.0060 -0.1797 -0.3250
 2338TIP3    H128429   5.302   4.696  13.522 -0.3595 -0.4599 -0.4335
 2338TIP3    H228430   5.298   4.592  13.413  0.6661 -0.7671 -0.1830
 2339TIP3   OH228431   4.970   2.465  10.292 -0.1920 -0.3966 -0.5076
 2339TIP3    H128432   5.060   2.493  10.310 -0.4458  1.9050 -2.4803
 2339TIP3    H228433   4.916   2.529  10.339 -0.8024 -1.3814  0.1365
 2340TIP3   OH228434   2.533   4.597  12.221 -0.4223  0.5983 -0.2878
 2340TIP3    H128435   2.490   4.596  12.307 -0.8546  1.6611 -0.4790
 2340TIP3    H228436   2.550   4.505  12.201  0.5943  0.4035  1.3933
 2341TIP3   OH228437   2.528   5.882   1.378  0.0933  0.8180  0.1674
 2341TIP3    H128438   2.519   5.911   1.469 -0.0228  2.5566 -0.3960
 2341TIP3    H228439   2.553   5.790   1.386 -1.7967  0.3979  1.9417
 2342TIP3   OH228440   0.469   3.182  11.723 -0.2003  0.3010  0.8903
 2342TIP3    H128441   0.421   3.264  11.709 -0.4722  0.2696  1.6160
 2342TIP3    H228442   0.403   3.122  11.759 -0.4426 -0.7775 -1.2648
 2343TIP3   OH228443   2.763   4.566   2.835  0.2463  0.3239 -0.2164
 2343TIP3    H128444   2.721   4.516   2.764 -0.8800 -0.2854  0.8560
 2343TIP3    H228445   2.694   4.578   2.900  1.7020 -0.6045  1.5490
 2344TIP3   OH228446   0.647   2.974  17.193  0.3492  0.0922  0.2151
 2344TIP3    H128447   0.570   2.946  17.241 -0.2834 -0.9176 -1.3646
 2344TIP3    H228448   0.616   3.045  17.136  0.4156 -0.7901 -0.9343
 2345TIP3   OH228449   0.700   3.371  12.841 -0.2880  0.2267  0.0876
 2345TIP3    H128450   0.710   3.465  12.824 -1.3966  0.1905 -0.8006
 2345TIP3    H228451   0.699   3.331  12.755 -1.5146 -0.4326  0.4063
 2346TIP3   OH228452   3.060   3.367  15.279  0.2014  0.1830  0.3371
 2346TIP3    H128453   3.012   3.393  15.358  0.7382  0.1028  0.6924
 2346TIP3    H228454   3.034   3.431  15.213  0.7700  1.0567  0.9451
 2347TIP3   OH228455   4.817   1.586   0.869  0.1981 -0.0648 -0.1067
 2347TIP3    H128456   4.807   1.651   0.938 -0.8470  1.3017 -1.5135
 2347TIP3    H228457   4.780   1.506   0.906 -1.2733  0.9105  0.5615
 2348TIP3   OH228458   2.124   3.299  16.211  0.2840 -0.2219 -0.4229
 2348TIP3    H128459   2.144   3.265  16.124  0.0504 -1.4235 -0.0259
 2348TIP3    H228460   2.062   3.235  16.247  1.0407 -0.2047  0.9366
 2349TIP3   OH228461   5.003   0.867   2.311  0.2402 -0.4353  0.3966
 2349TIP3    H128462   5.051   0.822   2.241 -0.3572  0.6287 -0.7266
 2349TIP3    H228463   4.951   0.798   2.352  0.1475 -0.9823 -0.6056
 2350TIP3   OH228464   5.323   6.782  16.551  0.5480 -0.1738  0.0053
 2350TIP3    H128465   5.256   6.722  16.584 -0.1148  0.6634  0.2045
 2350TIP3    H228466   5.274   6.849  16.505  1.1959  0.8207  0.7471
 2351TIP3   OH228467   1.550   2.396  13.748 -0.2342  0.2893  0.2875
 2351TIP3    H128468   1.471   2.347  13.768  0.8049 -1.0070  1.3748
 2351TIP3    H228469   1.580   2.361  13.665 -1.5633  1.7960 -0.8500
 2352TIP3   OH228470   4.189   2.401  12.835  0.6752 -0.5710 -0.1725
 2352TIP3    H128471   4.175   2.484  12.879  0.3837 -0.6213 -0.1678
 2352TIP3    H228472   4.270   2.413  12.786  1.7418 -0.9779  1.4595
 2353TIP3   OH228473   0.901   2.090  13.893 -0.3766 -0.4779 -0.2176
 2353TIP3    H128474   0.847   2.109  13.817 -1.2273 -0.4149  0.3943
 2353TIP3    H228475   0.986   2.067  13.857 -0.9947 -1.2152 -1.2287
 2354TIP3   OH228476   1.840   2.297   0.875  0.7277 -0.4503 -0.1344
 2354TIP3    H128477   1.867   2.317   0.785 -1.6442  0.2269 -0.7140
 2354TIP3    H228478   1.826   2.382   0.915 -1.5635 -0.7814 -0.1797
 2355TIP3   OH228479   1.110   5.897   5.071 -0.4696 -0.4013  0.1756
 2355TIP3    H128480   1.161   5.865   4.996 -0.9240 -1.1386  0.1705
 2355TIP3    H228481   1.164   5.965   5.111  0.4428 -1.0733  0.0815
 2356TIP3   OH228482   1.611   2.349  11.137 -0.3755 -0.0548 -0.2189
 2356TIP3    H128483   1.578   2.362  11.226  0.2437  3.0765 -0.3869
 2356TIP3    H228484   1.706   2.351  11.146 -0.2831 -1.4242 -0.7477
 2357TIP3   OH228485   4.996   0.090  17.095 -0.4344  0.3434 -0.4809
 2357TIP3    H128486   4.912   0.099  17.050 -0.8601  0.2763  0.2932
 2357TIP3    H228487   4.981   0.131  17.181 -0.5300 -2.1573  0.7284
 2358TIP3   OH228488   1.021   4.910   3.321 -0.2354 -0.3200  0.1207
 2358TIP3    H128489   1.012   5.002   3.345 -2.3112  0.6799 -4.1697
 2358TIP3    H228490   0.935   4.872   3.339  0.1253 -1.0638  0.2910
 2359TIP3   OH228491   6.277   3.872   5.797  0.9147  0.5877  0.2731
 2359TIP3    H128492   6.188   3.841   5.780  0.8853  0.9727 -0.2931
 2359TIP3    H228493   6.298   3.926   5.721  1.6066  0.5562  0.4410
 2360TIP3   OH228494   3.289   1.072   1.617  0.0277  0.2407  0.1418
 2360TIP3    H128495   3.284   1.095   1.524 -1.1914  1.2937  0.4449
 2360TIP3    H228496   3.295   0.977   1.618  3.9762  0.3745 -1.1252
 2361TIP3   OH228497   0.971   5.518  16.846 -0.0657 -0.0927 -0.0662
 2361TIP3    H128498   1.057   5.507  16.806 -0.4807 -0.0923 -0.9649
 2361TIP3    H228499   0.989   5.559  16.930  0.8013  0.1012 -0.3399
 2362TIP3   OH228500   1.734   1.181   5.920  0.3060 -0.1239  0.3574
 2362TIP3    H128501   1.727   1.254   5.859 -1.2926  1.1466  2.0163
 2362TIP3    H228502   1.816   1.198   5.968 -0.6776  1.2828  1.5851
 2363TIP3   OH228503   6.208   1.751   0.465  0.3847 -0.4987  0.1496
 2363TIP3    H128504   6.275   1.750   0.534 -0.0513  1.0673  0.6270
 2363TIP3    H228505   6.164   1.667   0.473  2.5602 -1.7466 -0.4536
 2364TIP3   OH228506   0.448   3.575   6.793  0.2686  0.9380  0.1546
 2364TIP3    H128507   0.393   3.623   6.856 -0.6398  1.5222 -1.0595
 2364TIP3    H228508   0.465   3.638   6.723  0.2121 -0.0871 -0.7961
 2365TIP3   OH228509   2.795   3.368   5.387 -0.2750  1.0353 -0.1807
 2365TIP3    H128510   2.753   3.284   5.409  1.4264  0.7920  2.3282
 2365TIP3    H228511   2.826   3.356   5.297 -1.0276 -0.6403 -0.2406
 2366TIP3   OH228512   2.308   5.179   4.709  0.3771 -0.2825 -0.1793
 2366TIP3    H128513   2.315   5.095   4.664  1.2269 -0.5810  0.5060
 2366TIP3    H228514   2.317   5.244   4.640  1.5356 -0.7424 -0.4595
 2367TIP3   OH228515   3.434   4.223  16.688 -0.5256 -0.3430  0.6551
 2367TIP3    H128516   3.476   4.278  16.754 -0.1809  0.6878 -0.4022
 2367TIP3    H228517   3.340   4.234  16.704 -0.5135  1.8153 -0.5109
 2368TIP3   OH228518   2.032   3.243  13.734  0.5206  0.1168  0.0598
 2368TIP3    H128519   2.051   3.159  13.693  0.4441  0.5096 -0.7822
 2368TIP3    H228520   2.115   3.291  13.733  0.0218  0.9838 -1.6506
 2369TIP3   OH228521   4.438   4.419   1.859  0.1919 -0.0363  0.1472
 2369TIP3    H128522   4.366   4.399   1.919 -0.8795 -0.7003 -1.3271
 2369TIP3    H228523   4.400   4.410   1.772  1.0121  3.4434 -0.6427
 2370TIP3   OH228524   2.313   5.050   5.118  0.4218 -0.3671  0.0498
 2370TIP3    H128525   2.260   4.971   5.114  2.7522 -1.9149 -1.1730
 2370TIP3    H228526   2.350   5.050   5.206 -1.5765  0.7534  0.9317
 2371TIP3   OH228527   3.504   0.864   2.749 -0.3389 -0.2019  0.0501
 2371TIP3    H128528   3.496   0.826   2.661 -2.0543 -0.5362  0.3240
 2371TIP3    H228529   3.467   0.952   2.739  2.9529  1.2159 -0.4165
 2372TIP3   OH228530   0.794   0.061   0.731  0.7231 -0.4893 -0.0656
 2372TIP3    H128531   0.845  -0.007   0.776 -0.3738 -1.0655  0.3491
 2372TIP3    H228532   0.718   0.075   0.789  0.0500 -0.1789 -1.0151
 2373TIP3   OH228533   5.677   2.285   3.491  1.0351 -0.0583  0.1268
 2373TIP3    H128534   5.627   2.343   3.548 -0.1914  1.2060 -2.1800
 2373TIP3    H228535   5.720   2.224   3.551 -1.6774  0.0645  2.3098
 2374TIP3   OH228536   4.671   1.629  13.405  0.2291 -0.6212 -0.7723
 2374TIP3    H128537   4.718   1.697  13.355 -0.4816  2.1116  2.1130
 2374TIP3    H228538   4.732   1.605  13.475 -2.1361  2.3329  2.4836
 2375TIP3   OH228539   5.375   6.650  14.184 -0.1575 -0.0019  0.3212
 2375TIP3    H128540   5.396   6.731  14.138  0.2889 -0.5570 -0.4526
 2375TIP3    H228541   5.429   6.583  14.142  1.4089 -0.2554  2.6330
 2376TIP3   OH228542   2.695   3.699  16.987 -0.3089 -0.0365 -0.3422
 2376TIP3    H128543   2.781   3.732  17.016 -0.6927 -0.6368  1.5631
 2376TIP3    H228544   2.654   3.773  16.943  0.5197  0.7573  0.2053
 2377TIP3   OH228545   0.830   2.578  10.954  0.4388 -0.3078  0.1822
 2377TIP3    H128546   0.896   2.646  10.939 -0.0978  0.3171  0.6106
 2377TIP3    H228547   0.784   2.570  10.871 -0.0912  0.5042  0.3907
 2378TIP3   OH228548   0.028   6.292   2.003  0.1173 -0.0673  0.2864
 2378TIP3    H128549   0.098   6.283   1.937  1.9067 -0.2146  2.1541
 2378TIP3    H228550   0.000   6.202   2.020 -0.8410  0.0190 -0.7519
 2379TIP3   OH228551   0.969   4.330  13.796  0.4227 -0.0522  0.9764
 2379TIP3    H128552   1.004   4.244  13.773  2.6930  1.1332 -0.1640
 2379TIP3    H228553   1.030   4.363  13.862  0.7258  1.5273 -0.0900
 2380TIP3   OH228554   2.413   6.075  14.374 -0.7094 -0.6248 -0.5917
 2380TIP3    H128555   2.497   6.031  14.383 -0.5319 -0.2355 -0.3310
 2380TIP3    H228556   2.433   6.168  14.385 -1.2323 -0.5646 -0.1074
 2381TIP3   OH228557   5.971   4.663   1.458 -0.4901  0.1811  0.1851
 2381TIP3    H128558   5.928   4.711   1.529  0.7029  0.1793  0.9347
 2381TIP3    H228559   6.014   4.731   1.406 -1.2011  0.1646 -0.4231
 2382TIP3   OH228560   1.276   5.034  13.477  0.7885 -0.1383  0.1942
 2382TIP3    H128561   1.299   5.033  13.570 -2.6453 -1.8120  1.1073
 2382TIP3    H228562   1.313   5.116  13.444  3.6291 -0.3858  2.5833
 2383TIP3   OH228563   1.176   1.634   1.163 -0.5363 -0.1126  0.1765
 2383TIP3    H128564   1.193   1.718   1.205  0.6105 -0.4518  0.4103
 2383TIP3    H228565   1.221   1.640   1.079  0.8475 -1.0556  0.8308
 2384TIP3   OH228566   1.558   1.706   3.983  0.2759  0.2280  0.3796
 2384TIP3    H128567   1.649   1.677   3.994  0.2185  1.0605  3.6890
 2384TIP3    H228568   1.509   1.626   3.964  1.6624 -0.2207 -1.5114
 2385TIP3   OH228569   1.834   2.111  16.479 -0.0734  0.0593 -0.2684
 2385TIP3    H128570   1.878   2.133  16.561 -1.6929 -1.0760  0.9427
 2385TIP3    H228571   1.848   2.187  16.423  0.0133  1.3624  1.4931
 2386TIP3   OH228572   0.190   3.607  13.701  0.0897 -0.3263  0.1103
 2386TIP3    H128573   0.134   3.531  13.683  0.7880 -0.5405 -1.2814
 2386TIP3    H228574   0.278   3.578  13.675  0.7845  0.1229  1.9347
 2387TIP3   OH228575   2.639   3.833  15.748 -0.0109 -0.4353  0.2068
 2387TIP3    H128576   2.579   3.760  15.732  0.8095 -1.2063  0.5515
 2387TIP3    H228577   2.670   3.819  15.838  0.3215  0.2081  0.1935
 2388TIP3   OH228578   0.229   0.193  14.445  0.0612 -0.1298 -0.3198
 2388TIP3    H128579   0.162   0.206  14.378  0.7124  0.7093 -0.8150
 2388TIP3    H228580   0.302   0.151  14.400  0.5786  0.6140 -0.1916
 2389TIP3   OH228581   6.298   1.001   2.240 -0.4647 -0.0400  0.7456
 2389TIP3    H128582   6.207   1.020   2.219 -0.3280  0.3637  0.5293
 2389TIP3    H228583   6.349   1.049   2.175 -0.1057 -0.5324  0.6605
 2390TIP3   OH228584   6.231   6.533  11.577 -0.1353  0.2673 -0.2142
 2390TIP3    H128585   6.163   6.467  11.563 -0.7995  0.4325  1.9415
 2390TIP3    H228586   6.294   6.491  11.635  0.5671  0.7732 -0.6130
 2391TIP3   OH228587   3.387   5.117  14.827  0.2711  0.2929 -0.0902
 2391TIP3    H128588   3.405   5.072  14.910 -0.4544  1.5673  0.7910
 2391TIP3    H228589   3.299   5.087  14.803  0.3013  0.2677 -0.1687
 2392TIP3   OH228590   2.175   5.760   4.670  1.1170  0.0207  0.4723
 2392TIP3    H128591   2.217   5.766   4.584  0.5599  1.2008  0.2740
 2392TIP3    H228592   2.098   5.817   4.663  0.8711 -0.1578  1.6383
 2393TIP3   OH228593   1.563   6.400   1.634  0.6491 -0.1388  0.0282
 2393TIP3    H128594   1.612   6.329   1.675  1.4966  0.9926  1.0126
 2393TIP3    H228595   1.560   6.469   1.701 -1.7177  0.0717 -0.2541
 2394TIP3   OH228596   4.926   1.059  15.663 -0.7143  0.4567 -0.0528
 2394TIP3    H128597   4.970   0.986  15.620  0.4809  1.1642 -0.0531
 2394TIP3    H228598   4.919   1.032  15.755  0.2264  0.5680  0.0536
 2395TIP3   OH228599   0.757   0.996   2.791  0.2393  0.1050 -0.4931
 2395TIP3    H128600   0.837   1.015   2.743  0.0085  1.9386 -0.1875
 2395TIP3    H228601   0.780   0.922   2.848  2.1965  1.6106  0.7456
 2396TIP3   OH228602   0.456   0.352  15.385  0.4998 -0.5911 -0.3862
 2396TIP3    H128603   0.459   0.384  15.294 -0.0940  0.8159  0.0748
 2396TIP3    H228604   0.547   0.345  15.411  0.7805  5.0545  0.9440
 2397TIP3   OH228605   2.366   4.067   4.322  0.1315  0.5586  0.1620
 2397TIP3    H128606   2.424   4.143   4.315  2.4068 -0.9797  1.8056
 2397TIP3    H228607   2.424   3.992   4.315 -1.6101 -1.0378  2.2084
 2398TIP3   OH228608   2.991   1.602   3.494  0.2099  0.3028 -0.1908
 2398TIP3    H128609   3.080   1.604   3.458 -0.0629  0.4155 -0.8783
 2398TIP3    H228610   2.982   1.514   3.530  0.3668  0.0611 -0.7322
 2399TIP3   OH228611   2.620   3.194  17.143 -0.2689 -0.6154 -0.7633
 2399TIP3    H128612   2.654   3.143  17.217 -0.3688 -0.1546 -0.3986
 2399TIP3    H228613   2.525   3.191  17.153 -0.2196  1.7721  0.7114
 2400TIP3   OH228614   1.029   4.025  12.701 -0.3490  1.0707  0.5552
 2400TIP3    H128615   0.976   4.011  12.622  0.2198 -0.5199  0.4389
 2400TIP3    H228616   1.117   4.039  12.668  0.5438 -2.9516  0.9960
 2401TIP3   OH228617   1.603   4.292   5.971  0.0027 -0.2888 -0.1360
 2401TIP3    H128618   1.682   4.291   5.917 -0.2511  1.7433 -0.5914
 2401TIP3    H228619   1.615   4.366   6.030 -0.3485 -1.6436  1.6693
 2402TIP3   OH228620   6.618   5.051   4.462 -0.3761 -0.3892 -0.1385
 2402TIP3    H128621   6.703   5.095   4.466 -0.6360  0.0345  0.7306
 2402TIP3    H228622   6.637   4.961   4.489 -0.2376 -0.2411  0.2572
 2403TIP3   OH228623   6.187   2.498  13.076 -0.2901  0.1788  0.5258
 2403TIP3    H128624   6.246   2.517  13.003  0.2604 -1.5383  0.5142
 2403TIP3    H228625   6.186   2.579  13.127  0.2690  0.9903 -0.7237
 2404TIP3   OH228626   1.445   5.723   4.784  0.2181  0.4580 -0.6654
 2404TIP3    H128627   1.540   5.712   4.782  0.4241  2.0186 -0.3264
 2404TIP3    H228628   1.415   5.691   4.700  1.2642  1.6716 -1.5200
 2405TIP3   OH228629   4.428   3.906  13.303 -0.8173  0.2308 -0.3854
 2405TIP3    H128630   4.510   3.898  13.255  0.4980 -0.6905  1.9316
 2405TIP3    H228631   4.424   3.827  13.357 -2.1945  1.2773  1.0801
 2406TIP3   OH228632   5.580   3.154   2.947 -0.0646  0.5268  0.4261
 2406TIP3    H128633   5.582   3.090   3.018  0.5955  0.8330  0.6900
 2406TIP3    H228634   5.569   3.102   2.868 -3.3706  0.3353  0.9391
 2407TIP3   OH228635   4.390   3.040   5.576 -0.4096  0.7721  0.0935
 2407TIP3    H128636   4.441   2.974   5.624  2.2271  0.4334 -3.0121
 2407TIP3    H228637   4.304   2.999   5.565  0.0041 -0.5483  1.4730
 2408TIP3   OH228638   1.459   3.891  15.689 -0.5904 -0.2848  0.0732
 2408TIP3    H128639   1.527   3.954  15.667 -0.1763  0.6852  3.8326
 2408TIP3    H228640   1.381   3.922  15.644  0.6559  0.4410 -1.6041
 2409TIP3   OH228641   1.411   5.812   3.508  0.1533  0.0438 -0.0815
 2409TIP3    H128642   1.341   5.771   3.559  0.9768 -1.1491  0.1017
 2409TIP3    H228643   1.470   5.848   3.574  0.0398  0.4929 -0.2262
 2410TIP3   OH228644   2.601   4.410  14.679 -0.5766  0.2154  0.0252
 2410TIP3    H128645   2.596   4.444  14.768 -0.2910  1.5259 -0.4365
 2410TIP3    H228646   2.684   4.363  14.675 -0.9048 -0.4207  0.6353
 2411TIP3   OH228647   3.036   5.804  13.931 -0.0151  0.2981 -0.9516
 2411TIP3    H128648   3.058   5.730  13.874  0.2198  1.0492 -1.8527
 2411TIP3    H228649   2.941   5.806  13.933 -0.0181 -0.1907 -0.7173
 2412TIP3   OH228650   1.311   3.565   0.741  0.0593  0.0417 -0.2298
 2412TIP3    H128651   1.304   3.506   0.816 -0.6579  0.5122  0.0870
 2412TIP3    H228652   1.337   3.649   0.779 -1.2991  0.5461 -0.3679
 2413TIP3   OH228653   2.958   2.503  14.498 -0.5564 -0.3939  0.1760
 2413TIP3    H128654   3.008   2.436  14.544  0.9533  0.2524 -0.4743
 2413TIP3    H228655   2.935   2.463  14.414  1.0850  0.1599 -0.5684
 2414TIP3   OH228656   3.155   2.061  16.282 -0.5566 -0.4980  0.0012
 2414TIP3    H128657   3.133   1.971  16.304  0.2352 -0.7666 -0.2887
 2414TIP3    H228658   3.237   2.078  16.329 -0.4346 -0.1032 -0.3487
 2415TIP3   OH228659   5.105   4.948   5.252 -0.0473  0.2618  0.6367
 2415TIP3    H128660   5.030   5.003   5.230 -1.0899 -0.3416  2.5717
 2415TIP3    H228661   5.091   4.867   5.203  0.3520  0.8734 -0.5019
 2416TIP3   OH228662   2.671   6.218   5.190 -0.4103 -0.0557 -0.2133
 2416TIP3    H128663   2.739   6.170   5.238  1.6261  2.1882 -0.7308
 2416TIP3    H228664   2.670   6.177   5.103 -0.8246 -1.1209  0.2949
 2417TIP3   OH228665   2.408   5.991  15.524  0.2318  0.6781 -0.0394
 2417TIP3    H128666   2.485   6.025  15.568  1.4335 -0.7756 -0.9844
 2417TIP3    H228667   2.378   6.063  15.469  1.9763  0.6651 -1.0374
 2418TIP3   OH228668   4.292   0.515  13.844  0.8597  0.3146  0.8560
 2418TIP3    H128669   4.304   0.599  13.799 -0.2545 -0.6438 -1.2977
 2418TIP3    H228670   4.359   0.458  13.807 -0.5984 -0.7248 -0.2155
 2419TIP3   OH228671   4.744   5.852  13.079 -0.4987  0.5197  0.5162
 2419TIP3    H128672   4.804   5.881  13.149 -0.1834  0.8696  0.1024
 2419TIP3    H228673   4.682   5.794  13.124  0.1146  0.1940  0.9625
 2420TIP3   OH228674   1.641   2.884  14.445  0.2251 -0.6945  0.4991
 2420TIP3    H128675   1.575   2.951  14.425 -0.9728 -2.1469 -0.5325
 2420TIP3    H228676   1.610   2.843  14.525  0.0612 -1.1255  0.2179
 2421TIP3   OH228677   4.335   0.459   0.796  0.3599  0.0250  0.2579
 2421TIP3    H128678   4.354   0.379   0.845  0.4023 -0.6731 -0.8615
 2421TIP3    H228679   4.348   0.530   0.859  1.7717 -0.7448  0.8644
 2422TIP3   OH228680   3.154   2.484   3.419  0.3665  0.3725  0.5181
 2422TIP3    H128681   3.215   2.421   3.454  0.2556  0.1130  0.2492
 2422TIP3    H228682   3.071   2.437   3.412  0.4456  0.3393 -0.3205
 2423TIP3   OH228683   1.760   2.402  14.922 -0.0778 -0.2255 -0.0755
 2423TIP3    H128684   1.710   2.484  14.920  0.7124  0.2572  0.0331
 2423TIP3    H228685   1.846   2.426  14.887  0.2355 -0.9575  0.2032
 2424TIP3   OH228686   4.289   5.261   1.214 -0.3962  0.4177  0.1578
 2424TIP3    H128687   4.336   5.191   1.168  1.2860  0.5857  1.5528
 2424TIP3    H228688   4.299   5.338   1.158  0.2207  0.2146 -0.0160
 2425TIP3   OH228689   0.505   2.769  11.329  0.4383  0.6760 -0.5536
 2425TIP3    H128690   0.510   2.759  11.234 -0.7877  0.0851 -0.5612
 2425TIP3    H228691   0.561   2.699  11.363  0.3361  0.4594 -0.8273
 2426TIP3   OH228692   2.058   3.682   5.788  0.1718 -0.2243  0.0822
 2426TIP3    H128693   2.040   3.596   5.826  5.6117 -2.5365 -2.1390
 2426TIP3    H228694   2.053   3.668   5.694 -1.2053  2.5598 -0.3089
 2427TIP3   OH228695   1.400   5.019  12.940  0.4023 -0.5348 -0.1693
 2427TIP3    H128696   1.333   5.055  12.999  0.1144  0.2302 -0.9499
 2427TIP3    H228697   1.381   4.925  12.937 -1.8850 -0.0602 -1.9176
 2428TIP3   OH228698   4.528   4.365   2.232 -0.3161  0.4090 -0.5073
 2428TIP3    H128699   4.558   4.280   2.201 -0.1558 -0.3613  1.7295
 2428TIP3    H228700   4.606   4.407   2.269 -1.0361  0.2161  1.2756
 2429TIP3   OH228701   1.575   2.154  14.141 -0.4740 -0.0986  0.1976
 2429TIP3    H128702   1.545   2.243  14.159  0.7225 -0.2967  3.4146
 2429TIP3    H228703   1.622   2.161  14.058 -0.9047  2.1576  0.1227
 2430TIP3   OH228704   1.617   3.963  14.395 -0.1733  0.3045  0.8444
 2430TIP3    H128705   1.658   3.878  14.378 -0.9814  0.5462 -2.8201
 2430TIP3    H228706   1.691   4.023  14.405  0.4441 -0.0601 -1.1696
 2431TIP3   OH228707   3.175   0.903   3.309  0.0244 -0.8488 -0.3352
 2431TIP3    H128708   3.177   0.959   3.387 -1.7432 -0.6000 -0.4476
 2431TIP3    H228709   3.233   0.947   3.247 -2.2412  1.5672 -0.8476
 2432TIP3   OH228710   3.183   4.837  16.567  0.1862 -0.1655 -0.3763
 2432TIP3    H128711   3.133   4.819  16.487 -0.2754 -1.2167  0.1352
 2432TIP3    H228712   3.140   4.913  16.606  1.0470  0.9923 -1.6404
 2433TIP3   OH228713   2.656   3.544  14.436  0.4743 -0.1704 -0.0252
 2433TIP3    H128714   2.749   3.545  14.414  0.6937 -1.0067  0.8448
 2433TIP3    H228715   2.653   3.513  14.527 -0.5554  1.1653  0.4224
 2434TIP3   OH228716   1.718   0.442  12.588 -0.4188 -0.0258  0.5008
 2434TIP3    H128717   1.781   0.454  12.517  1.2341  3.1381  2.4049
 2434TIP3    H228718   1.642   0.495  12.563 -0.9087 -0.9857 -0.0905
 2435TIP3   OH228719   1.820   3.415  13.122  0.0670 -0.0240  0.4566
 2435TIP3    H128720   1.897   3.385  13.073  0.4394 -0.5440  1.3523
 2435TIP3    H228721   1.745   3.380  13.073  0.3762  0.9959 -0.7592
 2436TIP3   OH228722   3.516   1.952   5.240  0.2073  0.5081 -0.1525
 2436TIP3    H128723   3.578   1.932   5.310 -0.3070  1.3466  0.5398
 2436TIP3    H228724   3.529   2.045   5.221 -1.2874  0.8454  0.4363
 2437TIP3   OH228725   5.633   3.391   4.965 -0.6606 -0.1309 -0.4167
 2437TIP3    H128726   5.571   3.321   4.945 -1.7034  0.7015 -0.1497
 2437TIP3    H228727   5.586   3.471   4.945 -0.0876  0.5676  0.9415
 2438TIP3   OH228728   4.802   2.921   1.166  0.3983  0.3938  0.3872
 2438TIP3    H128729   4.730   2.890   1.111 -0.1823  3.4447 -0.6698
 2438TIP3    H228730   4.852   2.842   1.188 -1.7598 -1.4110 -1.0560
 2439TIP3   OH228731   3.935   5.194   4.831  0.8211  0.3153  0.1015
 2439TIP3    H128732   4.007   5.249   4.800  1.6825  0.0698  1.6348
 2439TIP3    H228733   3.975   5.137   4.897 -0.9494  0.6879  1.5214
 2440TIP3   OH228734   1.883   3.041   1.341 -0.2316 -0.1412 -0.4421
 2440TIP3    H128735   1.840   3.104   1.284 -1.2762  0.2198  0.7249
 2440TIP3    H228736   1.853   2.956   1.310 -1.4868  0.0920  0.1067
 2441TIP3   OH228737   1.820   6.371   3.358 -0.2394  0.2565  0.1335
 2441TIP3    H128738   1.849   6.332   3.440 -0.5256 -1.1182 -0.3972
 2441TIP3    H228739   1.728   6.345   3.350 -0.9441  2.5259  0.6121
 2442TIP3   OH228740   5.349   5.408  12.666 -0.1843  0.1999 -0.1557
 2442TIP3    H128741   5.432   5.429  12.708  0.5302 -0.6581 -1.1075
 2442TIP3    H228742   5.373   5.348  12.595 -1.4809  0.7343 -1.0720
 2443TIP3   OH228743   6.434   2.789   5.511  0.3634  0.1225  0.0041
 2443TIP3    H128744   6.349   2.831   5.519 -0.0198 -0.5960 -0.2964
 2443TIP3    H228745   6.435   2.752   5.423  0.7135 -0.4650  0.2508
 2444TIP3   OH228746   1.559   1.275  12.854 -1.0434  0.5295  0.1376
 2444TIP3    H128747   1.524   1.193  12.889  2.8709 -1.0744  0.5043
 2444TIP3    H228748   1.585   1.325  12.932 -1.2993  1.1399 -0.1637
 2445TIP3   OH228749   4.200   4.169   2.245 -0.0508  0.7728 -0.0149
 2445TIP3    H128750   4.110   4.188   2.219 -0.2252  1.0729  0.7806
 2445TIP3    H228751   4.242   4.139   2.165 -1.2341 -0.7523 -0.0926
 2446TIP3   OH228752   2.576   1.623  14.104  0.0701 -0.1564 -0.0339
 2446TIP3    H128753   2.658   1.671  14.091  0.4027 -0.6290  0.2747
 2446TIP3    H228754   2.527   1.675  14.167  0.1386  0.1257 -0.2160
 2447TIP3   OH228755   1.252   5.600  13.095  0.0453  0.1400  0.1966
 2447TIP3    H128756   1.191   5.532  13.065  0.5155 -0.4504  0.5787
 2447TIP3    H228757   1.323   5.552  13.136 -1.2487  0.9461  3.5478
 2448TIP3   OH228758   4.588   2.873   0.725 -0.5788  0.6726 -0.1317
 2448TIP3    H128759   4.533   2.827   0.662  0.6242  0.7707 -1.2909
 2448TIP3    H228760   4.673   2.881   0.681 -0.0655  1.8209  1.0235
 2449TIP3   OH228761   2.175   4.448  16.824 -0.1171  0.2636  0.5796
 2449TIP3    H128762   2.199   4.540  16.811  0.4514  0.0537  0.0991
 2449TIP3    H228763   2.192   4.431  16.916 -0.5076  0.7243  0.7372
 2450TIP3   OH228764   6.766   0.330  11.044 -0.1038  0.3012  0.4553
 2450TIP3    H128765   6.814   0.281  11.112 -0.0090 -1.2043 -0.6806
 2450TIP3    H228766   6.811   0.308  10.963 -1.7715  0.0989 -0.4315
 2451TIP3   OH228767   3.138   5.233   1.155  0.4268 -0.7448 -0.0185
 2451TIP3    H128768   3.090   5.159   1.194  0.6495 -0.5088  0.7106
 2451TIP3    H228769   3.150   5.208   1.064 -0.1203 -1.3002  0.0596
 2452TIP3   OH228770   5.141   0.678   0.028  0.0947 -0.3444 -0.2941
 2452TIP3    H128771   5.070   0.615   0.021  0.7695 -1.0063 -1.3521
 2452TIP3    H228772   5.170   0.672   0.119 -1.2007 -0.0638  0.1433
 2453TIP3   OH228773   4.244   0.669   0.553 -0.0252 -0.0980  0.0408
 2453TIP3    H128774   4.294   0.616   0.490 -0.4828  0.6724 -0.9938
 2453TIP3    H228775   4.297   0.748   0.565  0.1010 -0.2840  0.6862
 2454TIP3   OH228776   4.106   4.347   3.527 -0.4574 -0.0734 -0.4804
 2454TIP3    H128777   4.025   4.334   3.575 -0.6597 -0.2841 -0.8727
 2454TIP3    H228778   4.129   4.438   3.542 -1.3259  0.2738 -1.2241
 2455TIP3   OH228779   6.407   0.032  13.158 -0.4847  0.1004  0.4167
 2455TIP3    H128780   6.433   0.073  13.076  1.1597  0.1641  0.9571
 2455TIP3    H228781   6.313   0.048  13.163 -0.5309  0.4651 -1.2379
 2456TIP3   OH228782   4.381   3.584   1.142 -0.0780 -0.1142 -0.4447
 2456TIP3    H128783   4.432   3.522   1.193 -1.2497 -0.7146 -0.0035
 2456TIP3    H228784   4.400   3.562   1.051  0.5617 -0.2314 -0.2862
 2457TIP3   OH228785   2.883   4.645   4.025  0.1091 -0.1274 -0.1186
 2457TIP3    H128786   2.796   4.633   3.987 -0.4412 -1.9005  1.6544
 2457TIP3    H228787   2.931   4.566   4.002  1.1363  0.6641 -0.7333
 2458TIP3   OH228788   4.714   0.493   1.287  0.2346  0.0292 -0.1582
 2458TIP3    H128789   4.692   0.502   1.379 -1.6151 -0.1304 -0.5735
 2458TIP3    H228790   4.713   0.398   1.272 -1.0846  0.1278 -0.7211
 2459TIP3   OH228791   2.284   3.367  14.119 -0.2587  0.2071  0.2920
 2459TIP3    H128792   2.207   3.372  14.176 -1.8180  3.4584 -1.9373
 2459TIP3    H228793   2.354   3.409  14.169 -0.4802 -0.8191  1.4778
 2460TIP3   OH228794   1.245   1.318   1.008 -0.2150  0.2171 -0.1937
 2460TIP3    H128795   1.291   1.336   0.925 -1.3151  0.0480 -0.8449
 2460TIP3    H228796   1.209   1.230   0.997 -3.1896  1.4792 -0.8461
 2461TIP3   OH228797   3.073   4.046  16.851 -0.2204 -0.1059 -0.7351
 2461TIP3    H128798   3.142   3.979  16.853 -1.7874 -1.7967 -1.4422
 2461TIP3    H228799   3.042   4.051  16.941 -0.1687 -0.4375 -0.6980
 2462TIP3   OH228800   5.898   6.193   5.524 -0.2788  0.4698  0.1209
 2462TIP3    H128801   5.942   6.205   5.608  1.4294  0.8948 -0.8150
 2462TIP3    H228802   5.916   6.274   5.475  0.8651 -0.7778 -1.5915
 2463TIP3   OH228803   0.569   3.470  16.083 -0.7130 -0.1798  0.0084
 2463TIP3    H128804   0.600   3.538  16.023 -2.2822 -1.6659 -2.5760
 2463TIP3    H228805   0.539   3.519  16.160  0.7745  1.8271 -0.6256
 2464TIP3   OH228806   4.952   4.647  10.979  0.4423 -0.2049 -0.0288
 2464TIP3    H128807   4.976   4.582  10.912  2.7067  1.2026 -0.6428
 2464TIP3    H228808   4.856   4.647  10.978  0.3452 -3.9849  0.4549
 2465TIP3   OH228809   2.996   3.941   2.304 -0.6481 -0.4128  0.1006
 2465TIP3    H128810   2.951   3.974   2.227 -1.1074 -0.2283  0.4431
 2465TIP3    H228811   3.088   3.963   2.291 -0.8970  0.6402  0.1483
 2466TIP3   OH228812   5.995   3.900  13.615 -0.1812  0.3601  0.3040
 2466TIP3    H128813   6.085   3.898  13.585 -0.7532  0.5739 -1.4557
 2466TIP3    H228814   6.001   3.918  13.709  1.5843  0.5528  0.1583
 2467TIP3   OH228815   6.504   3.521  11.806  0.4679 -0.1221 -0.7271
 2467TIP3    H128816   6.418   3.518  11.763  0.2736  1.8087 -0.4884
 2467TIP3    H228817   6.518   3.613  11.826  2.5326 -0.4378 -0.6077
 2468TIP3   OH228818   2.078   1.442   1.716 -0.5393 -0.2877  0.2625
 2468TIP3    H128819   2.096   1.493   1.637 -3.6760  1.8430  0.8053
 2468TIP3    H228820   2.149   1.463   1.776  0.1444  0.6115 -0.8496
 2469TIP3   OH228821   0.235   6.667   2.927 -0.0773  0.1101  0.7112
 2469TIP3    H128822   0.193   6.581   2.928 -1.0102  0.5259 -0.6083
 2469TIP3    H228823   0.279   6.672   2.842 -1.0929  1.4030  0.2350
 2470TIP3   OH228824   2.147   1.246  12.315 -0.0082 -0.1894  0.5262
 2470TIP3    H128825   2.176   1.157  12.337  0.3733 -0.0620  0.5463
 2470TIP3    H228826   2.161   1.253  12.221  0.0238 -0.1297  0.5347
 2471TIP3   OH228827   3.814   4.216   1.571  0.7648 -0.2629 -0.1345
 2471TIP3    H128828   3.825   4.299   1.525 -0.4101 -0.1326 -0.1860
 2471TIP3    H228829   3.752   4.166   1.517  0.0490 -0.4509  0.8418
 2472TIP3   OH228830   1.954   0.911  15.184 -0.6406  0.0850  0.1588
 2472TIP3    H128831   2.019   0.968  15.143  0.7010 -1.1157  0.5791
 2472TIP3    H228832   1.981   0.908  15.276 -0.4314 -1.5673  0.0586
 2473TIP3   OH228833   0.297   6.193   3.821  0.3452 -0.0986  1.1042
 2473TIP3    H128834   0.302   6.215   3.914 -0.1002  1.5191  0.7776
 2473TIP3    H228835   0.224   6.246   3.788  1.8422  0.9992 -0.5792
 2474TIP3   OH228836   5.481   1.292  14.356 -0.2838  0.1078 -0.1223
 2474TIP3    H128837   5.507   1.256  14.271  2.1113 -1.1009  1.0654
 2474TIP3    H228838   5.386   1.301  14.350 -0.3739 -1.6682 -2.2868
 2475TIP3   OH228839   4.503   0.497  11.328  0.1418 -0.0193  0.3003
 2475TIP3    H128840   4.535   0.408  11.342 -2.2412 -0.7878  1.0756
 2475TIP3    H228841   4.430   0.487  11.266  0.1867  1.4625 -0.0092
 2476TIP3   OH228842   3.927   5.769  17.078 -0.5219  0.6528 -0.4773
 2476TIP3    H128843   3.896   5.680  17.098 -1.2497  0.6490 -1.6261
 2476TIP3    H228844   3.922   5.815  17.162  0.9339 -0.6969  0.3978
 2477TIP3   OH228845   6.449   4.971   1.935  0.2796 -0.0314  0.2548
 2477TIP3    H128846   6.401   4.894   1.968  0.3974 -0.0500  0.3788
 2477TIP3    H228847   6.499   5.003   2.010  1.6705 -0.9333 -0.2652
 2478TIP3   OH228848   6.171   3.390   4.979  0.4670  0.3959  0.3632
 2478TIP3    H128849   6.087   3.424   4.948  0.3728 -2.5677 -2.9452
 2478TIP3    H228850   6.236   3.444   4.935  0.3048  0.3389  0.0503
 2479TIP3   OH228851   5.791   5.118   0.866 -0.3843 -0.1447  0.3996
 2479TIP3    H128852   5.752   5.153   0.946  0.9538  1.1842  0.4912
 2479TIP3    H228853   5.851   5.186   0.837 -1.0151 -0.4908 -1.8711
 2480TIP3   OH228854   0.061   1.382  12.528 -0.2798  0.3792 -0.2489
 2480TIP3    H128855   0.095   1.471  12.526  0.9404 -0.0937 -1.6051
 2480TIP3    H228856  -0.007   1.384  12.596  0.0845  2.1958  0.1035
 2481TIP3   OH228857   2.302   3.325   3.538 -0.1235  0.3382  0.2349
 2481TIP3    H128858   2.329   3.240   3.505  1.2703  1.0522 -0.5326
 2481TIP3    H228859   2.262   3.307   3.623 -0.8371 -1.1806 -0.4058
 2482TIP3   OH228860   1.300   1.393   0.441 -0.0922  0.1336 -0.2450
 2482TIP3    H128861   1.229   1.399   0.504 -1.3371 -0.8303 -1.5213
 2482TIP3    H228862   1.379   1.412   0.491 -1.2787  1.4807  1.1277
 2483TIP3   OH228863   0.932   1.289  13.975 -0.0465 -0.2210 -0.4602
 2483TIP3    H128864   0.851   1.251  14.009  0.3292 -0.4041  0.2410
 2483TIP3    H228865   0.920   1.384  13.984 -0.1079 -0.2554 -0.1762
 2484TIP3   OH228866   1.313   0.455   2.893 -0.4197 -0.0918  0.4554
 2484TIP3    H128867   1.333   0.382   2.952  0.7438  0.0230  0.2031
 2484TIP3    H228868   1.392   0.468   2.842 -0.9363  0.7504 -0.1488
 2485TIP3   OH228869   6.691   2.913  16.215 -0.2222 -0.4378  0.2917
 2485TIP3    H128870   6.712   2.875  16.301  0.1940 -1.6034 -0.3061
 2485TIP3    H228871   6.605   2.877  16.194 -0.1521 -0.4597  0.0449
 2486TIP3   OH228872   0.849   2.953  12.784  0.1509 -0.6980 -0.0967
 2486TIP3    H128873   0.837   2.993  12.870  1.7601 -1.0433  0.2967
 2486TIP3    H228874   0.845   3.026  12.722 -4.1909 -0.7808 -0.0759
 2487TIP3   OH228875   5.650   5.747  11.135  0.2993  0.0143 -0.2284
 2487TIP3    H128876   5.715   5.782  11.075 -0.5157 -0.4583 -1.4000
 2487TIP3    H228877   5.593   5.822  11.155  0.4747  0.1337 -0.1773
 2488TIP3   OH228878   0.572   0.872   0.390  0.6580 -0.3564 -0.1099
 2488TIP3    H128879   0.540   0.902   0.475  2.7793 -1.0909  0.9702
 2488TIP3    H228880   0.521   0.793   0.373 -1.1052  0.8012 -0.4435
 2489TIP3   OH228881   3.286   0.475   0.552 -0.1350 -0.3126  0.3749
 2489TIP3    H128882   3.331   0.536   0.494 -0.2315 -1.0166 -0.4545
 2489TIP3    H228883   3.254   0.529   0.625  0.3740  0.4993 -0.0046
 2490TIP3   OH228884   0.049   5.196   2.044 -0.0771  0.9846 -0.0921
 2490TIP3    H128885   0.051   5.236   1.957  0.6527  1.0664 -0.0390
 2490TIP3    H228886   0.135   5.154   2.053  0.4775  2.3895  1.2527
 2491TIP3   OH228887   2.972   5.253  15.869  0.7275  0.1650  0.1817
 2491TIP3    H128888   3.037   5.323  15.863 -0.5847  1.5488  1.6118
 2491TIP3    H228889   2.923   5.259  15.788  2.0505 -0.5618 -0.6832
 2492TIP3   OH228890   3.817   0.054  17.146  0.0464  0.3927  0.1447
 2492TIP3    H128891   3.899   0.031  17.189  0.6902  2.6882  0.2143
 2492TIP3    H228892   3.843   0.089  17.061 -0.9502 -0.2668 -0.4430
 2493TIP3   OH228893   5.457   5.481  14.104 -0.0943 -0.8558 -0.0719
 2493TIP3    H128894   5.363   5.494  14.092 -0.4002 -0.4798  2.4445
 2493TIP3    H228895   5.468   5.386  14.112 -0.1880 -0.9298 -0.7767
 2494TIP3   OH228896   5.470   5.195  11.993  0.3504  0.1402  0.1562
 2494TIP3    H128897   5.499   5.234  12.076 -1.8259 -0.2317  1.1550
 2494TIP3    H228898   5.376   5.181  12.006  0.7381 -3.7989 -0.8402
 2495TIP3   OH228899   5.030   3.663   2.363  0.2682 -0.0519 -0.4407
 2495TIP3    H128900   5.029   3.738   2.422  0.6993 -0.3177 -0.0876
 2495TIP3    H228901   5.118   3.626   2.373 -0.0301 -0.7699 -0.3993
 2496TIP3   OH228902   0.217   0.772  11.573 -0.2929  0.4612  0.0506
 2496TIP3    H128903   0.299   0.817  11.552  1.0970 -1.7236  0.5322
 2496TIP3    H228904   0.162   0.784  11.496  1.8873 -1.0856 -1.8150
 2497TIP3   OH228905   5.436   4.721   2.097 -0.4175  0.1144 -0.3180
 2497TIP3    H128906   5.484   4.795   2.135 -0.6989 -0.4127  1.0977
 2497TIP3    H228907   5.482   4.644   2.130 -1.4949 -0.3747  0.0459
 2498TIP3   OH228908   0.066   6.326   6.385 -0.2265  0.0398  0.0435
 2498TIP3    H128909   0.137   6.316   6.448 -0.0845 -1.1751 -0.2913
 2498TIP3    H228910   0.020   6.243   6.387 -1.5544  0.7679  0.1391
 2499TIP3   OH228911   3.424   1.288  12.231 -0.2184  0.2191 -0.3324
 2499TIP3    H128912   3.413   1.382  12.217  0.8744  0.6448  1.5592
 2499TIP3    H228913   3.471   1.257  12.154  1.4902  1.6494  0.1299
 2500TIP3   OH228914   4.143   3.354   0.085 -0.0355 -0.0305  0.3069
 2500TIP3    H128915   4.056   3.356   0.127 -1.3209 -1.1098 -2.2135
 2500TIP3    H228916   4.140   3.426   0.022  0.7542 -0.3615 -0.1041
 2501TIP3   OH228917   4.943   5.405  16.265 -0.1771 -0.0566 -0.2653
 2501TIP3    H128918   4.969   5.467  16.333  1.1849 -1.7665  0.8522
 2501TIP3    H228919   4.855   5.432  16.240  0.0295  1.7479  0.8462
 2502TIP3   OH228920   5.371   0.198   3.391  0.5207  0.3558  0.6790
 2502TIP3    H128921   5.434   0.268   3.406  0.8661 -0.0253  1.0629
 2502TIP3    H228922   5.348   0.204   3.298  3.3906 -1.3349 -0.2133
 2503TIP3   OH228923   4.921   2.797   5.635  0.1262  0.2277  0.1231
 2503TIP3    H128924   4.976   2.789   5.557  0.4744 -2.4740  0.5713
 2503TIP3    H228925   4.835   2.820   5.601 -0.0619 -2.2950 -1.2319
 2504TIP3   OH228926   6.289   3.181   1.060  0.0161  0.2038 -0.6291
 2504TIP3    H128927   6.250   3.130   1.131  1.1259 -0.0409 -0.1842
 2504TIP3    H228928   6.222   3.180   0.991 -1.5378  1.4322  0.8265
 2505TIP3   OH228929   4.446   0.368  12.280 -0.5745 -0.2265  0.0498
 2505TIP3    H128930   4.521   0.329  12.234  0.6900 -0.6754  2.3848
 2505TIP3    H228931   4.382   0.298  12.284 -0.0415 -0.7048  0.3768
 2506TIP3   OH228932   1.187   4.666  11.357 -0.0648 -0.0558 -0.4470
 2506TIP3    H128933   1.128   4.722  11.408  1.0546  0.8048 -0.0994
 2506TIP3    H228934   1.215   4.720  11.283  0.5825 -0.3515 -0.4210
 2507TIP3   OH228935   3.637   2.761  17.090 -0.1136  0.4613 -0.3222
 2507TIP3    H128936   3.561   2.756  17.147 -0.4001  2.3187 -0.5174
 2507TIP3    H228937   3.705   2.802  17.144  1.5339 -3.3060  0.6188
 2508TIP3   OH228938   0.296   1.311   2.593  0.0638 -0.2414 -0.1800
 2508TIP3    H128939   0.214   1.281   2.631  0.2481  0.3561  0.7062
 2508TIP3    H228940   0.343   1.231   2.571 -0.9411 -0.5881 -1.1326
 2509TIP3   OH228941   2.212   1.098  16.871  0.0186 -0.2019  0.1455
 2509TIP3    H128942   2.128   1.091  16.825 -0.3254  1.5757  0.4476
 2509TIP3    H228943   2.190   1.077  16.962  0.4324 -2.3438 -0.2189
 2510TIP3   OH228944   5.207   4.534   2.568 -0.1589 -0.0993  0.1704
 2510TIP3    H128945   5.301   4.519   2.567 -0.1669 -0.1618  0.3138
 2510TIP3    H228946   5.170   4.450   2.597 -0.2342  0.0513  0.5104
 2511TIP3   OH228947   0.245   4.477   3.701  0.2634 -0.7064 -0.5621
 2511TIP3    H128948   0.244   4.385   3.677  1.8605 -1.0525  0.6186
 2511TIP3    H228949   0.232   4.477   3.796  0.5444  0.2580 -0.5195
 2512TIP3   OH228950   1.756   5.437  15.278 -0.0415  0.8645  0.8536
 2512TIP3    H128951   1.694   5.369  15.251  0.1597  0.2011  2.0550
 2512TIP3    H228952   1.702   5.516  15.288 -0.5439  0.5031  1.0085
 2513TIP3   OH228953   4.328   0.008   0.745  0.2184  0.1978 -0.4522
 2513TIP3    H128954   4.262  -0.008   0.678  1.2737 -2.4125 -0.9312
 2513TIP3    H228955   4.296  -0.039   0.822  1.0993 -0.4079 -0.4474
 2514TIP3   OH228956   3.521   2.475  12.605 -0.3326  0.4544 -0.0831
 2514TIP3    H128957   3.468   2.541  12.560 -1.0025  1.7029  2.4632
 2514TIP3    H228958   3.571   2.524  12.670  0.8635 -1.2680  0.3385
 2515TIP3   OH228959   0.413   0.576   1.155 -0.0136 -0.2396  0.0669
 2515TIP3    H128960   0.501   0.562   1.121  1.2723 -0.5826  3.4363
 2515TIP3    H228961   0.370   0.491   1.148 -0.0740 -0.0959 -1.4752
 2516TIP3   OH228962   2.739   6.126  12.939 -0.4119  0.0590 -0.1996
 2516TIP3    H128963   2.753   6.046  12.991 -0.1724  1.3606  1.7906
 2516TIP3    H228964   2.652   6.156  12.966 -0.0136  1.0984 -0.0470
 2517TIP3   OH228965   6.577   3.362   3.429  0.2434 -0.7690  0.1104
 2517TIP3    H128966   6.491   3.324   3.412 -0.5387  0.0245  2.1678
 2517TIP3    H228967   6.574   3.390   3.521  1.9894  1.1069 -0.3512
 2518TIP3   OH228968   5.674   2.422   3.262  0.0749 -0.4076  0.0050
 2518TIP3    H128969   5.645   2.359   3.197 -0.5962 -0.7409  0.6175
 2518TIP3    H228970   5.696   2.369   3.339  0.1266  0.0471  0.3078
 2519TIP3   OH228971   0.996   3.489  12.754  0.4235 -0.2208  0.1915
 2519TIP3    H128972   1.049   3.476  12.675  1.6941  1.5803  0.7195
 2519TIP3    H228973   1.031   3.569  12.793 -1.2009 -0.2663  1.7791
 2520TIP3   OH228974   0.996   3.006   5.935  0.5178  0.5013  0.4955
 2520TIP3    H128975   0.934   3.034   5.868  0.8359 -1.2533 -0.5513
 2520TIP3    H228976   1.082   3.027   5.897  0.6934 -0.3949  0.3951
 2521TIP3   OH228977   6.017   4.155   4.498  0.1369 -0.4808 -0.0328
 2521TIP3    H128978   5.989   4.063   4.495 -0.9102 -0.1340 -1.2142
 2521TIP3    H228979   6.111   4.152   4.481 -0.2621 -1.1883 -2.3199
 2522TIP3   OH228980   6.445   1.171  11.744 -0.1230 -0.1771  0.0489
 2522TIP3    H128981   6.386   1.200  11.813  0.1466  1.2681 -0.3045
 2522TIP3    H228982   6.509   1.115  11.789 -2.7854 -3.3022  0.1295
 2523TIP3   OH228983   6.744   0.408   5.983  0.6436  0.0287 -0.5502
 2523TIP3    H128984   6.747   0.377   6.074  0.4906 -2.0450 -1.2384
 2523TIP3    H228985   6.836   0.425   5.962  0.4404  3.2020  0.8616
 2524TIP3   OH228986   2.012   3.041   2.001 -0.8583 -0.3483  0.7056
 2524TIP3    H128987   2.088   3.031   2.057 -0.3805 -3.8660 -0.4060
 2524TIP3    H228988   1.937   3.041   2.061 -0.0955  1.3047  1.6742
 2525TIP3   OH228989   3.693   6.003   6.863 -0.5198 -0.4632  0.0718
 2525TIP3    H128990   3.767   5.961   6.906 -0.3965 -0.1270  0.1904
 2525TIP3    H228991   3.619   5.946   6.881 -0.3065 -0.7538  0.0279
 2526TIP3   OH228992   5.607   0.230  12.202  0.1720 -0.5503  0.7547
 2526TIP3    H128993   5.586   0.141  12.174  4.0092 -1.3678  0.1637
 2526TIP3    H228994   5.661   0.265  12.131 -1.2125  2.2510  1.0301
 2527TIP3   OH228995   6.752   2.418   0.490  0.0278  0.1497  0.0787
 2527TIP3    H128996   6.841   2.453   0.503 -0.1964  0.8485 -0.2207
 2527TIP3    H228997   6.763   2.343   0.432  0.3963  0.3737 -0.1397
 2528TIP3   OH228998   0.905   5.570  13.416  0.7149  0.4447 -0.3989
 2528TIP3    H128999   0.877   5.495  13.364 -0.3766  1.1441 -0.8506
 2528TIP3    H229000   1.000   5.573  13.407  0.9679 -1.9308  1.0643
 2529TIP3   OH229001   4.442   4.016   1.860  0.1319  0.2917 -0.4459
 2529TIP3    H129002   4.358   4.053   1.889  0.0537  0.0074 -0.3099
 2529TIP3    H229003   4.468   3.957   1.931  0.5500  0.5338 -0.3933
 2530TIP3   OH229004   0.509   5.847   0.498 -0.2104 -0.0702 -0.1858
 2530TIP3    H129005   0.521   5.792   0.575 -0.0599  0.2996  0.0547
 2530TIP3    H229006   0.556   5.800   0.428 -3.4071 -2.2906 -0.9450
 2531TIP3   OH229007   4.841   2.227  11.187  0.4105  0.1984  0.7008
 2531TIP3    H129008   4.884   2.302  11.146  0.8871 -0.4638 -0.0270
 2531TIP3    H229009   4.785   2.191  11.119  0.2171 -0.1345  1.0350
 2532TIP3   OH229010   0.269   4.528  10.397 -0.0575 -0.2797  0.4331
 2532TIP3    H129011   0.274   4.610  10.446 -1.6745  0.3364 -0.3812
 2532TIP3    H229012   0.338   4.474  10.434 -0.3301  0.6776  2.4334
 2533TIP3   OH229013   4.441   6.505  16.585  0.4546  0.1594 -0.4680
 2533TIP3    H129014   4.414   6.511  16.493  1.5171  0.4190 -0.7640
 2533TIP3    H229015   4.362   6.530  16.634 -0.1070  0.0584 -1.3043
 2534TIP3   OH229016   0.098   3.367  13.027  0.1855 -0.4584  0.7793
 2534TIP3    H129017   0.050   3.319  12.959 -1.3689  1.0304  0.7920
 2534TIP3    H229018   0.089   3.459  13.003  3.0162 -0.1159  0.8467
 2535TIP3   OH229019   0.682   5.630   1.339 -0.6187 -0.4365  0.1687
 2535TIP3    H129020   0.682   5.717   1.379  0.8285 -0.5465  0.4491
 2535TIP3    H229021   0.592   5.599   1.347 -1.1824  1.1226 -0.1186
 2536TIP3   OH229022   3.428   6.422   5.133  0.6979 -0.3797  0.7731
 2536TIP3    H129023   3.482   6.344   5.120 -1.0617 -1.2515 -1.7422
 2536TIP3    H229024   3.371   6.425   5.056 -0.1304  2.7110  1.4179
 2537TIP3   OH229025   0.185   3.274   3.663 -0.0709 -0.1551 -0.0079
 2537TIP3    H129026   0.277   3.300   3.653  0.0295  0.0769  1.5087
 2537TIP3    H229027   0.138   3.327   3.599  0.7278  0.4294 -0.1161
 2538TIP3   OH229028   5.146   1.652   1.708 -0.1964 -0.4846  0.2993
 2538TIP3    H129029   5.199   1.653   1.628  1.0480 -0.6710  1.1026
 2538TIP3    H229030   5.206   1.680   1.777 -1.5272  0.6831  1.0212
 2539TIP3   OH229031   1.165   3.925  13.118  0.0895  0.5518  0.3070
 2539TIP3    H129032   1.123   3.846  13.084  0.5010  0.1314  0.7631
 2539TIP3    H229033   1.140   3.994  13.056  0.3691 -0.0893 -0.5400
 2540TIP3   OH229034   5.885   4.256  14.880 -0.7713 -0.2139  0.1536
 2540TIP3    H129035   5.814   4.192  14.888  0.0215 -1.1892 -0.4214
 2540TIP3    H229036   5.840   4.340  14.866 -1.8838 -0.2430  3.2050
 2541TIP3   OH229037   2.332   0.854  15.718 -0.0657  0.5996 -0.1446
 2541TIP3    H129038   2.411   0.850  15.773 -0.2626 -0.7213  0.0455
 2541TIP3    H229039   2.332   0.944  15.685  1.2238  0.7836  0.2912
 2542TIP3   OH229040   6.424   3.472   4.879  0.2900 -0.2342  0.5574
 2542TIP3    H129041   6.438   3.384   4.915 -0.1321  0.0016  1.3078
 2542TIP3    H229042   6.511   3.502   4.855  0.3428 -1.2103 -0.5462
 2543TIP3   OH229043   3.005   1.851   5.481 -0.1764  0.6254  0.3893
 2543TIP3    H129044   3.042   1.913   5.544 -2.3793  0.7298  1.6266
 2543TIP3    H229045   2.967   1.782   5.535 -0.2927 -0.3383 -0.9110
 2544TIP3   OH229046   1.769   2.547  12.196  0.6920 -0.2922  0.1535
 2544TIP3    H129047   1.687   2.543  12.246  0.9119 -0.0159  0.5459
 2544TIP3    H229048   1.819   2.617  12.238  0.1587  1.1431 -1.5847
 2545TIP3   OH229049   6.206   3.000  11.346  0.1907 -0.0829  0.0648
 2545TIP3    H129050   6.296   3.014  11.375 -0.3883  0.1068  1.8117
 2545TIP3    H229051   6.207   2.912  11.307  0.6549 -0.9602  2.0254
 2546TIP3   OH229052   5.564   6.404   5.315  0.4017 -0.2842 -0.0894
 2546TIP3    H129053   5.481   6.380   5.274 -0.7549  0.8663  1.5047
 2546TIP3    H229054   5.582   6.332   5.376  0.9620 -0.8857 -0.9516
 2547TIP3   OH229055   6.361   0.964  17.219  0.3755  0.2791 -0.0714
 2547TIP3    H129056   6.392   1.027  17.283  0.6475 -0.1292  0.1979
 2547TIP3    H229057   6.276   0.935  17.253  0.5890 -0.0505  0.1816
 2548TIP3   OH229058   1.482   1.155  16.371  0.5431  0.3528  0.2489
 2548TIP3    H129059   1.389   1.141  16.390  0.5286  0.5665  0.3405
 2548TIP3    H229060   1.518   1.187  16.454  1.6851 -4.2426  1.6674
 2549TIP3   OH229061   6.339   3.381  14.866  0.3055 -0.4049 -0.6654
 2549TIP3    H129062   6.276   3.408  14.933  1.5346  1.7895 -0.3414
 2549TIP3    H229063   6.367   3.294  14.893 -2.2158 -1.2002 -0.5550
 2550TIP3   OH229064   1.920   6.171   0.235  0.9420  0.3817 -0.3538
 2550TIP3    H129065   1.932   6.254   0.189  0.5682  0.7169  0.1474
 2550TIP3    H229066   1.863   6.120   0.177 -1.4159  1.6675  0.7457
 2551TIP3   OH229067   5.755   6.630  12.541  0.3034  0.0226  0.3049
 2551TIP3    H129068   5.722   6.544  12.516 -1.3414  0.5166  0.6621
 2551TIP3    H229069   5.791   6.618  12.628  0.2519 -0.3497  0.2759
 2552TIP3   OH229070   6.374   5.382   2.972  0.0066 -0.8499  0.4107
 2552TIP3    H129071   6.385   5.425   3.057 -0.0748  0.3521 -0.1690
 2552TIP3    H229072   6.453   5.329   2.961 -0.0582 -1.1297  1.3091
 2553TIP3   OH229073   1.286   2.716  11.454  0.7946 -0.5437  0.2372
 2553TIP3    H129074   1.367   2.743  11.497 -1.1565  2.4376  2.2184
 2553TIP3    H229075   1.223   2.705  11.525 -0.9564 -1.2310 -1.3766
 2554TIP3   OH229076   4.238   4.936  10.964 -0.2598 -0.5285 -0.2310
 2554TIP3    H129077   4.232   4.946  10.869 -1.0525 -1.9349 -0.3364
 2554TIP3    H229078   4.332   4.937  10.982 -0.1030 -0.3178 -1.0251
 2555TIP3   OH229079   2.419   6.105   4.814 -0.5707 -0.2541  0.4129
 2555TIP3    H129080   2.361   6.173   4.849 -0.8097  0.1374 -0.7287
 2555TIP3    H229081   2.361   6.042   4.772 -0.2081 -0.1218 -0.2944
 2556TIP3   OH229082   6.553   2.903   3.224 -0.7962  0.0170 -0.4449
 2556TIP3    H129083   6.642   2.919   3.192 -1.2040 -1.0623 -2.1736
 2556TIP3    H229084   6.504   2.981   3.199 -0.1696  1.0085  1.2868
 2557TIP3   OH229085   5.801   5.465  16.279  0.1029 -0.2772 -0.2216
 2557TIP3    H129086   5.812   5.491  16.187  0.1326  0.5700  0.0207
 2557TIP3    H229087   5.745   5.533  16.317  2.7263  1.1500  1.2047
 2558TIP3   OH229088   6.744   3.413   1.505 -0.0681  0.0565 -0.4569
 2558TIP3    H129089   6.799   3.488   1.523  0.9813 -0.3654 -1.7728
 2558TIP3    H229090   6.699   3.435   1.423  0.2114 -0.7039 -0.8275
 2559TIP3   OH229091   2.847   4.882   5.089 -0.3604  0.0675 -0.2902
 2559TIP3    H129092   2.775   4.944   5.099  0.3311  0.5281  2.1748
 2559TIP3    H229093   2.848   4.862   4.996 -0.8671  3.4521 -1.0958
 2560TIP3   OH229094   0.600   0.603   1.856 -0.2827 -0.5031 -0.0244
 2560TIP3    H129095   0.526   0.555   1.893  1.1166 -1.6433  1.3711
 2560TIP3    H229096   0.636   0.653   1.930 -0.0540  0.5380 -0.8303
 2561TIP3   OH229097   4.056   5.560   3.153  0.2039  0.1919 -0.3608
 2561TIP3    H129098   4.103   5.494   3.102 -0.9819 -1.6903  0.9425
 2561TIP3    H229099   4.062   5.529   3.243 -2.0099  0.8603  0.0356
 2562TIP3   OH229100   4.611   6.354   1.374 -0.1152 -0.7415 -0.1446
 2562TIP3    H129101   4.574   6.288   1.315 -0.3804  0.5439 -1.4512
 2562TIP3    H229102   4.571   6.335   1.459 -1.5830 -1.1374 -0.9035
 2563TIP3   OH229103   0.057   6.327   5.337 -0.0420  0.1623  0.2553
 2563TIP3    H129104   0.041   6.377   5.257  0.7697  0.2579  0.1468
 2563TIP3    H229105  -0.023   6.338   5.388 -1.9152 -2.5930 -1.9249
 2564TIP3   OH229106   0.766   5.955  15.053 -0.0570  0.0237  0.0611
 2564TIP3    H129107   0.849   5.998  15.032 -0.8007  1.6457  0.3060
 2564TIP3    H229108   0.782   5.862  15.037  1.8362  0.2915  0.2193
 2565TIP3   OH229109   2.073   1.827  15.529  0.5289 -0.3718 -0.6753
 2565TIP3    H129110   2.146   1.768  15.510 -0.1207 -1.3428 -0.1690
 2565TIP3    H229111   2.027   1.835  15.446 -0.1134 -1.5937 -0.4493
 2566TIP3   OH229112   1.240   3.530   0.476  0.3448 -0.0206 -0.1109
 2566TIP3    H129113   1.264   3.525   0.569  1.4271  1.7271 -0.2807
 2566TIP3    H229114   1.192   3.612   0.468 -0.7181 -0.7066 -0.9031
 2567TIP3   OH229115   3.957   3.232   2.656  1.0451  0.2020 -0.4320
 2567TIP3    H129116   3.954   3.193   2.568 -0.7068  1.9817 -1.2101
 2567TIP3    H229117   3.942   3.325   2.640 -0.1779  0.4117  1.8498
 2568TIP3   OH229118   3.664   5.176   4.909  0.4268  0.0759 -0.1367
 2568TIP3    H129119   3.755   5.173   4.882  0.6026 -1.7186  0.5922
 2568TIP3    H229120   3.615   5.157   4.829  0.8939 -3.5141  0.3051
 2569TIP3   OH229121   5.976   5.337   3.285 -0.5361  0.4727 -0.4129
 2569TIP3    H129122   5.951   5.304   3.371 -0.1505 -0.4447 -0.6434
 2569TIP3    H229123   5.894   5.367   3.246 -0.5841  1.6708  0.5960
 2570TIP3   OH229124   2.800   5.542   3.247 -0.0615  0.5309 -0.1120
 2570TIP3    H129125   2.805   5.468   3.308 -0.1340  1.3446  0.8877
 2570TIP3    H229126   2.710   5.573   3.253  0.3828  1.7184  0.7061
 2571TIP3   OH229127   1.958   6.138  15.449 -0.5911  0.6767 -0.5431
 2571TIP3    H129128   1.992   6.201  15.512  1.4816 -1.1465  0.2408
 2571TIP3    H229129   1.953   6.187  15.367  0.0312  2.1208  0.2552
 2572TIP3   OH229130   6.324   1.077   3.430 -0.3712  0.7629  0.0330
 2572TIP3    H129131   6.353   1.168   3.440 -0.7105  1.0600 -1.6137
 2572TIP3    H229132   6.346   1.036   3.514  0.3202  2.2114  0.5811
 2573TIP3   OH229133   6.573   0.521   2.171 -0.2632  0.3176  0.3662
 2573TIP3    H129134   6.650   0.524   2.228 -0.7742  0.1989  1.0734
 2573TIP3    H229135   6.518   0.594   2.200 -0.2676  0.6089 -0.3585
 2574TIP3   OH229136   2.278   2.759   0.649 -0.7011  0.6418 -0.0131
 2574TIP3    H129137   2.255   2.666   0.650 -0.6383  0.5722 -2.5117
 2574TIP3    H229138   2.194   2.804   0.654 -0.8446  0.4362 -0.5403
 2575TIP3   OH229139   3.716   1.903   3.021  0.3063 -0.0580 -0.2661
 2575TIP3    H129140   3.664   1.824   3.032  0.5968 -0.4728 -1.7902
 2575TIP3    H229141   3.675   1.949   2.948  1.9912 -0.3421 -1.4131
 2576TIP3   OH229142   6.524   3.712  15.689 -0.9133  0.4995 -0.1849
 2576TIP3    H129143   6.573   3.794  15.679 -1.0295  0.8843  2.0739
 2576TIP3    H229144   6.577   3.646  15.644  0.5630  1.3246  0.2969
 2577TIP3   OH229145   6.252   5.544   3.464  0.0077 -0.3091 -0.0856
 2577TIP3    H129146   6.204   5.554   3.382 -2.6172  0.7998  1.5306
 2577TIP3    H229147   6.199   5.484   3.516  1.1757 -0.2774  1.1600
 2578TIP3   OH229148   0.021   5.918  14.381 -0.0166  0.2126  0.0285
 2578TIP3    H129149  -0.062   5.967  14.380  0.2194  0.6163  0.2724
 2578TIP3    H229150   0.089   5.985  14.371  0.2941 -0.0941  0.0800
 2579TIP3   OH229151   1.691   2.974  16.568 -0.1131  0.3009 -0.1193
 2579TIP3    H129152   1.780   3.009  16.568 -0.3992  1.0641  1.2742
 2579TIP3    H229153   1.701   2.880  16.577  0.5233  0.4746  0.9708
 2580TIP3   OH229154   5.891   4.854   6.105  0.0849 -0.1547 -0.3496
 2580TIP3    H129155   5.915   4.774   6.058  0.0278 -0.8043  0.7077
 2580TIP3    H229156   5.957   4.861   6.174 -0.6462  0.0206  0.3380
 2581TIP3   OH229157   2.590   3.126  15.427  0.0783  0.1664  0.1866
 2581TIP3    H129158   2.599   3.179  15.348 -1.7919  0.6255  0.2574
 2581TIP3    H229159   2.505   3.153  15.464  0.9559  0.0254  2.3788
 2582TIP3   OH229160   1.041   4.306  13.460  0.5704 -0.2929 -0.2937
 2582TIP3    H129161   1.003   4.389  13.490 -1.1281 -0.4394 -1.9189
 2582TIP3    H229162   1.043   4.251  13.537 -1.3379  0.1807  0.1291
 2583TIP3   OH229163   2.599   3.690  12.772 -0.1682 -0.0693 -0.1761
 2583TIP3    H129164   2.523   3.708  12.828  1.8514  1.3902  2.1828
 2583TIP3    H229165   2.563   3.691  12.683 -2.6817  2.0314  0.7814
 2584TIP3   OH229166   5.143   1.584   4.435 -0.4044  0.3190 -0.0140
 2584TIP3    H129167   5.229   1.608   4.401 -0.3914  0.4120  0.0853
 2584TIP3    H229168   5.104   1.666   4.463 -1.3539  0.5371 -1.9346
 2585TIP3   OH229169   5.628   5.620  16.851  0.2926  0.9565  0.2832
 2585TIP3    H129170   5.595   5.547  16.905 -1.4250  0.2413 -1.6537
 2585TIP3    H229171   5.720   5.598  16.836 -0.2785 -1.0518 -0.5643
 2586TIP3   OH229172   1.684   5.786  13.100 -0.6407  0.5660  0.4255
 2586TIP3    H129173   1.658   5.708  13.149 -0.5385  1.3585  1.7896
 2586TIP3    H229174   1.605   5.811  13.051 -1.2974  0.7519  1.5463
 2587TIP3   OH229175   6.759   5.390  15.190 -0.4559 -0.3915 -0.0247
 2587TIP3    H129176   6.675   5.435  15.190 -1.4944 -2.2591 -1.6674
 2587TIP3    H229177   6.743   5.309  15.142  1.9394 -1.4296  0.8507
 2588TIP3   OH229178   4.003   0.100   4.936  0.3407  0.0074 -0.0911
 2588TIP3    H129179   3.986   0.052   4.855 -0.8227 -0.0465  0.1758
 2588TIP3    H229180   4.083   0.151   4.918  0.7667 -0.9220 -0.8529
 2589TIP3   OH229181   5.032   0.566   5.243  0.0903  0.2835 -0.2561
 2589TIP3    H129182   5.111   0.521   5.272  0.1098  1.1755  1.1250
 2589TIP3    H229183   4.966   0.496   5.236  1.2850 -0.6757 -2.6898
 2590TIP3   OH229184   3.493   0.693   6.846 -0.9997  0.1498  0.1518
 2590TIP3    H129185   3.466   0.649   6.927 -1.6588  0.7590  0.2662
 2590TIP3    H229186   3.415   0.740   6.817 -0.8392 -0.2656 -0.9754
 2591TIP3   OH229187   0.783   3.634  12.843 -0.8545  0.0741 -0.4540
 2591TIP3    H129188   0.817   3.723  12.846 -1.6243  0.3362  0.8491
 2591TIP3    H229189   0.856   3.581  12.810 -0.2196  1.0977 -0.7043
 2592TIP3   OH229190   6.756   0.163   4.611 -0.4969 -0.3772 -0.0551
 2592TIP3    H129191   6.701   0.230   4.654  0.2626 -0.3374  0.8669
 2592TIP3    H229192   6.730   0.167   4.519 -1.8612 -0.1758  0.3252
 2593TIP3   OH229193   2.329   6.257   0.196  0.0794  0.0842 -0.2419
 2593TIP3    H129194   2.286   6.340   0.173  0.5306 -0.2230 -2.3734
 2593TIP3    H229195   2.352   6.266   0.288 -1.5703  1.5809  0.0443
 2594TIP3   OH229196   0.348   2.956   4.454  0.6724  0.1261 -0.2636
 2594TIP3    H129197   0.268   2.911   4.428 -0.6306  1.3887  1.5006
 2594TIP3    H229198   0.387   2.898   4.520  1.0953 -0.3626 -0.9349
 2595TIP3   OH229199   5.183   1.253  16.764  0.5960 -0.8622 -0.3014
 2595TIP3    H129200   5.208   1.302  16.842 -0.1350  0.2985 -0.7978
 2595TIP3    H229201   5.158   1.319  16.700  1.2084 -1.8069 -1.5354
 2596TIP3   OH229202   4.312   2.516  15.237 -0.0883 -0.2250 -0.2154
 2596TIP3    H129203   4.375   2.547  15.172  0.6566  1.7877  1.4029
 2596TIP3    H229204   4.229   2.556  15.210  0.1848  0.4747 -0.0398
 2597TIP3   OH229205   6.402   3.400  13.743  0.0938 -0.3637  0.5126
 2597TIP3    H129206   6.314   3.383  13.776 -0.2258  2.1843  1.0848
 2597TIP3    H229207   6.442   3.457  13.809  1.4339  0.2115 -0.7582
 2598TIP3   OH229208   1.726   3.752  14.611 -0.1465 -0.5660  0.8956
 2598TIP3    H129209   1.751   3.674  14.561  0.2437 -0.1300  0.4169
 2598TIP3    H229210   1.795   3.816  14.593 -0.1432 -0.3152  1.7781
 2599TIP3   OH229211   3.447   3.212   2.996  0.9028 -0.3155 -0.0910
 2599TIP3    H129212   3.440   3.235   2.904  0.5856 -0.5987 -0.1410
 2599TIP3    H229213   3.442   3.116   2.997 -1.5939 -0.2198  0.4224
 2600TIP3   OH229214   6.266   6.123  16.310  0.6907 -0.1916 -0.1378
 2600TIP3    H129215   6.236   6.071  16.235  0.0060 -0.8892  0.6106
 2600TIP3    H229216   6.192   6.125  16.370  0.1370  3.0626 -0.8483
 2601TIP3   OH229217   2.222   0.142   0.791 -0.2693  0.7312  0.5109
 2601TIP3    H129218   2.225   0.235   0.769  1.6472  0.4756 -0.4563
 2601TIP3    H229219   2.288   0.102   0.734 -0.2295 -1.0382  1.7520
 2602TIP3   OH229220   5.758   2.115   2.768 -0.1279  0.1639  0.3569
 2602TIP3    H129221   5.796   2.061   2.837  2.2172  1.5859  0.2378
 2602TIP3    H229222   5.773   2.205   2.797  1.3163  0.7924 -2.1923
 2603TIP3   OH229223   4.505   3.383   0.911  0.2350  0.7277 -0.2118
 2603TIP3    H129224   4.423   3.335   0.896 -0.0453  1.2363 -0.2879
 2603TIP3    H229225   4.529   3.416   0.824  2.2997 -2.2711 -0.8844
 2604TIP3   OH229226   0.310   6.104  13.928  0.2535  0.0796  0.3067
 2604TIP3    H129227   0.322   6.149  14.012  1.3775  0.7745 -0.2138
 2604TIP3    H229228   0.360   6.022  13.939  1.3853  0.6991 -0.0761
 2605TIP3   OH229229   1.208   5.079  11.555 -0.0515  0.5315 -0.1340
 2605TIP3    H129230   1.254   4.998  11.535  0.7121  1.2944 -1.5043
 2605TIP3    H229231   1.135   5.052  11.612 -0.3248 -1.2195 -1.2995
 2606TIP3   OH229232   6.743   6.779  12.694 -0.3917  0.2577  0.0264
 2606TIP3    H129233   6.705   6.750  12.612 -0.0625  1.9889 -0.7758
 2606TIP3    H229234   6.681   6.845  12.727  1.0487  1.8862 -0.4582
 2607TIP3   OH229235   3.846   0.978   0.710  0.2886 -0.5452 -0.2977
 2607TIP3    H129236   3.892   0.898   0.735  1.9159 -0.0682 -1.7013
 2607TIP3    H229237   3.909   1.026   0.655 -1.0335  1.2128 -0.3099
 2608TIP3   OH229238   0.650   6.217  13.497 -0.4855 -0.1775  0.0959
 2608TIP3    H129239   0.636   6.283  13.429  1.1765 -0.6192 -0.6895
 2608TIP3    H229240   0.595   6.143  13.470 -1.4074  0.4131  0.3289
 2609TIP3   OH229241   2.806   1.993  17.147 -0.5801 -0.5399  0.3516
 2609TIP3    H129242   2.875   1.970  17.209 -1.2576 -1.3305  0.8326
 2609TIP3    H229243   2.745   2.047  17.198  0.9211  2.2898 -0.7286
 2610TIP3   OH229244   1.896   4.096  17.196 -0.1026  0.1481 -0.2909
 2610TIP3    H129245   1.941   4.152  17.260  0.0280 -0.6620  0.3294
 2610TIP3    H229246   1.850   4.031  17.249 -0.2603 -0.3297 -1.0130
 2611TIP3   OH229247   4.399   2.439   6.836 -0.4402  0.0488 -0.3900
 2611TIP3    H129248   4.339   2.423   6.764 -1.7117 -1.2664  0.9191
 2611TIP3    H229249   4.432   2.352   6.860 -0.5271  0.3887  1.0199
 2612TIP3   OH229250   5.183   1.278   4.390  0.3847  0.1594 -0.4352
 2612TIP3    H129251   5.236   1.239   4.459  1.4947 -0.8547 -1.8319
 2612TIP3    H229252   5.165   1.367   4.421  1.7246  0.0562  0.6954
 2613TIP3   OH229253   5.102   5.713  13.509 -0.3682  0.2099 -0.0565
 2613TIP3    H129254   5.141   5.780  13.564 -0.2272  0.1610 -0.0938
 2613TIP3    H229255   5.083   5.640  13.569 -0.7787  0.3907  0.0322
 2614TIP3   OH229256   2.525   6.742   3.219 -0.3574  0.0101  0.1526
 2614TIP3    H129257   2.477   6.659   3.211  2.4970 -1.8394  1.4552
 2614TIP3    H229258   2.565   6.754   3.133 -0.3215 -0.2718  0.1277
 2615TIP3   OH229259   4.070   3.533  14.902  0.6935  0.5988 -0.0463
 2615TIP3    H129260   4.030   3.617  14.925  0.8988  0.4146  1.0410
 2615TIP3    H229261   4.061   3.527  14.807 -1.7100  0.6410  0.1534
 2616TIP3   OH229262   2.646   6.174  15.577 -0.0741  0.1052 -0.7956
 2616TIP3    H129263   2.720   6.119  15.553  0.5449 -0.4797  2.2676
 2616TIP3    H229264   2.666   6.259  15.538  1.5339 -0.4174 -1.1414
 2617TIP3   OH229265   5.963   2.217  15.011  0.0314  0.2564  0.5980
 2617TIP3    H129266   5.912   2.143  14.977  1.4962 -0.6584  0.3487
 2617TIP3    H229267   5.921   2.237  15.095 -0.5160 -0.7171  0.5752
 2618TIP3   OH229268   2.534   1.424  11.846  0.5077 -0.0547 -0.7203
 2618TIP3    H129269   2.457   1.370  11.865 -0.2744  0.3572 -2.5609
 2618TIP3    H229270   2.553   1.468  11.928 -1.7716  0.4800 -0.4225
 2619TIP3   OH229271   5.158   2.819  14.730  0.2435  0.1978  1.0823
 2619TIP3    H129272   5.140   2.751  14.665  0.7962 -0.5594  1.7066
 2619TIP3    H229273   5.243   2.795  14.768  1.5571  2.4847 -0.2692
 2620TIP3   OH229274   4.671   2.341  11.636  0.1314 -0.1042  0.3107
 2620TIP3    H129275   4.704   2.429  11.615  0.1059 -0.0500  0.4902
 2620TIP3    H229276   4.630   2.311  11.556  0.0135  0.1095  0.2891
 2621TIP3   OH229277   4.034   5.577   4.233 -0.1253 -0.5165  0.6568
 2621TIP3    H129278   4.072   5.528   4.160  0.4909  0.6035  0.2130
 2621TIP3    H229279   3.952   5.530   4.253 -0.2706 -0.8739 -0.6992
 2622TIP3   OH229280   2.621   6.608  16.694 -0.6895 -0.1907 -0.1597
 2622TIP3    H129281   2.693   6.548  16.672  0.0590  0.8595 -0.6019
 2622TIP3    H229282   2.544   6.552  16.697 -0.0735 -1.1095 -1.0075
 2623TIP3   OH229283   0.485   5.019  15.025 -0.1249  0.1641  0.3518
 2623TIP3    H129284   0.576   5.017  15.056 -0.2684  1.3484  0.8912
 2623TIP3    H229285   0.490   5.069  14.943 -0.3028  0.3089  0.4310
 2624TIP3   OH229286   1.999   0.497  14.472  0.0900  0.1392  0.3322
 2624TIP3    H129287   2.042   0.528  14.392 -0.3883  0.3058  0.1339
 2624TIP3    H229288   1.921   0.552  14.480 -0.6284 -0.8280  0.1183
 2625TIP3   OH229289   3.133   5.768   3.434 -0.5658 -0.0588  0.2411
 2625TIP3    H129290   3.220   5.742   3.403  0.3653  0.7585  2.0731
 2625TIP3    H229291   3.074   5.742   3.364  0.9529 -2.2345 -0.3061
 2626TIP3   OH229292   2.591   2.563  11.588  0.7772 -0.0058 -0.0166
 2626TIP3    H129293   2.570   2.628  11.654  0.0225  0.6473 -0.8732
 2626TIP3    H229294   2.514   2.561  11.531  2.9046  2.3015 -3.1490
 2627TIP3   OH229295   3.315   4.701   5.572  0.2391  0.3356 -0.0585
 2627TIP3    H129296   3.388   4.678   5.630 -0.2449  1.0083  0.8261
 2627TIP3    H229297   3.238   4.663   5.614  0.2752 -1.7447 -1.8187
 2628TIP3   OH229298   1.465   0.575  14.634  0.4900 -0.0088 -0.3506
 2628TIP3    H129299   1.385   0.624  14.654  0.7970  0.2612  0.2373
 2628TIP3    H229300   1.480   0.521  14.711  0.5197 -0.5407 -0.7264
 2629TIP3   OH229301   1.014   2.011  14.757 -0.8174 -0.2266  0.3198
 2629TIP3    H129302   1.060   1.932  14.783 -2.0061 -0.4893  1.6419
 2629TIP3    H229303   1.009   2.005  14.662 -0.5074 -1.5071  0.3752
 2630TIP3   OH229304   1.976   3.980   5.121 -0.1684  0.1210 -0.2977
 2630TIP3    H129305   2.032   4.057   5.134 -0.0183 -0.0322 -0.0396
 2630TIP3    H229306   1.915   4.007   5.052  0.0500  0.3812 -0.3917
 2631TIP3   OH229307   3.556   1.505   2.993 -0.3800 -0.1218 -0.2997
 2631TIP3    H129308   3.536   1.491   3.086  1.7356  0.8183  0.3378
 2631TIP3    H229309   3.473   1.492   2.948 -1.1355 -2.0861  1.5725
 2632TIP3   OH229310   4.466   1.286  12.079  0.7651 -0.5520 -0.2873
 2632TIP3    H129311   4.413   1.234  12.019 -0.8724  0.0319  0.6266
 2632TIP3    H229312   4.476   1.231  12.157  0.1702 -0.0579  0.1475
 2633TIP3   OH229313   5.498   1.436  14.989 -0.3103  0.0716 -0.4732
 2633TIP3    H129314   5.490   1.523  14.950  0.2980 -0.5792 -2.1175
 2633TIP3    H229315   5.414   1.421  15.033 -0.4070  1.4862 -0.1470
 2634TIP3   OH229316   0.687   1.850  13.705  0.4350 -0.0547 -0.5263
 2634TIP3    H129317   0.640   1.922  13.662  0.3050  0.4356  0.4192
 2634TIP3    H229318   0.691   1.781  13.639 -0.3710  0.4310 -1.0917
 2635TIP3   OH229319   4.703   0.076  16.922 -0.2496  0.3026 -0.0932
 2635TIP3    H129320   4.702   0.097  17.015 -1.8857 -0.3505  0.0533
 2635TIP3    H229321   4.621   0.029  16.907 -0.3522  1.0441 -2.0079
 2636TIP3   OH229322   3.858   5.414   2.913  0.1795  0.3816  0.3713
 2636TIP3    H129323   3.929   5.423   2.849 -0.6935  0.8985 -0.5444
 2636TIP3    H229324   3.881   5.474   2.984  0.8666  0.2311  0.2811
 2637TIP3   OH229325   0.129   0.815   0.161 -0.5106  0.7918 -0.3922
 2637TIP3    H129326   0.092   0.728   0.174  0.7540  0.2154 -0.5892
 2637TIP3    H229327   0.053   0.873   0.159 -1.3247 -0.2334  0.2763
 2638TIP3   OH229328   2.337   6.584   1.501  0.5886 -0.1678  0.0372
 2638TIP3    H129329   2.379   6.603   1.585 -1.1639 -0.2742  0.9574
 2638TIP3    H229330   2.377   6.647   1.440  1.4211  0.3346  1.0822
 2639TIP3   OH229331   6.412   6.430  12.593 -0.5418 -0.4124  0.2519
 2639TIP3    H129332   6.413   6.510  12.541  0.5683  0.9476  2.3135
 2639TIP3    H229333   6.472   6.371  12.547  1.5595  1.2878  0.7416
 2640TIP3   OH229334   0.157   6.746   4.511  0.3724  0.7725  0.0999
 2640TIP3    H129335   0.063   6.726   4.504  0.6814 -0.5179 -0.6609
 2640TIP3    H229336   0.173   6.811   4.443  0.5534 -1.1105 -1.7199
 2641TIP3   OH229337   1.214   3.157  13.887 -0.0201  0.7481  0.1026
 2641TIP3    H129338   1.266   3.237  13.887  0.6219  0.3406  1.2073
 2641TIP3    H229339   1.133   3.181  13.842  1.0974  1.3905 -1.5957
 2642TIP3   OH229340   6.061   4.518  16.449 -0.0304  0.3137 -0.2763
 2642TIP3    H129341   6.051   4.424  16.460  0.5498  0.3329  0.4100
 2642TIP3    H229342   6.101   4.528  16.362  3.6456 -0.2927  1.2699
 2643TIP3   OH229343   6.002   5.402   1.444 -0.0141 -0.5334 -0.1182
 2643TIP3    H129344   5.994   5.392   1.349 -1.5943  1.4911 -0.2517
 2643TIP3    H229345   6.065   5.335   1.471  0.3088 -1.2523 -2.5641
 2644TIP3   OH229346   0.750   1.856  10.947 -0.0357  0.0479  0.8510
 2644TIP3    H129347   0.763   1.935  10.894 -3.3311  0.6506  0.7899
 2644TIP3    H229348   0.800   1.788  10.903  0.4894  1.4625 -0.7750
 2645TIP3   OH229349   0.455   5.615   6.158  0.2218  0.1110  0.0733
 2645TIP3    H129350   0.372   5.614   6.110 -0.0351  1.0139  0.4925
 2645TIP3    H229351   0.478   5.707   6.164  0.5595 -0.0364  1.1674
 2646TIP3   OH229352   3.106   5.079  13.838 -0.4087  0.3714 -0.4699
 2646TIP3    H129353   3.113   5.038  13.751  1.7132  0.0188 -0.1764
 2646TIP3    H229354   3.135   5.169  13.824 -2.7511  1.1036 -0.6509
 2647TIP3   OH229355   6.507   0.467  15.902 -0.2063 -1.0092  0.1256
 2647TIP3    H129356   6.461   0.384  15.916 -1.0626 -0.3885  1.0077
 2647TIP3    H229357   6.452   0.533  15.944 -0.2501  0.2261 -1.7710
 2648TIP3   OH229358   5.447   0.625  15.275 -0.1472  0.7781  0.0469
 2648TIP3    H129359   5.503   0.675  15.217 -0.5339  1.2086  0.0450
 2648TIP3    H229360   5.473   0.653  15.363  1.3576 -0.8474  0.1364
 2649TIP3   OH229361   4.532   5.403   2.957 -0.1059 -0.0412  0.1407
 2649TIP3    H129362   4.592   5.477   2.956 -1.7287  1.3394  1.1639
 2649TIP3    H229363   4.541   5.363   2.870  1.4685  0.7738 -0.0897
 2650TIP3   OH229364   3.715   4.723  10.895 -0.1166 -0.1431  0.4167
 2650TIP3    H129365   3.762   4.680  10.967  1.5188 -0.6759 -0.9397
 2650TIP3    H229366   3.711   4.657  10.826  0.6083  1.1970 -0.9356
 2651TIP3   OH229367   3.929   6.007   2.484  0.1342  0.4047 -0.0577
 2651TIP3    H129368   3.979   5.936   2.445  0.0904  0.6270 -0.5184
 2651TIP3    H229369   3.995   6.071   2.512  0.1320  0.5365 -0.3472
 2652TIP3   OH229370   0.818   0.517  11.675 -0.0060 -0.1408 -0.3329
 2652TIP3    H129371   0.757   0.552  11.610 -0.2345  1.8411  0.9201
 2652TIP3    H229372   0.888   0.581  11.679 -0.3891  0.1703  1.9638
 2653TIP3   OH229373   2.661   2.864  12.296  0.1040 -0.6252  0.1411
 2653TIP3    H129374   2.659   2.805  12.221  0.3347  0.5787 -0.8367
 2653TIP3    H229375   2.585   2.921  12.284  2.2667  2.0575 -1.2676
 2654TIP3   OH229376   2.238   1.188   2.361  0.2343 -0.0009  0.2391
 2654TIP3    H129377   2.252   1.133   2.438 -4.0968 -1.0507  0.3794
 2654TIP3    H229378   2.152   1.163   2.328 -0.0277  3.7051 -2.2403
 2655TIP3   OH229379   3.615   6.638  15.009 -0.5306 -0.5450  0.0861
 2655TIP3    H129380   3.625   6.671  15.099  0.8536 -1.0367  0.1305
 2655TIP3    H229381   3.536   6.584  15.011  0.9553 -2.7378  1.6805
 2656TIP3   OH229382   2.552   4.126   6.061  0.0498 -0.6848 -0.0997
 2656TIP3    H129383   2.527   4.036   6.082  0.4334 -0.9855 -0.9205
 2656TIP3    H229384   2.552   4.130   5.966  1.7951 -0.3317 -0.1063
 2657TIP3   OH229385   4.376   0.284  14.993  0.1868 -0.6521  0.1030
 2657TIP3    H129386   4.330   0.209  14.955  1.3536 -0.4626 -1.7317
 2657TIP3    H229387   4.463   0.281  14.953  0.5680  1.1116  0.7836
 2658TIP3   OH229388   5.810   2.685  12.727  0.1783  0.2323 -0.5114
 2658TIP3    H129389   5.852   2.739  12.659 -0.9683  2.5939  0.6101
 2658TIP3    H229390   5.863   2.699  12.805  1.2652 -2.1788 -0.7800
 2659TIP3   OH229391   1.388   0.331  11.809 -0.8596  0.2334  0.3297
 2659TIP3    H129392   1.454   0.290  11.752 -1.0309  0.8579 -0.3320
 2659TIP3    H229393   1.367   0.413  11.765 -1.0610  0.6898  1.2640
 2660TIP3   OH229394   0.684   5.398   2.076  0.3632 -0.4971  0.1763
 2660TIP3    H129395   0.772   5.394   2.115  0.0732 -3.1109  0.6427
 2660TIP3    H229396   0.625   5.370   2.146 -0.8217  0.9591 -0.2241
 2661TIP3   OH229397   5.877   1.123   3.679 -0.0112  0.1481 -0.6090
 2661TIP3    H129398   5.922   1.039   3.675 -1.3370 -0.6414  0.7774
 2661TIP3    H229399   5.922   1.178   3.615  0.7966 -1.6446 -1.5829
 2662TIP3   OH229400   0.533   4.450   0.687 -0.6618 -0.1011 -0.1789
 2662TIP3    H129401   0.480   4.452   0.607 -1.2636  0.5196  0.2326
 2662TIP3    H229402   0.487   4.507   0.748  0.8697  1.0475 -0.0612
 2663TIP3   OH229403   0.859   6.426  11.912 -0.2390 -0.0066 -0.4047
 2663TIP3    H129404   0.954   6.419  11.907  0.1235  3.1956  1.0439
 2663TIP3    H229405   0.842   6.460  12.000 -2.7439 -0.7213 -0.5796
 2664TIP3   OH229406   1.309   1.107   1.503 -0.6181  0.2266 -0.4007
 2664TIP3    H129407   1.386   1.131   1.451 -1.2926 -0.7317 -1.8638
 2664TIP3    H229408   1.259   1.188   1.511  0.8698  1.0270  1.1744
 2665TIP3   OH229409   2.115   0.877  16.126 -0.8663  0.0540 -0.4844
 2665TIP3    H129410   2.023   0.863  16.104 -0.7400 -1.7142 -0.0147
 2665TIP3    H229411   2.115   0.902  16.218 -0.8174 -1.1833 -0.1337
 2666TIP3   OH229412   1.501   4.382   1.529  0.5184 -0.0736 -0.6699
 2666TIP3    H129413   1.588   4.356   1.561 -0.8637 -1.7936  1.9257
 2666TIP3    H229414   1.470   4.446   1.593  0.5570  1.8461 -2.5481
 2667TIP3   OH229415   0.504   2.821   1.288  0.2720  0.6558 -0.3742
 2667TIP3    H129416   0.562   2.824   1.364 -0.6024 -0.7124  0.3724
 2667TIP3    H229417   0.555   2.778   1.220  1.0455  1.8456 -0.5556
 2668TIP3   OH229418   4.713   3.795  14.022  0.3117  0.3669  0.1580
 2668TIP3    H129419   4.759   3.751  13.951  0.1089 -0.0169  0.2675
 2668TIP3    H229420   4.752   3.883  14.024  1.0850  0.0248  0.2985
 2669TIP3   OH229421   4.896   3.588  11.582  0.2472  0.7326  0.1123
 2669TIP3    H129422   4.904   3.540  11.500  0.0310  0.8313  0.0321
 2669TIP3    H229423   4.802   3.597  11.596  0.2636 -0.6900  1.2051
 2670TIP3   OH229424   1.078   6.355  12.751  0.1647  0.1092 -0.0782
 2670TIP3    H129425   1.124   6.323  12.673  0.5459 -1.4024  0.7616
 2670TIP3    H229426   0.985   6.352  12.726  0.1847 -1.7107 -0.0117
 2671TIP3   OH229427   3.449   0.502   2.406 -0.0984  0.6209  0.2905
 2671TIP3    H129428   3.471   0.511   2.313 -1.2470  0.5251  0.0108
 2671TIP3    H229429   3.411   0.415   2.414  1.7967 -0.1557  1.2189
 2672TIP3   OH229430   5.520   2.124   4.186 -0.3533  0.2665 -0.1287
 2672TIP3    H129431   5.425   2.138   4.194 -0.2091  0.1782  1.8182
 2672TIP3    H229432   5.559   2.189   4.244  0.8098  0.4329 -1.0747
 2673TIP3   OH229433   3.537   2.785   4.572 -0.4896 -0.5119  0.4094
 2673TIP3    H129434   3.530   2.836   4.653  0.5269 -0.8415  0.7118
 2673TIP3    H229435   3.501   2.843   4.504 -0.9863 -0.0850  1.0292
 2674TIP3   OH229436   4.636   3.451  11.678 -0.3565  0.0669 -0.3653
 2674TIP3    H129437   4.699   3.478  11.745 -0.1333 -1.5657  0.1232
 2674TIP3    H229438   4.550   3.470  11.717 -0.1946  1.8558 -0.8398
 2675TIP3   OH229439   2.895   3.603   0.014 -0.1962 -0.1871  0.0233
 2675TIP3    H129440   2.989   3.608   0.034 -0.6701  0.4216  2.1412
 2675TIP3    H229441   2.881   3.675  -0.048  0.7692 -0.4212 -0.4908
 2676TIP3   OH229442   2.906   4.889  14.625 -0.4741  0.3346 -0.1053
 2676TIP3    H129443   2.924   4.829  14.553 -0.2106  0.2924 -0.0040
 2676TIP3    H229444   2.815   4.871  14.648 -0.7356  0.7454 -0.8029
 2677TIP3   OH229445   4.799   0.133  12.586 -0.0541  0.5853  0.4836
 2677TIP3    H129446   4.853   0.160  12.512 -0.6975 -0.8987 -0.5333
 2677TIP3    H229447   4.851   0.066  12.631 -0.5699 -0.0611  0.1302
 2678TIP3   OH229448   1.401   2.493  16.129  0.5573 -0.3360 -0.0753
 2678TIP3    H129449   1.364   2.578  16.104  1.3549 -0.0294 -0.2360
 2678TIP3    H229450   1.495   2.502  16.111  1.1511 -0.1547  2.9087
 2679TIP3   OH229451   1.604   3.610   0.964  0.2870  0.0416  0.2309
 2679TIP3    H129452   1.614   3.532   0.910  0.5204 -0.5260  1.0877
 2679TIP3    H229453   1.674   3.668   0.934  1.0630 -0.6794  0.6168
 2680TIP3   OH229454   3.447   3.376  14.132 -0.1761 -0.1076 -0.6499
 2680TIP3    H129455   3.482   3.299  14.086 -0.1554  0.7704 -2.1301
 2680TIP3    H229456   3.352   3.364  14.132 -0.3420  0.9324 -2.8755
 2681TIP3   OH229457   2.485   5.263  15.214  0.4552 -0.3738 -0.0646
 2681TIP3    H129458   2.531   5.286  15.295  1.3280  0.8432 -0.8919
 2681TIP3    H229459   2.457   5.172  15.228  2.4866 -0.9025  0.7676
 2682TIP3   OH229460   1.262   6.542   2.081 -0.1840  0.2303  0.1913
 2682TIP3    H129461   1.187   6.553   2.139  0.0866 -0.4397  0.6844
 2682TIP3    H229462   1.304   6.628   2.079 -0.3632  0.3329  0.7599
 2683TIP3   OH229463   1.726   1.818  12.823  0.3387  0.3089  0.3445
 2683TIP3    H129464   1.723   1.727  12.795 -2.8474  0.2898  0.6091
 2683TIP3    H229465   1.650   1.858  12.782  0.1558  2.1905  2.4607
 2684TIP3   OH229466   6.450   3.619   1.312 -0.1054 -0.6612  0.2690
 2684TIP3    H129467   6.448   3.524   1.300 -0.5951 -0.5432 -0.6432
 2684TIP3    H229468   6.433   3.632   1.405 -0.2772 -1.4648  0.3529
 2685TIP3   OH229469   4.178   3.388   3.273 -1.0041  0.2529 -0.1543
 2685TIP3    H129470   4.225   3.456   3.322  2.4384 -1.2875 -1.1691
 2685TIP3    H229471   4.095   3.377   3.320  0.3984  1.7879  2.7994
 2686TIP3   OH229472   4.174   6.590  14.043 -0.1011  0.1097 -0.6644
 2686TIP3    H129473   4.268   6.603  14.037 -0.0001 -0.5268 -0.5076
 2686TIP3    H229474   4.140   6.675  14.072  0.4965  0.1335 -0.0185
 2687TIP3   OH229475   0.845   0.520   5.741  0.5878  0.4461  0.5665
 2687TIP3    H129476   0.844   0.599   5.687  0.0065  0.8618  1.1849
 2687TIP3    H229477   0.847   0.552   5.831  0.3418 -0.2455  0.8206
 2688TIP3   OH229478   4.553   2.650   3.193 -0.1712  0.2323 -0.4535
 2688TIP3    H129479   4.554   2.554   3.200  1.9844  0.1350 -1.7078
 2688TIP3    H229480   4.599   2.680   3.272 -2.9201  0.3817  1.1729
 2689TIP3   OH229481   4.524   0.674  16.622  0.2660  0.2122  0.4504
 2689TIP3    H129482   4.448   0.657  16.566  0.6605  1.4853 -0.4774
 2689TIP3    H229483   4.538   0.591  16.668 -0.4517 -0.6698 -0.8721
 2690TIP3   OH229484   1.213   6.148  15.760  0.4048 -0.6249 -0.2616
 2690TIP3    H129485   1.144   6.081  15.750  0.0189 -0.4574  1.1600
 2690TIP3    H229486   1.174   6.214  15.817  0.9747  0.5724 -1.2510
 2691TIP3   OH229487   2.597   5.499  11.682  0.3327  0.5092  0.2289
 2691TIP3    H129488   2.508   5.521  11.654  0.2346  0.6304  0.6365
 2691TIP3    H229489   2.595   5.504  11.777  0.4982 -0.5615  0.2985
 2692TIP3   OH229490   3.247   2.423   0.734 -0.5386  0.4245  0.1519
 2692TIP3    H129491   3.321   2.381   0.691 -0.2295 -0.1950  1.2724
 2692TIP3    H229492   3.171   2.395   0.683 -0.2314 -0.7430  0.3256
 2693TIP3   OH229493   0.375   6.605   5.481 -0.1158  0.6616  0.4554
 2693TIP3    H129494   0.418   6.530   5.523 -1.3451 -1.3336 -1.7266
 2693TIP3    H229495   0.428   6.623   5.404 -0.0234  1.8536  0.7861
 2694TIP3   OH229496   5.876   6.656   1.985 -0.0116 -0.5046 -0.6085
 2694TIP3    H129497   5.940   6.589   2.010  1.0945  1.1453  1.1875
 2694TIP3    H229498   5.842   6.689   2.068 -1.3589  0.3795 -1.4903
 2695TIP3   OH229499   2.981   3.510   4.641 -0.1056 -0.0412 -0.3628
 2695TIP3    H129500   2.975   3.414   4.641 -0.2063 -0.0418  0.3650
 2695TIP3    H229501   2.994   3.533   4.733 -2.3945  0.7684 -0.2069
 2696TIP3   OH229502   1.574   2.547  11.976 -0.3744 -0.8298 -0.3954
 2696TIP3    H129503   1.640   2.552  12.045 -0.6045  0.1444 -0.2373
 2696TIP3    H229504   1.535   2.635  11.974 -0.4506 -0.8923 -1.6820
 2697TIP3   OH229505   5.358   1.826  11.043  0.1730 -0.2363 -0.0020
 2697TIP3    H129506   5.418   1.782  11.104  1.3124 -0.7757 -1.4899
 2697TIP3    H229507   5.353   1.916  11.075  3.1941  0.2840 -0.8657
 2698TIP3   OH229508   5.135   4.789  15.292 -0.0246  0.5082 -0.1577
 2698TIP3    H129509   5.196   4.724  15.327  0.8412  0.6460 -1.4124
 2698TIP3    H229510   5.180   4.873  15.304 -0.5826  0.7569  0.2315
 2699TIP3   OH229511   5.759   4.547  16.105  0.4743  0.0709  0.3875
 2699TIP3    H129512   5.706   4.486  16.157 -2.5530  2.4893  0.2424
 2699TIP3    H229513   5.793   4.609  16.169  1.5876 -0.3305  0.2025
 2700TIP3   OH229514   6.012   4.937  12.805  0.4490  0.0887 -0.0849
 2700TIP3    H129515   5.975   5.000  12.743  0.9147  0.2121 -0.2385
 2700TIP3    H229516   5.970   4.853  12.782  0.6029  0.1374 -0.5521
 2701TIP3   OH229517   5.470   3.743  11.208  0.4967 -0.6313 -0.8749
 2701TIP3    H129518   5.484   3.732  11.302  0.3727  0.3709 -0.7306
 2701TIP3    H229519   5.460   3.654  11.174  0.0246 -0.9638  0.1369
 2702TIP3   OH229520   2.479   1.870   0.740 -0.5365  0.3033  0.3894
 2702TIP3    H129521   2.493   1.801   0.676 -0.8909  1.6921 -1.2204
 2702TIP3    H229522   2.448   1.824   0.818 -1.8582 -1.2578 -1.0097
 2703TIP3   OH229523   1.620   1.475  12.546  0.5858  0.2607 -0.5286
 2703TIP3    H129524   1.613   1.570  12.538  1.2493  0.2214 -1.6841
 2703TIP3    H229525   1.660   1.461  12.632 -1.0585  0.9552  0.3621
 2704TIP3   OH229526   0.011   2.214  11.156 -0.2666  0.3147  0.1946
 2704TIP3    H129527   0.033   2.171  11.073  1.8262 -1.4789  1.6548
 2704TIP3    H229528   0.079   2.281  11.167 -0.7947  0.8509  0.2867
 2705TIP3   OH229529   0.413   6.648   3.322  0.7574  0.0653 -0.2163
 2705TIP3    H129530   0.383   6.671   3.409  0.4424 -0.7690 -0.1058
 2705TIP3    H229531   0.382   6.719   3.266  2.4662  1.5044  0.6252
 2706TIP3   OH229532   1.619   5.565   2.855  0.3195 -0.0555 -0.0458
 2706TIP3    H129533   1.551   5.629   2.832 -0.6904  0.4456  3.9692
 2706TIP3    H229534   1.701   5.612   2.843 -0.2291  0.6523 -1.0769
 2707TIP3   OH229535   4.664   6.234  14.179  0.2626 -0.9951  0.6079
 2707TIP3    H129536   4.633   6.185  14.256  1.3765 -0.3932  1.4592
 2707TIP3    H229537   4.687   6.320  14.214 -2.9500  0.6567 -1.0838
 2708TIP3   OH229538   5.742   1.471  14.353  0.2804 -0.3758  0.4433
 2708TIP3    H129539   5.666   1.435  14.398 -1.9364  0.2836 -2.6248
 2708TIP3    H229540   5.783   1.395  14.312  0.8589 -0.6246  1.4643
 2709TIP3   OH229541   1.522   2.205  12.128 -0.0990 -0.2957 -0.4742
 2709TIP3    H129542   1.592   2.262  12.096  0.3062 -1.5873 -1.9540
 2709TIP3    H229543   1.454   2.212  12.061 -1.5773  1.2599  1.1514
 2710TIP3   OH229544   0.080   1.677   1.614  0.3002  0.1911  0.1179
 2710TIP3    H129545   0.081   1.641   1.703  1.1530  1.0772  0.4729
 2710TIP3    H229546   0.172   1.678   1.588  0.2329  1.6838 -0.0645
 2711TIP3   OH229547   4.749   2.904  15.620 -0.4240  0.1568  0.1082
 2711TIP3    H129548   4.731   2.992  15.653 -1.1265 -1.0635  3.1011
 2711TIP3    H229549   4.675   2.884  15.563  0.0718  1.7401 -1.1205
 2712TIP3   OH229550   2.552   0.388  14.073 -0.3609  0.4187  0.3706
 2712TIP3    H129551   2.463   0.418  14.055 -0.7155  0.1922  1.7530
 2712TIP3    H229552   2.604   0.425  14.002 -2.0686 -2.1434 -2.3722
 2713TIP3   OH229553   1.410   6.770   2.136  0.2209  0.0768 -0.4770
 2713TIP3    H129554   1.427   6.842   2.196  1.0977 -0.5019 -0.0299
 2713TIP3    H229555   1.496   6.745   2.104  0.0465 -1.6267  0.3501
 2714TIP3   OH229556   3.238   1.068   3.558 -0.6398  0.3977 -0.1491
 2714TIP3    H129557   3.244   0.993   3.617 -2.0527  0.3372 -0.0772
 2714TIP3    H229558   3.325   1.108   3.562 -0.4864 -0.0463  1.3811
 2715TIP3   OH229559   3.257   5.584   6.771  0.1372  0.2060 -0.2497
 2715TIP3    H129560   3.265   5.518   6.702  2.2163  1.2376 -1.0209
 2715TIP3    H229561   3.263   5.534   6.853 -1.9545 -0.9739 -0.7632
 2716TIP3   OH229562   5.102   2.461   1.544  0.5579 -0.0374  0.9664
 2716TIP3    H129563   5.054   2.379   1.555  0.5933 -0.0849  0.7618
 2716TIP3    H229564   5.166   2.443   1.476 -0.5820  0.6567 -0.3183
 2717TIP3   OH229565   6.621   0.579  14.921 -0.0501 -0.1403  0.1492
 2717TIP3    H129566   6.530   0.568  14.893  0.0195 -0.6155  0.0909
 2717TIP3    H229567   6.638   0.672  14.912 -0.1453 -0.2246 -1.0631
 2718TIP3   OH229568   2.849   3.968  12.276 -0.1905 -0.2465 -0.1646
 2718TIP3    H129569   2.806   3.928  12.201 -1.7159 -0.2757  0.7047
 2718TIP3    H229570   2.782   4.026  12.313  0.6459 -0.0127  0.9953
 2719TIP3   OH229571   5.335   0.781  15.578 -0.0169 -0.0551 -0.3799
 2719TIP3    H129572   5.378   0.839  15.640  0.4186 -0.4685 -0.2894
 2719TIP3    H229573   5.246   0.815  15.570 -0.1745 -0.1841  0.7146
 2720TIP3   OH229574   4.832   4.466  10.466 -0.0925  0.0186  0.0117
 2720TIP3    H129575   4.750   4.427  10.433  0.3665 -1.1595  0.2254
 2720TIP3    H229576   4.831   4.556  10.434 -0.6700 -0.4866 -1.4079
 2721TIP3   OH229577   0.375   0.078  14.267 -0.1177  0.1362 -0.0848
 2721TIP3    H129578   0.304   0.016  14.285 -0.9887  1.3920  0.9645
 2721TIP3    H229579   0.406   0.055  14.180  0.3507 -2.4943  0.7346
 2722TIP3   OH229580   3.415   6.164  16.756 -0.2743 -0.7320  0.0695
 2722TIP3    H129581   3.409   6.100  16.827 -0.7674 -0.1103  0.5975
 2722TIP3    H229582   3.342   6.141  16.698 -0.8739 -0.2289  0.6155
 2723TIP3   OH229583   3.901   4.345  13.157 -0.1883  0.1713  0.0875
 2723TIP3    H129584   3.869   4.287  13.088 -1.3783  1.6217 -0.5961
 2723TIP3    H229585   3.985   4.378  13.124 -0.5704  0.5565 -0.5001
 2724TIP3   OH229586   6.599   4.938  15.007 -0.5736 -0.1488  0.4916
 2724TIP3    H129587   6.545   4.958  15.083 -0.8079  0.5139  0.1580
 2724TIP3    H229588   6.540   4.946  14.932  0.0858  1.0839  0.0764
 2725TIP3   OH229589   0.229   1.873   0.919 -0.4962  0.0175 -1.0014
 2725TIP3    H129590   0.322   1.890   0.906 -0.8403  0.5974 -2.7928
 2725TIP3    H229591   0.188   1.959   0.920 -1.0457 -0.2391 -0.3020
 2726TIP3   OH229592   6.772   1.021   0.646 -0.0591 -0.5338  0.2864
 2726TIP3    H129593   6.855   1.029   0.599 -0.3048  1.5443  0.1524
 2726TIP3    H229594   6.721   1.097   0.617 -2.8502 -2.8930 -1.2807
 2727TIP3   OH229595   6.787   2.878  12.726 -0.0848 -0.3031  0.1728
 2727TIP3    H129596   6.820   2.812  12.664  0.3756 -1.8800  2.0434
 2727TIP3    H229597   6.723   2.928  12.675  1.1045 -0.8269 -1.8941
 2728TIP3   OH229598   2.211   0.897   6.318  0.1248 -0.4745  0.0209
 2728TIP3    H129599   2.301   0.888   6.349  1.1069 -1.0431 -2.8285
 2728TIP3    H229600   2.191   0.990   6.331  1.7520  0.0290 -0.8481
 2729TIP3   OH229601   4.943   5.246   4.763  0.0519 -0.2571  0.1854
 2729TIP3    H129602   5.011   5.191   4.803 -1.9705 -2.2093  1.0539
 2729TIP3    H229603   4.892   5.279   4.837 -0.9584 -0.1879 -0.5262
 2730TIP3   OH229604   3.624   1.154  10.982  0.0236  0.5376  0.7675
 2730TIP3    H129605   3.590   1.107  10.906 -0.8448  0.7962  0.9899
 2730TIP3    H229606   3.631   1.245  10.953  1.5604  0.3220  0.3867
 2731TIP3   OH229607   0.566   1.461   2.021 -0.0072 -0.3458 -0.0427
 2731TIP3    H129608   0.610   1.547   2.025  0.4459 -0.5518 -0.6352
 2731TIP3    H229609   0.473   1.482   2.026  0.1833 -0.0066  3.0906
 2732TIP3   OH229610   0.270   1.163   0.560  0.1171 -0.2802  0.9621
 2732TIP3    H129611   0.303   1.073   0.555  1.5620  0.2447  0.6905
 2732TIP3    H229612   0.302   1.195   0.644  0.9401  0.4801  0.3644
 2733TIP3   OH229613   3.246   3.812  16.605 -0.1960  0.6126  0.2592
 2733TIP3    H129614   3.224   3.784  16.516  0.5041  0.0970  0.2391
 2733TIP3    H229615   3.164   3.802  16.654  0.3850 -3.1536  0.6521
 2734TIP3   OH229616   4.868   1.398   4.846 -0.4019  0.3750  0.5180
 2734TIP3    H129617   4.939   1.392   4.910  1.2240  1.6157 -1.1359
 2734TIP3    H229618   4.843   1.490   4.847  0.5781  0.7009 -1.5862
 2735TIP3   OH229619   1.990   6.499   4.896 -0.0307 -0.0995 -0.6817
 2735TIP3    H129620   1.986   6.452   4.980 -0.6508  0.3221 -0.4692
 2735TIP3    H229621   1.919   6.562   4.901 -0.0904 -0.0912 -1.5460
 2736TIP3   OH229622   4.423   1.048   0.405  0.6141 -0.4190 -0.5088
 2736TIP3    H129623   4.397   1.056   0.314 -1.1588 -1.3204 -0.0954
 2736TIP3    H229624   4.517   1.069   0.405  0.4941  0.2215 -2.4201
 2737TIP3   OH229625   2.580   4.614   3.063 -0.0852  0.4249  0.1599
 2737TIP3    H129626   2.519   4.682   3.091 -0.0771  0.5526 -0.1356
 2737TIP3    H229627   2.600   4.566   3.143 -0.0388  0.8124  0.3815
 2738TIP3   OH229628   6.597   3.541   0.143 -0.0228 -0.2944  0.4754
 2738TIP3    H129629   6.568   3.628   0.171 -0.4354 -0.3887  0.3509
 2738TIP3    H229630   6.565   3.482   0.211  1.5912 -0.1747  1.3536
 2739TIP3   OH229631   3.203   3.843   2.577  0.0585  0.3057 -0.1835
 2739TIP3    H129632   3.191   3.776   2.509  0.9548 -0.2893  0.2519
 2739TIP3    H229633   3.199   3.926   2.529 -0.3966 -0.0755 -0.8130
 2740TIP3   OH229634   4.414   0.123   4.701  0.4558  0.2774  0.1395
 2740TIP3    H129635   4.495   0.072   4.694 -0.0393 -0.6461  1.1912
 2740TIP3    H229636   4.444   0.214   4.694  1.5296 -0.0700  0.0046
 2741TIP3   OH229637   6.458   2.055   5.825  0.0786  0.5405  0.6376
 2741TIP3    H129638   6.500   2.100   5.898 -1.4404  3.0865 -0.0027
 2741TIP3    H229639   6.469   2.115   5.751  0.2032 -1.2927 -0.8763
 2742TIP3   OH229640   3.480   5.276  13.655 -0.0923  0.1848  0.4390
 2742TIP3    H129641   3.510   5.185  13.650  1.6053  0.8134 -2.4313
 2742TIP3    H229642   3.515   5.309  13.738  0.0043 -1.5420  1.0878
 2743TIP3   OH229643   2.599   5.317  12.909  0.0868 -0.0910  0.0440
 2743TIP3    H129644   2.631   5.228  12.896 -0.4891 -0.2168 -0.5326
 2743TIP3    H229645   2.678   5.368  12.927  0.5945 -0.4534 -1.0760
 2744TIP3   OH229646   4.442   3.739   3.614  0.7823 -0.0426  0.4154
 2744TIP3    H129647   4.432   3.726   3.708 -0.6360 -0.5906  0.2064
 2744TIP3    H229648   4.377   3.681   3.575  1.4190  0.1176 -0.9076
 2745TIP3   OH229649   3.218   0.535   3.123 -0.2341 -0.6665 -0.3344
 2745TIP3    H129650   3.187   0.578   3.203 -0.2011 -1.8114  0.3110
 2745TIP3    H229651   3.142   0.487   3.090 -0.2782 -0.0925 -1.0543
 2746TIP3   OH229652   5.000   2.188   2.043  0.3575  0.2099  0.0072
 2746TIP3    H129653   4.909   2.177   2.071  0.1679 -0.3393 -0.8076
 2746TIP3    H229654   5.041   2.103   2.056  0.0682 -0.2776 -2.0463
 2747TIP3   OH229655   3.437   5.330  14.284  0.6627  0.1980 -1.2386
 2747TIP3    H129656   3.514   5.286  14.248  1.3053  1.7541 -1.8213
 2747TIP3    H229657   3.386   5.260  14.325  1.0445 -1.2633 -3.1955
 2748TIP3   OH229658   2.245   3.084   6.567 -0.2930  0.3303  0.2114
 2748TIP3    H129659   2.203   3.040   6.641  1.0343  1.8147  1.8947
 2748TIP3    H229660   2.304   3.017   6.531  0.2150  0.0682  1.4837
 2749TIP3   OH229661   0.020   4.145  11.817  0.7468  0.4190  0.3147
 2749TIP3    H129662  -0.008   4.181  11.733  2.2502 -1.2167 -0.9123
 2749TIP3    H229663   0.116   4.150  11.814  0.7882  1.0955  2.2742
 2750TIP3   OH229664   1.573   5.105  10.760 -0.2119 -0.2934  0.8028
 2750TIP3    H129665   1.654   5.156  10.753  0.3454 -1.2136  0.2647
 2750TIP3    H229666   1.534   5.110  10.673 -0.5336 -0.1720  0.9536
 2751TIP3   OH229667   0.246   1.864  12.753  0.0875  0.1318 -0.2822
 2751TIP3    H129668   0.332   1.839  12.789 -0.5817 -3.2979 -0.8380
 2751TIP3    H229669   0.202   1.908  12.825  1.1012 -1.0778  1.1198
 2752TIP3   OH229670   3.169   1.232  13.515  0.4954 -0.0832 -0.1036
 2752TIP3    H129671   3.231   1.304  13.503 -1.3454  1.4875 -0.4134
 2752TIP3    H229672   3.206   1.160  13.464  2.4793  0.5418  0.3854
 2753TIP3   OH229673   0.331   0.365   3.918 -0.0798 -0.0018  0.3161
 2753TIP3    H129674   0.258   0.307   3.898  0.9961 -1.6266  1.0218
 2753TIP3    H229675   0.403   0.333   3.863  0.7432  0.1536  1.2723
 2754TIP3   OH229676   4.491   5.346  13.045 -0.8572  0.1740  0.5646
 2754TIP3    H129677   4.512   5.273  13.104 -1.8879 -3.2668 -3.1029
 2754TIP3    H229678   4.398   5.362  13.060 -0.7564  0.3864  0.9860
 2755TIP3   OH229679   4.920   0.332  12.321 -0.4474  0.5337 -0.5020
 2755TIP3    H129680   4.863   0.403  12.293 -0.3713 -0.0370 -2.1510
 2755TIP3    H229681   4.992   0.375  12.366 -1.1539  1.3946 -0.1980
 2756TIP3   OH229682   3.484   4.336  12.657 -0.3145 -0.6640 -0.5111
 2756TIP3    H129683   3.462   4.395  12.585  1.4955  1.4995  0.6522
 2756TIP3    H229684   3.554   4.281  12.621  1.3539  1.1385 -0.1144
 2757TIP3   OH229685   1.890   5.630   5.446  0.3151 -0.2686 -0.5003
 2757TIP3    H129686   1.966   5.585   5.483  1.1287  1.7776  0.3861
 2757TIP3    H229687   1.889   5.605   5.354 -0.1829 -3.3357  0.2750
 2758TIP3   OH229688   4.598   0.052  11.710 -0.1563 -0.7868  0.0391
 2758TIP3    H129689   4.544   0.129  11.693  0.2699 -0.4834  0.0606
 2758TIP3    H229690   4.588   0.036  11.804  0.3582 -0.3041  0.1750
 2759TIP3   OH229691   0.066   1.953   3.480 -0.1096  0.1065 -0.0585
 2759TIP3    H129692   0.025   1.867   3.472  3.2710 -1.7605  1.8851
 2759TIP3    H229693   0.108   1.967   3.395 -1.2488  0.1671 -0.6199
 2760TIP3   OH229694   1.474   5.039  11.248  0.1363  0.2578 -0.8255
 2760TIP3    H129695   1.559   5.084  11.246  0.3514  0.0008  1.6684
 2760TIP3    H229696   1.473   4.994  11.332 -0.8297 -2.9688 -2.4893
 2761TIP3   OH229697   0.452   0.644  10.975  0.6305 -0.0852 -0.2213
 2761TIP3    H129698   0.373   0.614  10.931  0.0534 -0.8115  1.2772
 2761TIP3    H229699   0.514   0.660  10.904 -1.3111  1.9273 -1.5232
 2762TIP3   OH229700   5.772   1.118  15.419 -0.3214  0.4528  0.3289
 2762TIP3    H129701   5.780   1.168  15.500 -0.4119  1.7405 -0.4549
 2762TIP3    H229702   5.850   1.140  15.368 -0.6292  0.2140 -0.2572
 2763TIP3   OH229703   6.141   3.428  15.299  0.6954 -0.4036 -0.5978
 2763TIP3    H129704   6.075   3.361  15.313 -0.5042  0.5922 -1.3859
 2763TIP3    H229705   6.223   3.380  15.290 -0.2321 -1.7872 -1.7427
 2764TIP3   OH229706   5.118   0.164   0.214  0.4230  0.3018 -0.3490
 2764TIP3    H129707   5.137   0.183   0.306  1.7964  1.3660 -0.8426
 2764TIP3    H229708   5.064   0.237   0.184  0.7912  0.4543 -0.6479
 2765TIP3   OH229709   0.911   6.010   1.942  0.5605  0.3389 -0.0081
 2765TIP3    H129710   0.892   5.998   1.849 -2.1191 -0.6054  0.6374
 2765TIP3    H229711   0.874   5.933   1.985  1.3727  0.9740  1.9206
 2766TIP3   OH229712   4.149   1.665  12.844  0.5849  0.5365 -1.0527
 2766TIP3    H129713   4.096   1.733  12.802  1.6871  2.6674  0.9180
 2766TIP3    H229714   4.239   1.694  12.831  0.9648  1.2172  2.6365
 2767TIP3   OH229715   5.553   0.988  14.272  0.0662 -0.6949  0.1971
 2767TIP3    H129716   5.640   0.959  14.244  0.8513  1.2216  0.5929
 2767TIP3    H229717   5.497   0.974  14.195  1.5149  1.4649 -1.2966
 2768TIP3   OH229718   1.851   3.964  12.144 -0.5784  0.1232  0.3483
 2768TIP3    H129719   1.856   3.998  12.055  0.2847  0.3120  0.4648
 2768TIP3    H229720   1.893   3.878  12.140 -0.7533  0.0297  0.5179
 2769TIP3   OH229721   4.739   5.210   5.767  0.9022 -0.2458 -0.0864
 2769TIP3    H129722   4.675   5.266   5.812 -0.9486 -1.5701 -0.9908
 2769TIP3    H229723   4.794   5.176   5.837  1.5386  2.0248  0.5707
 2770TIP3   OH229724   6.154   1.689  16.880  0.5972  0.4823 -0.0979
 2770TIP3    H129725   6.196   1.750  16.819 -0.0437  0.9067 -0.1191
 2770TIP3    H229726   6.064   1.720  16.887  0.4821  0.0221  0.5290
 2771TIP3   OH229727   6.086   2.900  16.509  0.8827 -0.0199 -0.4130
 2771TIP3    H129728   6.014   2.836  16.507  0.0697  0.8909 -0.7290
 2771TIP3    H229729   6.042   2.984  16.519  1.9257  0.5433 -0.5421
 2772TIP3   OH229730   4.021   3.318  12.222  0.1373  0.5850  0.1616
 2772TIP3    H129731   3.971   3.374  12.163 -0.0612  1.0869  0.8031
 2772TIP3    H229732   4.110   3.321  12.188  0.6524  3.2891  1.6357
 2773TIP3   OH229733   5.361   1.904  14.774  0.4053 -0.3021  0.1772
 2773TIP3    H129734   5.304   1.946  14.840  2.2451  0.7541  1.1268
 2773TIP3    H229735   5.346   1.955  14.694  1.8656  1.6011  1.0633
 2774TIP3   OH229736   4.152   1.229   0.359  0.6044  0.6734 -0.0081
 2774TIP3    H129737   4.135   1.205   0.269 -0.2972  0.6802  0.1626
 2774TIP3    H229738   4.244   1.257   0.359  0.4657  1.1273 -1.0074
 2775TIP3   OH229739   0.844   3.153   4.442  0.5271  0.4027 -0.2094
 2775TIP3    H129740   0.903   3.081   4.419  0.5511  0.2841  0.2249
 2775TIP3    H229741   0.849   3.213   4.367  0.1731 -0.2606 -0.7644
 2776TIP3   OH229742   3.031   2.320   0.609 -0.1017 -0.0573  0.3289
 2776TIP3    H129743   3.041   2.226   0.619  0.2620 -0.1275 -0.6695
 2776TIP3    H229744   2.958   2.343   0.667 -1.0066 -1.1437 -0.3583
 2777TIP3   OH229745   6.686   2.564   3.014 -0.1958  0.2504 -0.1114
 2777TIP3    H129746   6.596   2.560   3.049 -0.1116  1.5917  0.2788
 2777TIP3    H229747   6.738   2.515   3.078 -0.5466  0.0295  0.0067
 2778TIP3   OH229748   1.472   3.657  13.122  0.2100 -0.0151 -0.5004
 2778TIP3    H129749   1.431   3.702  13.196  0.9482  1.6345 -1.0762
 2778TIP3    H229750   1.564   3.652  13.146  0.4315  0.4199 -1.2509
 2779TIP3   OH229751   1.256   3.105  16.908  0.9413 -0.1325 -0.0141
 2779TIP3    H129752   1.287   3.167  16.842  0.3928  0.7709  0.5706
 2779TIP3    H229753   1.241   3.024  16.859 -0.4036  0.8027 -1.1822
 2780TIP3   OH229754   6.363   4.875  11.588 -0.3336 -0.9551 -0.2766
 2780TIP3    H129755   6.294   4.907  11.646 -0.9987  0.0525 -1.6043
 2780TIP3    H229756   6.443   4.917  11.620 -0.9695  0.9508 -1.1126
 2781TIP3   OH229757   0.885   0.555   0.382  0.7239 -0.1754 -0.4631
 2781TIP3    H129758   0.823   0.502   0.332 -2.7007  2.9806  0.1317
 2781TIP3    H229759   0.882   0.641   0.339  1.7627  1.0910  1.8964
 2782TIP3   OH229760   0.749   2.396  17.089 -0.0508 -0.6357 -0.5238
 2782TIP3    H129761   0.770   2.307  17.118  1.5400  0.1164  0.7559
 2782TIP3    H229762   0.658   2.409  17.115 -0.1224 -1.7034 -0.2251
 2783TIP3   OH229763   3.608   5.085   3.015 -0.2046  0.1978 -0.2307
 2783TIP3    H129764   3.602   4.989   3.009 -1.1267  0.0732  2.0109
 2783TIP3    H229765   3.701   5.104   3.004  0.0260 -0.9919 -0.4424
 2784TIP3   OH229766   4.288   5.677   5.370 -0.0974 -0.3244  0.3483
 2784TIP3    H129767   4.281   5.757   5.319 -1.4275 -0.2331  0.6548
 2784TIP3    H229768   4.344   5.699   5.444  1.7572 -0.4287 -0.9968
 2785TIP3   OH229769   5.075   2.126   1.305  0.3652  0.2114 -0.0984
 2785TIP3    H129770   5.069   2.137   1.210 -0.2573  1.5175  0.0889
 2785TIP3    H229771   4.999   2.072   1.327  0.8403 -0.6032 -0.4057
 2786TIP3   OH229772   1.055   0.979   4.769  0.1646 -0.3459 -0.0715
 2786TIP3    H129773   0.982   1.018   4.720  0.5644 -1.1541 -1.3447
 2786TIP3    H229774   1.049   1.018   4.856 -0.3625  1.3932 -0.8518
 2787TIP3   OH229775   4.781   4.621   2.493 -0.1221  0.1764  0.8152
 2787TIP3    H129776   4.838   4.605   2.567 -2.3526 -2.5028  2.0493
 2787TIP3    H229777   4.815   4.564   2.423 -0.0635  0.1385  0.8750
 2788TIP3   OH229778   2.019   2.088  13.094 -0.0031  0.2102 -0.3866
 2788TIP3    H129779   2.011   2.122  13.183  1.9994  1.8950 -0.7943
 2788TIP3    H229780   1.969   2.007  13.094 -1.2796  0.9589  1.8574
 2789TIP3   OH229781   3.772   6.710  12.264  0.2330 -0.7595  0.5317
 2789TIP3    H129782   3.791   6.701  12.171 -1.1614 -0.7180  0.2394
 2789TIP3    H229783   3.687   6.667  12.276 -0.7958  1.4243  1.3146
 2790TIP3   OH229784   0.930   3.757   2.523 -0.2703 -0.0334 -0.3747
 2790TIP3    H129785   0.858   3.820   2.518 -1.2468 -1.2449 -1.8071
 2790TIP3    H229786   0.919   3.701   2.446  1.3464 -1.1529  0.1797
 2791TIP3   OH229787   5.273   5.543   1.621  0.1754 -0.0182 -0.6587
 2791TIP3    H129788   5.255   5.502   1.706  3.6922  0.4419  0.4266
 2791TIP3    H229789   5.233   5.486   1.557 -1.3313 -1.1601  1.2554
 2792TIP3   OH229790   6.733   0.636   2.810  0.0934 -0.1539 -0.2589
 2792TIP3    H129791   6.738   0.708   2.874 -0.9321  0.2623 -0.6298
 2792TIP3    H229792   6.680   0.569   2.855 -1.0356  0.3326 -0.8332
 2793TIP3   OH229793   4.555   4.103  12.222 -0.2057 -0.3612  1.0514
 2793TIP3    H129794   4.498   4.048  12.277 -2.1621 -1.0395 -1.5824
 2793TIP3    H229795   4.504   4.119  12.143  2.4850  0.7721 -0.5146
 2794TIP3   OH229796   3.500   2.887   4.823  0.2554 -0.3965 -0.2594
 2794TIP3    H129797   3.554   2.960   4.856 -0.6946 -1.7368  4.5409
 2794TIP3    H229798   3.529   2.811   4.873 -1.4983 -2.5725 -2.4258
 2795TIP3   OH229799   1.956   1.304   5.367 -0.3076 -0.3009  0.0480
 2795TIP3    H129800   1.864   1.290   5.388 -0.2992 -0.7816 -0.2200
 2795TIP3    H229801   1.996   1.333   5.449 -0.7725  0.2638  0.0718
 2796TIP3   OH229802   2.162   4.592   5.140  0.4490 -0.0452 -0.4902
 2796TIP3    H129803   2.115   4.525   5.090 -1.6619  1.4068 -0.5306
 2796TIP3    H229804   2.246   4.551   5.162 -0.3908 -2.3293 -1.3486
 2797TIP3   OH229805   4.747   4.865   1.915  0.0832  0.0539  0.3396
 2797TIP3    H129806   4.751   4.947   1.963 -2.0234 -0.3071  1.2119
 2797TIP3    H229807   4.692   4.809   1.969  3.2956 -2.7266  0.9071
 2798TIP3   OH229808   0.002   5.504  16.660 -0.4974  0.2028 -0.2926
 2798TIP3    H129809  -0.011   5.599  16.662  0.6833  0.3712 -0.3672
 2798TIP3    H229810   0.034   5.485  16.572  0.9467 -0.0270  0.2636
 2799TIP3   OH229811   2.478   1.979  17.101 -0.7197 -0.5236 -0.1659
 2799TIP3    H129812   2.383   1.972  17.088 -0.6948 -1.1912 -0.0334
 2799TIP3    H229813   2.516   1.926  17.031 -0.3679  1.3866 -1.4666
 2800TIP3   OH229814   3.802   4.147  13.557  0.0695  0.0846  0.4359
 2800TIP3    H129815   3.790   4.106  13.643 -0.9501 -1.2727 -0.3389
 2800TIP3    H229816   3.800   4.074  13.495  0.7605  1.0588 -0.7599
 2801TIP3   OH229817   2.410   3.701  15.382 -0.2617  0.1911 -0.0992
 2801TIP3    H129818   2.483   3.641  15.401 -2.6854 -2.8755 -0.0049
 2801TIP3    H229819   2.379   3.728  15.469 -0.3557  0.0356 -0.0824
 2802TIP3   OH229820   0.408   6.585  17.010 -0.9208 -0.6917  0.7859
 2802TIP3    H129821   0.440   6.532  16.937 -0.4747  0.3627  0.2064
 2802TIP3    H229822   0.349   6.648  16.969  0.6648  1.0246  1.0934
 2803TIP3   OH229823   6.441   1.251  11.384 -0.0595  0.0363 -0.0305
 2803TIP3    H129824   6.487   1.168  11.375  1.9103  0.9988  0.9593
 2803TIP3    H229825   6.359   1.229  11.428  1.0815 -1.1918  1.5339
 2804TIP3   OH229826   2.717   5.696   0.979  0.3698 -0.1040  0.1216
 2804TIP3    H129827   2.792   5.695   1.038  0.1353 -1.8437  0.4106
 2804TIP3    H229828   2.749   5.651   0.900 -0.0843 -0.0274 -0.1060
 2805TIP3   OH229829   6.658   0.896  13.573 -0.2926  0.5509  0.4874
 2805TIP3    H129830   6.624   0.873  13.659 -0.6948 -2.8563 -0.5065
 2805TIP3    H229831   6.745   0.856  13.570 -0.0249  1.1728 -0.4537
 2806TIP3   OH229832   6.240   1.555   3.624 -0.2940 -0.0773  0.4938
 2806TIP3    H129833   6.203   1.586   3.707 -0.8953  0.8168 -0.1049
 2806TIP3    H229834   6.233   1.629   3.564  0.6077 -0.5529 -0.2222
 2807TIP3   OH229835   2.569   6.553   4.931 -0.2761  0.1562  0.1481
 2807TIP3    H129836   2.616   6.606   4.866 -2.6410  0.0432 -1.7317
 2807TIP3    H229837   2.476   6.570   4.913 -1.0096 -1.5473  2.1318
 2808TIP3   OH229838   1.559   0.729  16.120  0.5496  0.0598  0.0206
 2808TIP3    H129839   1.509   0.700  16.045 -0.6674 -0.1535  0.8980
 2808TIP3    H229840   1.548   0.824  16.121  0.9641  0.1147 -0.3403
 2809TIP3   OH229841   1.813   4.437   0.927 -0.2545  0.0722 -0.0136
 2809TIP3    H129842   1.854   4.516   0.892  0.5140  0.3121  1.3735
 2809TIP3    H229843   1.867   4.365   0.896 -0.0676  0.2105 -0.0067
 2810TIP3   OH229844   3.353   1.584  13.221 -0.1757 -0.5026  0.3344
 2810TIP3    H129845   3.350   1.572  13.126  3.7518  0.5317  0.0027
 2810TIP3    H229846   3.392   1.503  13.255  0.9077  0.1772  0.7569
 2811TIP3   OH229847   2.075   1.634   0.537  0.4430  0.6584  0.0071
 2811TIP3    H129848   2.157   1.593   0.509 -0.2186 -0.7944  0.1269
 2811TIP3    H229849   2.054   1.591   0.620  1.1211  3.1916  1.5396
 2812TIP3   OH229850   1.726   3.713   5.001  0.1510 -0.2868  0.2104
 2812TIP3    H129851   1.801   3.694   4.945  0.4028 -1.2027  0.8394
 2812TIP3    H229852   1.677   3.780   4.954  1.8107  0.9294  0.1864
 2813TIP3   OH229853   1.615   0.999  16.006 -1.1219 -0.1890  0.0174
 2813TIP3    H129854   1.599   0.979  15.914  3.1150  0.8633 -1.0385
 2813TIP3    H229855   1.614   1.094  16.011 -1.6037 -0.2404  1.1748
 2814TIP3   OH229856   6.602   0.651  11.551  1.2013  0.1255  0.2945
 2814TIP3    H129857   6.681   0.674  11.600  2.0319  0.4884 -1.1761
 2814TIP3    H229858   6.634   0.600  11.476 -0.0774 -0.7644  0.3262
 2815TIP3   OH229859   1.492   4.397   0.496  0.0109  0.3321 -0.0670
 2815TIP3    H129860   1.492   4.491   0.476 -2.1530  0.3877  0.0087
 2815TIP3    H229861   1.520   4.392   0.587  0.7142  0.8671 -0.2526
 2816TIP3   OH229862   3.894   2.041  13.690 -0.7364 -0.0568 -0.1126
 2816TIP3    H129863   3.891   2.013  13.782  0.2715 -2.0227 -0.6461
 2816TIP3    H229864   3.816   2.096  13.679  0.4979  2.3230  2.5533
 2817TIP3   OH229865   2.907   6.660   6.236  0.2284 -0.3377  0.0118
 2817TIP3    H129866   2.951   6.719   6.298 -0.0185 -1.7814  1.5742
 2817TIP3    H229867   2.974   6.595   6.213  0.1460 -0.1380 -0.8239
 2818TIP3   OH229868   0.709   4.827  14.258 -0.7432  0.4467 -0.3133
 2818TIP3    H129869   0.776   4.782  14.310 -0.8419 -0.9934 -1.3817
 2818TIP3    H229870   0.737   4.815  14.168 -0.8983  2.3898 -0.6330
 2819TIP3   OH229871   4.238   4.926   5.694  0.3717 -0.0682  0.4869
 2819TIP3    H129872   4.180   4.931   5.770  0.3402 -1.5401  0.5742
 2819TIP3    H229873   4.251   4.832   5.680  0.0913  0.1745 -1.5560
 2820TIP3   OH229874   5.264   1.205  11.199 -0.5779  0.3605  0.4054
 2820TIP3    H129875   5.216   1.185  11.118 -0.0583  0.2328  0.1251
 2820TIP3    H229876   5.265   1.123  11.247  0.1003  0.1465  0.0222
 2821TIP3   OH229877   3.800   3.584   6.147  0.2452  0.1381  0.3411
 2821TIP3    H129878   3.730   3.547   6.093  0.6830  1.8599 -1.4685
 2821TIP3    H229879   3.773   3.564   6.237 -1.1037 -1.7370 -0.4432
 2822TIP3   OH229880   1.568   0.108  10.428 -0.0228  0.1135 -0.0009
 2822TIP3    H129881   1.581   0.021  10.464 -1.5650 -0.0371  0.2264
 2822TIP3    H229882   1.486   0.102  10.378  0.9929  0.8563 -1.8241
 2823TIP3   OH229883   2.032   0.030   2.332  0.1912  0.5076 -0.2762
 2823TIP3    H129884   2.015   0.123   2.320 -0.5099  0.3960 -0.1825
 2823TIP3    H229885   2.067   0.023   2.421 -0.9000  0.5383  0.1612
 2824TIP3   OH229886   4.063   4.505  12.126 -0.0477 -0.9761 -0.2439
 2824TIP3    H129887   4.151   4.504  12.161  0.3154 -0.1032 -1.1030
 2824TIP3    H229888   4.021   4.581  12.167 -0.3226 -1.2394 -0.0301
 2825TIP3   OH229889   2.480   2.959  15.927  0.2177 -0.0504  0.2413
 2825TIP3    H129890   2.533   2.958  16.007 -1.0404  0.8335  1.0964
 2825TIP3    H229891   2.403   2.906  15.949 -0.3868  0.6396 -0.2077
 2826TIP3   OH229892   0.078   1.799   2.824 -0.1962 -0.3303 -0.1808
 2826TIP3    H129893   0.014   1.853   2.777 -2.0586 -0.9756  1.5179
 2826TIP3    H229894   0.119   1.745   2.756  0.7325  2.2439 -1.7097
 2827TIP3   OH229895   4.311   6.506  12.224 -0.5926 -0.1259  0.3031
 2827TIP3    H129896   4.372   6.484  12.294 -0.7417 -1.3970  0.0476
 2827TIP3    H229897   4.226   6.509  12.266 -0.3906  1.5499  0.6393
 2828TIP3   OH229898   1.461   3.600  11.653 -0.3245 -0.7182 -0.5481
 2828TIP3    H129899   1.514   3.525  11.679  1.0076  1.8013  4.4840
 2828TIP3    H229900   1.522   3.660  11.612 -0.6208 -0.6671 -0.9190
 2829TIP3   OH229901   6.195   1.525  16.206  0.3272  0.8235 -0.0662
 2829TIP3    H129902   6.286   1.554  16.196 -0.4586  2.4838 -3.1504
 2829TIP3    H229903   6.176   1.478  16.124 -2.4428  3.0156 -0.7421
 2830TIP3   OH229904   1.479   4.419  11.330 -0.0022 -0.1802 -0.3266
 2830TIP3    H129905   1.535   4.398  11.404 -1.6685  0.8226  1.2632
 2830TIP3    H229906   1.532   4.476  11.274  0.6061  0.6426  1.0766
 2831TIP3   OH229907   0.131   0.172  15.807 -0.2706 -0.0904 -0.3109
 2831TIP3    H129908   0.153   0.144  15.896 -1.2909  0.4338  0.1268
 2831TIP3    H229909   0.213   0.203  15.770  0.4064 -1.4541  0.0167
 2832TIP3   OH229910   0.330   4.476  15.087 -0.1976  0.5996  0.5303
 2832TIP3    H129911   0.360   4.557  15.128  0.9831 -0.5879  2.0757
 2832TIP3    H229912   0.236   4.488  15.073 -0.3630  1.5200  2.4146
 2833TIP3   OH229913   6.120   3.955   0.278 -0.4207 -0.0528  0.4937
 2833TIP3    H129914   6.133   3.909   0.195 -0.5754 -2.1069  1.5777
 2833TIP3    H229915   6.103   4.046   0.253  0.4813 -0.4535 -1.6668
 2834TIP3   OH229916   2.540   5.387   4.341 -0.1602  0.0343  0.4353
 2834TIP3    H129917   2.565   5.440   4.416  0.0903 -0.6084  0.8030
 2834TIP3    H229918   2.612   5.326   4.328  1.1842  2.0670 -2.1646
 2835TIP3   OH229919   5.838   5.804  14.002 -0.0171  0.5655 -0.0284
 2835TIP3    H129920   5.804   5.715  13.994 -0.0828  0.6241 -0.4403
 2835TIP3    H229921   5.867   5.826  13.913 -2.3516  1.9183 -0.4872
 2836TIP3   OH229922   0.125   1.092  12.642 -0.1742  0.1236 -0.2306
 2836TIP3    H129923   0.216   1.111  12.663  0.2440 -2.3309  0.2728
 2836TIP3    H229924   0.104   1.153  12.571  2.5433 -0.7312 -1.8567
 2837TIP3   OH229925   4.667   5.618  17.126 -0.2615 -0.1333  0.3532
 2837TIP3    H129926   4.610   5.690  17.100 -0.2530  0.0464  0.8403
 2837TIP3    H229927   4.692   5.637  17.216 -0.3584 -0.8000  0.5323
 2838TIP3   OH229928   0.092   0.902   3.564 -0.7330 -0.4528 -0.8323
 2838TIP3    H129929   0.156   0.857   3.510 -1.2464 -4.4999  1.7739
 2838TIP3    H229930   0.143   0.937   3.637 -0.7256  1.0890 -1.5534
 2839TIP3   OH229931   3.112   2.920  15.984 -0.2763 -0.1071 -0.1740
 2839TIP3    H129932   3.080   2.966  16.061  1.7301 -0.5754  0.9817
 2839TIP3    H229933   3.207   2.928  15.989 -0.1138  0.6306 -3.1037
 2840TIP3   OH229934   5.147   1.585  15.921  0.2660 -0.0587  0.1411
 2840TIP3    H129935   5.153   1.651  15.851  0.3978 -0.2379 -0.0162
 2840TIP3    H229936   5.086   1.623  15.984 -0.7003 -0.3800 -0.5962
 2841TIP3   OH229937   6.211   5.708   5.235  0.2841  0.1953  0.5171
 2841TIP3    H129938   6.234   5.637   5.176  0.5165  0.3250  0.4515
 2841TIP3    H229939   6.218   5.787   5.182 -3.0697  0.0224 -0.3039
 2842TIP3   OH229940   0.844   1.761  15.359  0.0672  0.4379  0.4562
 2842TIP3    H129941   0.831   1.675  15.319  3.0645  1.4058 -2.7936
 2842TIP3    H229942   0.923   1.752  15.412  3.2891  2.3374 -3.7772
 2843TIP3   OH229943   5.539   4.068   0.482  0.6095 -0.0331  0.0358
 2843TIP3    H129944   5.472   4.037   0.543 -0.5279  0.2206 -1.0735
 2843TIP3    H229945   5.578   3.988   0.447  0.2792 -0.1831  0.0106
 2844TIP3   OH229946   4.644   2.457   1.981  0.1862  0.1214 -0.5594
 2844TIP3    H129947   4.566   2.486   1.934 -0.7839 -2.9849 -0.9976
 2844TIP3    H229948   4.617   2.453   2.072  0.3995  0.8633 -0.4651
 2845TIP3   OH229949   4.517   2.928   1.315 -0.2037 -0.6274  0.2378
 2845TIP3    H129950   4.494   2.958   1.227  1.1984 -0.6021 -0.1289
 2845TIP3    H229951   4.589   2.866   1.301  0.7724  0.2166  1.4545
 2846TIP3   OH229952   1.724   3.690  13.529  0.0276  0.5467  0.2317
 2846TIP3    H129953   1.742   3.608  13.576 -1.7583  0.9381  1.6661
 2846TIP3    H229954   1.778   3.755  13.573  1.7561  0.0830 -1.1710
 2847TIP3   OH229955   0.897   1.474   4.740  0.1639 -0.2962 -0.1136
 2847TIP3    H129956   0.804   1.459   4.721  0.5940 -2.0146 -1.0001
 2847TIP3    H229957   0.899   1.507   4.829 -1.3550  0.3640 -0.3163
 2848TIP3   OH229958   1.800   4.683  16.600  0.0844 -0.3556  0.7374
 2848TIP3    H129959   1.831   4.605  16.554  0.7344  0.3344  0.0059
 2848TIP3    H229960   1.855   4.687  16.679  0.8644  0.0196  0.1873
 2849TIP3   OH229961   0.540   3.370   4.569 -0.4098 -0.0327 -0.0534
 2849TIP3    H129962   0.588   3.292   4.597 -0.2611  0.4385  0.9883
 2849TIP3    H229963   0.451   3.338   4.552 -0.5040 -0.3154  0.9674
 2850TIP3   OH229964   1.479   1.086  11.451  0.0226 -0.5088  0.3559
 2850TIP3    H129965   1.486   1.022  11.381  0.2197  0.3956 -0.4616
 2850TIP3    H229966   1.418   1.152  11.419  0.3191  0.0556  0.9153
 2851TIP3   OH229967   3.886   3.267   4.573 -0.7179  0.0357 -0.1588
 2851TIP3    H129968   3.981   3.267   4.564 -0.7353 -0.7620 -0.3040
 2851TIP3    H229969   3.861   3.175   4.573 -1.4772  0.2367  0.0482
 2852TIP3   OH229970   5.122   3.219   3.794  0.5203 -0.0435 -0.4347
 2852TIP3    H129971   5.202   3.239   3.746  1.4300  1.1006  1.4935
 2852TIP3    H229972   5.126   3.125   3.809  0.0085 -0.4914 -2.9198
 2853TIP3   OH229973   4.254   2.407  16.538  0.3986  0.0048  0.3722
 2853TIP3    H129974   4.172   2.371  16.504  1.1504  0.7568 -2.3298
 2853TIP3    H229975   4.243   2.502  16.531  1.8726  0.0942 -0.9385
 2854TIP3   OH229976   3.459   5.415  16.695  0.3692  0.0023  0.4892
 2854TIP3    H129977   3.443   5.456  16.610  0.3602 -2.1621 -0.5823
 2854TIP3    H229978   3.426   5.326  16.686  1.9893 -0.8062  2.1950
 2855TIP3   OH229979   3.055   0.771   3.996 -0.2649  0.4050 -0.2489
 2855TIP3    H129980   3.094   0.802   4.078  0.4841 -0.0575 -0.4325
 2855TIP3    H229981   2.963   0.798   4.002 -0.0403  1.0401  0.4102
 2856TIP3   OH229982   1.578   5.253  11.777  0.8654  0.6873  0.3065
 2856TIP3    H129983   1.625   5.255  11.860  0.2977 -1.6455  0.7292
 2856TIP3    H229984   1.491   5.286  11.797  0.1020 -1.6810  1.1255
 2857TIP3   OH229985   4.107   0.634   5.463 -0.5488  0.6934  0.1017
 2857TIP3    H129986   4.147   0.695   5.525  0.4928  1.3663 -1.2029
 2857TIP3    H229987   4.013   0.646   5.476 -0.3515  1.3569  1.0374
 2858TIP3   OH229988   2.813   3.686  14.190  0.0181  0.1388 -0.4939
 2858TIP3    H129989   2.753   3.752  14.226  0.1775  0.2126 -0.3664
 2858TIP3    H229990   2.834   3.719  14.103 -1.7312 -0.9027 -1.3439
 2859TIP3   OH229991   5.458   1.498  12.926 -0.2895 -0.1730 -0.0711
 2859TIP3    H129992   5.403   1.566  12.966  0.4452  1.5381 -1.8972
 2859TIP3    H229993   5.529   1.486  12.989 -0.2187  1.0525  0.1045
 2860TIP3   OH229994   0.579   0.080  11.298  0.1114  0.8486 -0.1961
 2860TIP3    H129995   0.669   0.062  11.272  0.7333  2.3307  0.8774
 2860TIP3    H229996   0.587   0.121  11.384 -1.5984  0.8760 -0.0398
 2861TIP3   OH229997   1.899   5.848   1.090  0.3493  0.3985 -0.3036
 2861TIP3    H129998   1.880   5.915   1.025 -1.6171 -0.0899 -0.2800
 2861TIP3    H229999   1.893   5.765   1.042 -1.7650 -0.0060  0.5761
 2862TIP3   OH230000   2.391   0.908   2.434 -0.1327 -0.0448 -0.0086
 2862TIP3    H130001   2.340   0.962   2.494 -0.8442  0.9497 -1.4797
 2862TIP3    H230002   2.328   0.843   2.401  0.4883 -1.1959  1.0243
 2863TIP3   OH230003   0.635   2.549   0.193  0.2118 -0.1242 -0.1314
 2863TIP3    H130004   0.660   2.457   0.179  1.8002  0.1016  1.0436
 2863TIP3    H230005   0.677   2.572   0.276  0.4038  1.8743 -0.7705
 2864TIP3   OH230006   3.852   5.810  15.118 -0.5458  0.3449  0.0389
 2864TIP3    H130007   3.836   5.904  15.127 -0.7874  0.1234  2.0939
 2864TIP3    H230008   3.947   5.802  15.108 -0.5025  0.7733  0.1264
 2865TIP3   OH230009   2.973   0.766   6.162 -0.1626  0.1019  0.1744
 2865TIP3    H130010   2.889   0.787   6.122  0.4134  1.3512 -0.4147
 2865TIP3    H230011   2.958   0.684   6.208 -1.4866 -0.1070 -0.6074
 2866TIP3   OH230012   3.605   2.820  13.088  0.5722 -0.4790  0.0113
 2866TIP3    H130013   3.613   2.905  13.044  0.0398  0.6087  1.9525
 2866TIP3    H230014   3.634   2.757  13.023 -0.4002  1.0648 -1.9807
 2867TIP3   OH230015   4.835   2.971  11.807 -0.0754  0.5918 -0.2114
 2867TIP3    H130016   4.924   3.001  11.825 -0.7061  1.5385  1.4728
 2867TIP3    H230017   4.835   2.950  11.714  2.5610 -1.7108  0.2518
 2868TIP3   OH230018   4.420   3.901   4.649  0.3993 -0.2840  0.1717
 2868TIP3    H130019   4.361   3.826   4.654 -0.9256  0.7380  0.3512
 2868TIP3    H230020   4.468   3.899   4.732  0.0689 -0.7134  0.3557
 2869TIP3   OH230021   4.233   2.487   0.120  0.0721 -0.1756 -0.1469
 2869TIP3    H130022   4.240   2.396   0.092  1.8172 -0.4242  1.0025
 2869TIP3    H230023   4.301   2.533   0.071 -1.7787  0.8366 -1.8494
 2870TIP3   OH230024   0.582   5.043  13.236  0.1114  0.0980  0.3230
 2870TIP3    H130025   0.621   5.122  13.200 -0.7445  0.7117  0.7370
 2870TIP3    H230026   0.530   5.073  13.310 -1.5282 -0.6233 -0.5012
 2871TIP3   OH230027   1.163   2.382   1.039 -0.6603  0.3120  0.2290
 2871TIP3    H130028   1.183   2.472   1.066  0.8075 -0.0345  0.2958
 2871TIP3    H230029   1.074   2.367   1.071 -1.1113  1.9203 -0.2384
 2872TIP3   OH230030   4.386   0.729   3.029  0.4970  0.0931 -0.5459
 2872TIP3    H130031   4.461   0.698   2.978  2.1052 -0.2465  1.9390
 2872TIP3    H230032   4.353   0.651   3.073  0.7884  0.8230  0.9960
 2873TIP3   OH230033   4.861   5.030  16.709 -1.0794  0.2136  0.4783
 2873TIP3    H130034   4.771   5.054  16.685 -0.8147  0.5531 -0.1953
 2873TIP3    H230035   4.860   4.935  16.714 -0.8046  0.0322 -2.3168
 2874TIP3   OH230036   6.139   0.056  13.117  0.0387  0.1882  0.5820
 2874TIP3    H130037   6.123  -0.038  13.110 -2.0993  0.5764 -0.0113
 2874TIP3    H230038   6.096   0.094  13.040  0.3398  1.7158  1.1486
 2875TIP3   OH230039   5.262   6.565   6.138  0.3824 -0.5589  0.6810
 2875TIP3    H130040   5.253   6.559   6.233  0.5595 -2.3051  0.6051
 2875TIP3    H230041   5.350   6.598   6.124 -0.1992  1.2441  1.1371
 2876TIP3   OH230042   4.031   5.818  12.790 -0.2085 -0.1720 -0.2659
 2876TIP3    H130043   4.099   5.884  12.778 -0.4734  0.1946  0.2060
 2876TIP3    H230044   4.024   5.774  12.706 -0.8567  1.2056 -0.9434
 2877TIP3   OH230045   0.346   6.446  13.490  0.2236  0.3677  0.0180
 2877TIP3    H130046   0.325   6.395  13.568  2.6647 -0.2116  0.3255
 2877TIP3    H230047   0.394   6.522  13.523 -0.7392  1.3428 -0.7377
 2878TIP3   OH230048   6.666   0.393   5.724  0.0252  0.0842 -0.3765
 2878TIP3    H130049   6.627   0.480   5.723  0.5583  0.3213 -1.2623
 2878TIP3    H230050   6.683   0.376   5.817  0.1100  1.0186 -0.2097
 2879TIP3   OH230051   0.836   1.436  16.772 -0.0590  0.2752 -0.0723
 2879TIP3    H130052   0.741   1.442  16.760  0.2970 -0.3346 -3.7871
 2879TIP3    H230053   0.856   1.503  16.837 -2.8538  1.3773 -0.2761
 2880TIP3   OH230054   1.044   5.091  16.547 -0.6457 -0.0265  0.1598
 2880TIP3    H130055   1.083   5.013  16.587 -0.4383  0.8292  1.6717
 2880TIP3    H230056   1.117   5.134  16.502 -1.0424 -1.4136 -1.8798
 2881TIP3   OH230057   1.038   1.781  11.532 -0.3187 -0.3048  0.1512
 2881TIP3    H130058   1.013   1.794  11.623 -2.7038  0.6508 -0.5984
 2881TIP3    H230059   1.131   1.802  11.529 -0.5483  1.1412  2.0696
 2882TIP3   OH230060   1.691   0.055  15.374 -0.5247 -0.6289  0.3615
 2882TIP3    H130061   1.596   0.060  15.364 -0.4129 -0.0585 -0.4199
 2882TIP3    H230062   1.707  -0.034  15.404 -1.2272 -1.0076 -0.3802
 2883TIP3   OH230063   5.857   2.395   5.209  0.3491 -0.2424  0.1828
 2883TIP3    H130064   5.925   2.462   5.208  0.8730 -0.7814 -0.7123
 2883TIP3    H230065   5.901   2.316   5.241  0.5522 -0.9951 -1.8576
 2884TIP3   OH230066   4.509   0.705   4.838 -0.1435  0.2281  1.1357
 2884TIP3    H130067   4.485   0.642   4.906 -0.7455  0.3502  1.0405
 2884TIP3    H230068   4.596   0.736   4.863  1.2203 -2.4735 -0.1413
 2885TIP3   OH230069   5.175   5.220   2.900  0.0399 -0.1773  0.0413
 2885TIP3    H130070   5.094   5.189   2.940 -0.3316 -0.6513 -1.0568
 2885TIP3    H230071   5.212   5.142   2.857  1.1290  0.0118  0.6194
 2886TIP3   OH230072   6.392   6.456   5.742  0.2432  0.2801  0.2271
 2886TIP3    H130073   6.417   6.497   5.660  1.2793 -1.3643 -0.3036
 2886TIP3    H230074   6.381   6.529   5.804 -2.7072  1.7367 -1.8727
 2887TIP3   OH230075   0.725   0.576  14.939 -0.2035  0.0832 -0.3045
 2887TIP3    H130076   0.784   0.650  14.948 -0.9805  0.9340 -2.0401
 2887TIP3    H230077   0.718   0.540  15.028  0.6418  1.7065  0.4366
 2888TIP3   OH230078   0.964   6.551   4.035 -0.3738  0.0742 -0.0422
 2888TIP3    H130079   0.992   6.464   4.005 -2.3416 -0.3558 -0.6670
 2888TIP3    H230080   0.870   6.542   4.049 -1.2166  2.9692 -3.2652
 2889TIP3   OH230081   3.643   6.192   5.875 -0.6208 -0.1759  0.3047
 2889TIP3    H130082   3.638   6.107   5.919 -0.7520  0.2949  1.2039
 2889TIP3    H230083   3.735   6.200   5.849 -0.8076 -1.0205 -0.6504
 2890TIP3   OH230084   0.365   2.357   2.371  0.1437  0.3452  0.2287
 2890TIP3    H130085   0.457   2.348   2.344 -0.2955 -1.5367 -0.7017
 2890TIP3    H230086   0.315   2.342   2.291 -0.9900  1.8232  0.6346
 2891TIP3   OH230087   5.375   5.662   2.555  0.2545  0.2158 -0.6676
 2891TIP3    H130088   5.310   5.677   2.623 -0.9320  1.4351 -2.0229
 2891TIP3    H230089   5.383   5.567   2.549 -1.6054  0.0418 -0.6405
 2892TIP3   OH230090   5.914   3.657  13.888  0.1646 -0.2643 -0.8095
 2892TIP3    H130091   5.934   3.736  13.938 -0.2294 -0.8446  0.2718
 2892TIP3    H230092   5.844   3.683  13.829  0.2441  0.2727 -0.6717
 2893TIP3   OH230093   0.292   2.104   2.455 -0.0980  0.0475 -0.1163
 2893TIP3    H130094   0.220   2.166   2.458  0.2606  0.4938 -0.5502
 2893TIP3    H230095   0.259   2.032   2.400  1.1913  2.1380 -3.8553
 2894TIP3   OH230096   0.674   5.837  15.332 -0.3208 -0.1358  0.2458
 2894TIP3    H130097   0.740   5.772  15.358  0.7191  1.1392  0.8872
 2894TIP3    H230098   0.725   5.909  15.297 -1.4124  0.7220  0.4082
 2895TIP3   OH230099   4.256   3.139   0.667 -0.1614 -0.7486  0.4533
 2895TIP3    H130100   4.214   3.101   0.590  0.4590 -0.3071 -0.1214
 2895TIP3    H230101   4.350   3.137   0.646 -0.2739  4.0278 -1.0081
 2896TIP3   OH230102   2.668   0.348  12.493  0.0000  0.6002 -0.7866
 2896TIP3    H130103   2.688   0.436  12.463 -0.2434  0.7844 -0.4120
 2896TIP3    H230104   2.657   0.297  12.412  0.1087  0.9172 -1.0024
 2897TIP3   OH230105   2.408   1.230   4.732  0.4327 -0.2607  0.5851
 2897TIP3    H130106   2.313   1.240   4.725  0.3852 -0.7921  0.5197
 2897TIP3    H230107   2.441   1.320   4.739 -0.0935 -0.0913  0.8497
 2898TIP3   OH230108   4.824   5.340  15.729  0.3246  0.4623  0.1056
 2898TIP3    H130109   4.747   5.397  15.727  0.4584  0.6291 -1.1925
 2898TIP3    H230110   4.788   5.251  15.732  0.0847  0.5498 -0.1945
 2899TIP3   OH230111   2.249   6.173  13.820 -0.2443  0.3952  0.6718
 2899TIP3    H130112   2.164   6.173  13.865 -1.1479  2.0279 -0.9879
 2899TIP3    H230113   2.234   6.222  13.740  2.0733 -0.0430 -0.0700
 2900TIP3   OH230114   3.030   2.311  16.262 -0.1891 -0.2305 -0.2901
 2900TIP3    H130115   2.939   2.296  16.237  0.4671 -1.2286 -2.2031
 2900TIP3    H230116   3.067   2.224  16.273  0.6501  0.1633  0.0607
 2901TIP3   OH230117   6.765   4.541  16.254 -0.1690 -0.6752 -0.2151
 2901TIP3    H130118   6.827   4.499  16.194 -1.1641 -1.3886 -0.7821
 2901TIP3    H230119   6.680   4.531  16.210 -0.8932 -1.0461  1.2274
 2902TIP3   OH230120   2.828   6.605   3.724 -0.3622  0.6339  0.4001
 2902TIP3    H130121   2.814   6.617   3.630  1.3644  1.0184  0.1744
 2902TIP3    H230122   2.801   6.515   3.741 -1.0493  0.6826 -0.3942
 2903TIP3   OH230123   4.097   3.565   1.214  0.6932 -0.2774  0.1561
 2903TIP3    H130124   4.158   3.638   1.202  0.8036 -0.2986  0.5929
 2903TIP3    H230125   4.065   3.547   1.125 -0.8271  1.5830  0.2975
 2904TIP3   OH230126   4.924   4.434  17.191  0.0785  0.4972 -0.3806
 2904TIP3    H130127   4.996   4.476  17.239 -0.4285  1.8702 -0.7887
 2904TIP3    H230128   4.929   4.472  17.103  0.1197 -0.9423 -1.0228
 2905TIP3   OH230129   0.684   2.260  14.647 -0.1504 -0.0065 -0.4733
 2905TIP3    H130130   0.599   2.295  14.621  0.0739 -0.6967 -2.1906
 2905TIP3    H230131   0.694   2.181  14.594  1.0931 -0.5037  0.4969
 2906TIP3   OH230132   4.988   0.462  13.374 -0.0321  0.7206 -0.3583
 2906TIP3    H130133   4.938   0.527  13.424 -3.0922 -0.5678 -1.6178
 2906TIP3    H230134   5.036   0.413  13.441 -1.1218  1.4607  0.9971
 2907TIP3   OH230135   6.536   5.869   5.851 -0.3493  0.0628  0.0946
 2907TIP3    H130136   6.571   5.856   5.939 -0.0415 -1.2926 -0.2156
 2907TIP3    H230137   6.511   5.961   5.848 -0.7237  0.0178  1.7198
 2908TIP3   OH230138   5.204   2.247  14.434  0.3533  0.1796  0.7462
 2908TIP3    H130139   5.188   2.171  14.489  1.1707 -0.9724 -0.5790
 2908TIP3    H230140   5.299   2.252  14.425  0.1965 -0.4065 -1.5596
 2909TIP3   OH230141   0.073   1.432   3.582  0.9754 -0.2863 -0.2706
 2909TIP3    H130142   0.050   1.347   3.619  3.2339 -0.1953  1.5067
 2909TIP3    H230143   0.124   1.475   3.651  0.5895  2.1830 -1.4460
 2910TIP3   OH230144   5.963   2.476   4.539  0.1741  0.4894  0.1305
 2910TIP3    H130145   5.877   2.470   4.498  0.6154  0.5275 -0.7923
 2910TIP3    H230146   5.943   2.478   4.633 -0.8648  1.0575 -0.0845
 2911TIP3   OH230147   3.548   5.188   1.830 -0.2553  0.1190 -0.1326
 2911TIP3    H130148   3.624   5.197   1.888 -0.9738 -1.1378  1.0173
 2911TIP3    H230149   3.559   5.259   1.766  1.1294  0.8375  0.8657
 2912TIP3   OH230150   3.327   3.656  15.819  0.0901  0.1244  0.0480
 2912TIP3    H130151   3.315   3.637  15.726  0.1604  0.4281 -0.0258
 2912TIP3    H230152   3.323   3.752  15.824 -0.4460  0.0813  0.4310
 2913TIP3   OH230153   0.101   4.839   4.893  0.3895 -0.3257  0.1992
 2913TIP3    H130154   0.090   4.920   4.843  0.7931  0.4120  1.2789
 2913TIP3    H230155   0.142   4.868   4.975  0.0825 -1.5681  0.7867
 2914TIP3   OH230156   3.794   2.174   3.901  0.0244 -0.5583 -0.2885
 2914TIP3    H130157   3.834   2.185   3.987  1.4727 -0.5257 -0.9469
 2914TIP3    H230158   3.745   2.092   3.907  2.1160 -1.8194 -0.1577
 2915TIP3   OH230159   3.544   5.336  15.285 -0.1172  0.2241  0.1240
 2915TIP3    H130160   3.573   5.364  15.372  0.9259 -0.3105 -0.0454
 2915TIP3    H230161   3.614   5.363  15.226  0.3908 -1.6951 -0.1985
 2916TIP3   OH230162   5.210   6.771   0.439  0.0872  0.3674  0.0420
 2916TIP3    H130163   5.132   6.723   0.411  0.8780  0.7837 -3.0581
 2916TIP3    H230164   5.176   6.850   0.480 -1.1424 -0.1466  0.0566
 2917TIP3   OH230165   5.662   6.618   5.687 -0.1755  0.1978  0.0585
 2917TIP3    H130166   5.719   6.622   5.763 -0.2011 -0.6772  0.1313
 2917TIP3    H230167   5.597   6.551   5.710 -0.2696  0.0399 -0.6707
 2918TIP3   OH230168   5.413   4.840  16.651  0.6352 -0.1625  0.0652
 2918TIP3    H130169   5.475   4.833  16.579  0.3793 -0.6172 -0.1095
 2918TIP3    H230170   5.467   4.857  16.728  1.0172 -0.9382 -0.0239
 2919TIP3   OH230171   3.033   5.930   1.471 -0.2275 -0.5657 -0.1272
 2919TIP3    H130172   3.053   5.999   1.535  1.7441 -2.4786  1.3933
 2919TIP3    H230173   2.943   5.949   1.444  0.5828  3.1265 -0.4795
 2920TIP3   OH230174   4.303   5.595   5.767 -0.1905  0.3034 -0.5341
 2920TIP3    H130175   4.348   5.596   5.851  0.3118 -1.6040 -0.7435
 2920TIP3    H230176   4.354   5.655   5.712 -0.0192  0.8999  0.2708
 2921TIP3   OH230177   0.621   0.992  11.321  0.5536  0.5913  0.2145
 2921TIP3    H130178   0.614   0.919  11.382 -1.2421  0.7613  0.2341
 2921TIP3    H230179   0.543   0.985  11.266  1.6954  0.9469 -1.5161
 2922TIP3   OH230180   3.620   5.788   5.329  0.4531 -0.4819  0.3713
 2922TIP3    H130181   3.536   5.742   5.331 -0.4881  0.8852 -3.1488
 2922TIP3    H230182   3.675   5.733   5.273 -0.0275  1.5508 -2.1769
 2923TIP3   OH230183   1.035   3.503   0.884 -0.3808  0.5947 -0.2002
 2923TIP3    H130184   1.006   3.554   0.809 -1.7075 -0.2614 -0.2808
 2923TIP3    H230185   1.058   3.418   0.848 -0.7822  0.2591  0.3302
 2924TIP3   OH230186   1.250   4.013   0.982 -0.0585 -0.1308 -0.1322
 2924TIP3    H130187   1.260   3.951   1.054  2.2232 -1.5162 -1.5638
 2924TIP3    H230188   1.299   4.090   1.009  2.3130 -1.3212 -0.8930
 2925TIP3   OH230189   6.438   1.937  12.147 -0.2452 -0.1246 -0.0934
 2925TIP3    H130190   6.360   1.900  12.189 -0.3237  0.7716  0.5482
 2925TIP3    H230191   6.417   2.029  12.134  0.7924  0.1692  0.2902
 2926TIP3   OH230192   0.098   2.152  11.603  0.0028 -0.1606 -0.0294
 2926TIP3    H130193   0.107   2.241  11.639  0.0949 -0.4732  0.7244
 2926TIP3    H230194   0.028   2.160  11.538  0.1703  0.5196 -0.1321
 2927TIP3   OH230195   5.342   3.490  11.732 -0.6818  0.5779  0.1573
 2927TIP3    H130196   5.360   3.415  11.675 -1.9840 -1.1826  1.9426
 2927TIP3    H230197   5.247   3.486  11.746 -0.7236  2.4253  0.4954
 2928TIP3   OH230198   2.992   0.932  11.394  0.5207 -0.5367  0.0480
 2928TIP3    H130199   3.063   0.943  11.458 -0.5329  3.3885  0.7209
 2928TIP3    H230200   2.914   0.920  11.448  0.2442 -1.6813 -0.6088
 2929TIP3   OH230201   2.950   1.128  16.966  0.0400 -0.2645 -0.0867
 2929TIP3    H130202   2.887   1.135  17.038 -0.8665 -0.6149 -0.8413
 2929TIP3    H230203   2.904   1.080  16.898  0.7070  0.5415 -1.1188
 2930TIP3   OH230204   1.756   4.794   5.847 -0.3374 -0.1900  0.0307
 2930TIP3    H130205   1.761   4.853   5.922 -1.7548 -1.7999  1.4374
 2930TIP3    H230206   1.662   4.790   5.826 -0.0560 -0.5275 -1.2063
 2931TIP3   OH230207   5.593   1.880  16.363 -0.3234 -0.1054  0.1396
 2931TIP3    H130208   5.682   1.846  16.368 -0.3838 -0.4710 -1.2590
 2931TIP3    H230209   5.579   1.921  16.449  1.2439  0.1300  0.3041
 2932TIP3   OH230210   5.040   5.185  16.604  0.6558  0.0610 -0.1458
 2932TIP3    H130211   4.985   5.223  16.536  1.6783  0.1950 -0.9193
 2932TIP3    H230212   4.985   5.118  16.645  0.5501 -1.2074 -2.2463
 2933TIP3   OH230213   6.169   0.982   5.244  0.3008 -0.3480 -0.3693
 2933TIP3    H130214   6.234   1.011   5.308  0.4238 -0.4829 -0.4315
 2933TIP3    H230215   6.094   0.953   5.297 -0.5902  1.8614 -0.3603
 2934TIP3   OH230216   0.412   5.389   3.458 -0.0076 -0.2524 -0.2302
 2934TIP3    H130217   0.477   5.455   3.435 -0.8050  0.4883 -0.3835
 2934TIP3    H230218   0.433   5.364   3.548 -0.8037  1.5353  0.4636
 2935TIP3   OH230219   4.191   0.784  16.641  0.1308  0.1657  0.3406
 2935TIP3    H130220   4.226   0.831  16.566 -1.2808  0.0242 -0.4422
 2935TIP3    H230221   4.168   0.698  16.606  0.9054 -0.4522  1.3081
 2936TIP3   OH230222   1.611   4.937   0.732  0.3491 -0.1784  0.4510
 2936TIP3    H130223   1.522   4.902   0.734  0.3828 -0.3331 -0.5535
 2936TIP3    H230224   1.667   4.864   0.757  0.5235 -1.2237 -2.7601
 2937TIP3   OH230225   1.839   1.979   0.232  0.5859 -0.1999  0.0687
 2937TIP3    H130226   1.908   1.934   0.280  0.7352 -0.1279 -0.0755
 2937TIP3    H230227   1.885   2.028   0.164  0.3484 -0.6248 -0.4036
 2938TIP3   OH230228   1.721   1.028  15.206 -0.3206 -0.3961  0.2630
 2938TIP3    H130229   1.741   1.093  15.139 -2.5466  0.0112 -0.0500
 2938TIP3    H230230   1.797   0.970  15.207  0.5589  0.6967 -1.2819
 2939TIP3   OH230231   3.791   1.549   2.508 -0.5175  0.6575 -0.1010
 2939TIP3    H130232   3.772   1.480   2.572 -1.4594  1.5126  0.5563
 2939TIP3    H230233   3.886   1.560   2.513 -0.6869  1.5103  2.0121
 2940TIP3   OH230234   0.810   5.868  14.004  0.2551 -0.1211  0.4162
 2940TIP3    H130235   0.863   5.807  13.953 -0.1206 -0.4915  0.4697
 2940TIP3    H230236   0.724   5.867  13.962 -0.0837 -0.4959  1.1045
 2941TIP3   OH230237   3.700   5.874   1.738 -0.1388  0.0440 -0.4576
 2941TIP3    H130238   3.674   5.866   1.646  2.7241 -1.0695 -1.2049
 2941TIP3    H230239   3.744   5.959   1.744 -1.1750  0.5609  0.1478
 2942TIP3   OH230240   1.931   5.503  12.331  0.7276  0.1893  0.4025
 2942TIP3    H130241   1.947   5.589  12.368 -0.2635  0.4338  0.2740
 2942TIP3    H230242   1.861   5.516  12.268  1.1002 -0.5711 -0.1893
 2943TIP3   OH230243   1.615   1.099  14.778 -0.2568 -0.2822 -0.0019
 2943TIP3    H130244   1.693   1.137  14.737 -1.0307 -0.8611 -2.1216
 2943TIP3    H230245   1.637   1.007  14.792 -0.8596 -0.6838 -1.5206
 2944TIP3   OH230246   0.399   0.700  11.239  0.3797  0.3677 -0.0943
 2944TIP3    H130247   0.348   0.628  11.278 -0.2630  0.4083 -0.8394
 2944TIP3    H230248   0.426   0.666  11.154  0.4334  0.8565 -0.2709
 2945TIP3   OH230249   4.361   3.068  16.229 -0.5311  0.5727  0.2973
 2945TIP3    H130250   4.329   2.994  16.179  1.4401 -0.6122  0.7024
 2945TIP3    H230251   4.457   3.058  16.228 -0.2450  2.9082  0.6600
 2946TIP3   OH230252   3.300   6.458  14.060  0.1157 -0.3790  0.6744
 2946TIP3    H130253   3.291   6.547  14.026 -0.6821 -1.1880 -1.3176
 2946TIP3    H230254   3.394   6.439  14.051  0.0684 -0.2293 -0.1835
 2947TIP3   OH230255   1.625   4.718   2.982  0.6979  0.2038  0.1157
 2947TIP3    H130256   1.696   4.755   3.035  0.5196  0.3041  0.2855
 2947TIP3    H230257   1.656   4.630   2.960  0.2077 -0.3266  1.4975
 2948TIP3   OH230258   3.937   0.818   3.775  0.2190  0.0975  1.0746
 2948TIP3    H130259   3.918   0.844   3.865  0.7462  1.2840  0.8483
 2948TIP3    H230260   4.020   0.862   3.754 -0.2578  0.4041 -0.2236
 2949TIP3   OH230261   5.898   0.337   2.014  0.1786 -0.4937 -0.1860
 2949TIP3    H130262   5.881   0.426   1.982  0.0177 -1.2094 -2.1599
 2949TIP3    H230263   5.818   0.312   2.060 -0.0832  0.0840 -0.3263
 2950TIP3   OH230264   0.951   3.558  17.064  0.4869 -0.2409  0.1689
 2950TIP3    H130265   0.946   3.627  16.997 -1.2247  0.5310  1.0718
 2950TIP3    H230266   1.021   3.587  17.123  2.2531 -1.1054 -1.4565
 2951TIP3   OH230267   4.991   6.062  16.783 -0.5322  0.1763  0.5598
 2951TIP3    H130268   4.949   6.010  16.851  0.5176  0.0794  1.1385
 2951TIP3    H230269   5.083   6.062  16.806 -0.2934  0.9030 -0.3637
 2952TIP3   OH230270   2.072   2.577  14.178  0.3674  0.9820 -0.0083
 2952TIP3    H130271   2.076   2.606  14.087  0.8219  0.6905 -0.0800
 2952TIP3    H230272   2.015   2.641  14.221 -1.6340 -0.1131 -0.9692
 2953TIP3   OH230273   3.869   0.362   2.124  0.3112  0.2642  0.1730
 2953TIP3    H130274   3.954   0.324   2.147 -0.3540 -0.9434  0.6841
 2953TIP3    H230275   3.806   0.309   2.171 -0.9354 -0.6060 -2.3872
 2954TIP3   OH230276   5.039   3.910   2.486  0.3474 -0.7430 -0.1727
 2954TIP3    H130277   5.105   3.961   2.439  1.0764 -1.1560  0.3923
 2954TIP3    H230278   5.021   3.961   2.565  0.2853 -0.8296 -0.1310
 2955TIP3   OH230279   1.128   6.737  15.208 -0.1803  0.4814 -0.0221
 2955TIP3    H130280   1.075   6.718  15.285 -2.1997  3.5327 -0.5954
 2955TIP3    H230281   1.087   6.686  15.138  0.3477 -0.5814  0.4209
 2956TIP3   OH230282   6.611   2.395   2.823  0.3429  0.0015  0.0946
 2956TIP3    H130283   6.639   2.456   2.891  2.1426  0.5846 -1.1356
 2956TIP3    H230284   6.620   2.444   2.741 -2.0586 -0.5963 -0.5700
 2957TIP3   OH230285   6.660   3.531  12.740 -0.1547 -0.3920 -0.4738
 2957TIP3    H130286   6.585   3.517  12.681  1.2981 -0.1698 -2.4256
 2957TIP3    H230287   6.647   3.620  12.773  0.2228  0.3603 -2.2885
 2958TIP3   OH230288   5.703   5.889  15.001 -0.1371 -0.3869 -0.0752
 2958TIP3    H130289   5.756   5.832  15.057  1.1310  0.0759 -0.7752
 2958TIP3    H230290   5.645   5.829  14.954 -0.1858 -0.9112  0.6371
 2959TIP3   OH230291   4.099   5.706  13.545  0.0686  0.1203 -0.0553
 2959TIP3    H130292   4.160   5.763  13.499 -1.6396  1.1106 -1.1373
 2959TIP3    H230293   4.072   5.758  13.622 -0.0247  0.0077 -0.0121
 2960TIP3   OH230294   4.083   0.858   6.248 -0.6966  0.2019  0.4100
 2960TIP3    H130295   4.044   0.881   6.332 -0.0422  3.1206 -0.0537
 2960TIP3    H230296   4.052   0.924   6.187 -0.2959 -1.2491 -1.4350
 2961TIP3   OH230297   0.051   3.209   4.277  0.0414  0.5300 -0.0530
 2961TIP3    H130298  -0.008   3.275   4.312  1.5088  1.8808 -0.0487
 2961TIP3    H230299   0.128   3.212   4.335  1.0556  0.3870 -1.3670
 2962TIP3   OH230300   2.489   3.659  10.360  0.7824 -0.1422  0.1847
 2962TIP3    H130301   2.572   3.645  10.404 -0.2165 -0.4106  2.0128
 2962TIP3    H230302   2.494   3.748  10.326  1.4421  0.1841  1.1325
 2963TIP3   OH230303   5.056   0.765  11.261 -0.3524 -0.5101 -0.0079
 2963TIP3    H130304   4.967   0.749  11.230 -0.6756  0.7025  0.2743
 2963TIP3    H230305   5.045   0.802  11.348  0.3086  2.1536 -1.0136
 2964TIP3   OH230306   2.573   4.112  11.174  0.8268 -0.7544 -0.8866
 2964TIP3    H130307   2.495   4.148  11.131 -0.0842  0.2260  1.5209
 2964TIP3    H230308   2.647   4.150  11.125 -0.1833  0.7536 -1.2752
 2965TIP3   OH230309   2.264   3.567  13.413  0.1588 -0.1517 -0.1369
 2965TIP3    H130310   2.309   3.484  13.430  0.1103  0.0810  1.1690
 2965TIP3    H230311   2.329   3.634  13.436  0.8358  0.2021 -2.8729
 2966TIP3   OH230312   1.788   5.562   3.290  0.2669 -0.6670  0.1366
 2966TIP3    H130313   1.711   5.618   3.304  0.4022 -0.4933  0.1787
 2966TIP3    H230314   1.759   5.499   3.224  0.1509 -0.4763  0.0026
 2967TIP3   OH230315   1.951   3.977  16.756 -0.0283  0.5505 -0.2928
 2967TIP3    H130316   2.022   3.938  16.705  0.4900  1.4340 -0.2596
 2967TIP3    H230317   1.995   4.027  16.825 -0.6450  1.9263 -0.8757
 2968TIP3   OH230318   6.116   0.704   4.970 -0.2223 -0.3552  0.0730
 2968TIP3    H130319   6.029   0.742   4.983 -0.2929 -0.1989 -0.8293
 2968TIP3    H230320   6.102   0.610   4.981 -0.2855 -0.2386  1.0498
 2969TIP3   OH230321   5.201   5.939  13.716  0.3049  0.1792  0.3861
 2969TIP3    H130322   5.270   6.004  13.728 -0.0230  0.7123 -0.4887
 2969TIP3    H230323   5.131   5.968  13.775  0.6624 -0.1186  0.9560
 2970TIP3   OH230324   3.916   6.157   5.771 -0.3473 -0.2483  0.2957
 2970TIP3    H130325   3.977   6.109   5.714  0.1459 -1.2985  1.6913
 2970TIP3    H230326   3.972   6.194   5.839 -1.0701  0.1902  0.6543
 2971TIP3   OH230327   3.175   0.625   3.409 -0.2152  0.2913  0.6679
 2971TIP3    H130328   3.081   0.623   3.429 -0.8773 -1.2630 -2.3397
 2971TIP3    H230329   3.192   0.716   3.384 -1.2228  0.2827 -0.0871
 2972TIP3   OH230330   2.804   1.071  12.564  0.6624  0.3377 -0.0120
 2972TIP3    H130331   2.797   1.022  12.646  1.0661 -1.1484 -0.8394
 2972TIP3    H230332   2.898   1.086  12.553  0.5196  1.5591  0.3781
 2973TIP3   OH230333   4.266   2.535   4.240 -0.1884 -0.3973  0.9414
 2973TIP3    H130334   4.286   2.525   4.147  0.3591  0.7489  0.9251
 2973TIP3    H230335   4.329   2.478   4.284  1.1735  0.9041  0.7298
 2974TIP3   OH230336   1.351   3.481   5.374 -0.1895 -0.2750 -0.0411
 2974TIP3    H130337   1.377   3.572   5.368 -1.9659  0.4119  2.1131
 2974TIP3    H230338   1.368   3.445   5.286  1.7615  1.7451 -0.5220
 2975TIP3   OH230339   2.976   5.822   0.125 -0.1771 -0.0265 -0.2569
 2975TIP3    H130340   2.921   5.744   0.133  2.2716 -1.6498  1.5839
 2975TIP3    H230341   2.969   5.866   0.209  1.2737 -0.2300 -0.0085
 2976TIP3   OH230342   0.702   4.089   0.828 -0.1440  0.0044  0.0831
 2976TIP3    H130343   0.760   4.030   0.875  0.6197  1.5696  1.1460
 2976TIP3    H230344   0.759   4.139   0.769 -0.2859  1.9374  1.5323
 2977TIP3   OH230345   4.856   5.020   5.194  0.4690 -0.3664 -0.1161
 2977TIP3    H130346   4.840   4.940   5.243 -2.7042 -0.8941 -1.9339
 2977TIP3    H230347   4.823   5.090   5.250 -1.5165 -0.8152 -0.6903
 2978TIP3   OH230348   2.800   3.226   2.335  0.3460 -0.1315 -0.1840
 2978TIP3    H130349   2.806   3.263   2.247 -1.3479 -0.9096 -0.6340
 2978TIP3    H230350   2.750   3.145   2.324 -1.9091  0.9513  1.8367
 2979TIP3   OH230351   1.885   6.137  11.084  0.0202  0.1403  0.1999
 2979TIP3    H130352   1.909   6.045  11.071 -0.8781 -0.0975  0.1690
 2979TIP3    H230353   1.906   6.180  11.002  1.5881  0.2134  0.6267
 2980TIP3   OH230354   2.613   5.809  16.383  0.2666 -0.8196 -0.3726
 2980TIP3    H130355   2.621   5.786  16.290  0.0797 -0.7022 -0.4184
 2980TIP3    H230356   2.570   5.732  16.422 -1.6987  0.0309 -0.7986
 2981TIP3   OH230357   2.838   5.700  14.434 -0.4807  0.3689 -0.0835
 2981TIP3    H130358   2.756   5.682  14.388  0.4032 -0.6323 -1.2955
 2981TIP3    H230359   2.879   5.771  14.384 -0.1182  0.1583 -0.0902
 2982TIP3   OH230360   5.182   5.765  17.210  0.2561  0.3735  0.0092
 2982TIP3    H130361   5.212   5.854  17.188 -1.0069  0.8872  0.3037
 2982TIP3    H230362   5.168   5.723  17.125 -0.6560  0.9907 -0.1583
 2983TIP3   OH230363   2.128   1.209  15.573  0.4315  0.1761 -0.4081
 2983TIP3    H130364   2.151   1.244  15.659  0.8110  1.4206 -1.0036
 2983TIP3    H230365   2.212   1.197  15.529  0.2524 -0.6770 -0.5305
 2984TIP3   OH230366   6.722   3.516  16.478  0.3574  0.3042  0.7495
 2984TIP3    H130367   6.793   3.460  16.445 -1.5709 -0.8090 -1.6402
 2984TIP3    H230368   6.702   3.480  16.564  1.7672 -0.2218  0.8812
 2985TIP3   OH230369   1.779   5.550   3.569 -0.8329  0.0554  0.5958
 2985TIP3    H130370   1.794   5.523   3.479  0.5389 -0.6274  1.0139
 2985TIP3    H230371   1.818   5.637   3.575  0.7977 -0.6857  1.0192
 2986TIP3   OH230372   6.024   2.428  16.553 -0.3123 -0.1152 -0.2862
 2986TIP3    H130373   6.062   2.425  16.465  0.6866  0.0617  0.1333
 2986TIP3    H230374   6.090   2.387  16.609 -0.5526  0.5827  0.5128
 2987TIP3   OH230375   0.671   4.365  13.302  0.1994 -0.2582 -0.0935
 2987TIP3    H130376   0.605   4.295  13.298 -0.7594  0.6232  0.1691
 2987TIP3    H230377   0.650   4.423  13.229 -0.3141  0.8945  0.9575
 2988TIP3   OH230378   1.479   6.537  14.065  0.1214 -0.2983  0.2250
 2988TIP3    H130379   1.529   6.504  13.990 -0.3427  0.2901 -0.3587
 2988TIP3    H230380   1.426   6.463  14.093  0.5174 -0.6082  0.1496
 2989TIP3   OH230381   2.676   1.669  11.218 -0.1074 -0.0554 -0.3122
 2989TIP3    H130382   2.714   1.742  11.169 -0.2121  0.2546  0.0613
 2989TIP3    H230383   2.744   1.602  11.218  1.1009  1.1266  1.7769
 2990TIP3   OH230384   3.899   4.739   0.110 -0.1717 -0.0521  0.9060
 2990TIP3    H130385   3.986   4.714   0.079 -0.4840 -0.3391  0.2610
 2990TIP3    H230386   3.898   4.712   0.202  0.2973 -0.3729  0.8193
 2991TIP3   OH230387   6.138   6.192  13.112  0.2682 -0.5988  0.0418
 2991TIP3    H130388   6.138   6.143  13.194  0.7644  0.0956  0.4587
 2991TIP3    H230389   6.048   6.226  13.104  0.2017 -0.7244  0.2600
 2992TIP3   OH230390   0.151   5.996  14.598  0.4137 -0.0084 -0.2433
 2992TIP3    H130391   0.117   5.949  14.521 -1.1022  0.3035  0.2192
 2992TIP3    H230392   0.235   5.955  14.616 -0.3738 -1.7971 -0.5394
 2993TIP3   OH230393   3.060   3.351   2.600 -0.2266  0.2722 -0.1819
 2993TIP3    H130394   2.976   3.308   2.614 -0.3043  0.3769 -0.3166
 2993TIP3    H230395   3.060   3.374   2.507 -0.5320  1.2956  0.0689
 2994TIP3   OH230396   6.146   2.088   4.247 -0.2880 -0.8301  0.1060
 2994TIP3    H130397   6.176   2.127   4.165  0.2859 -1.2424  0.1208
 2994TIP3    H230398   6.173   2.149   4.314  0.0141 -0.9191  0.0664
 2995TIP3   OH230399   5.237   3.309   2.910 -0.1014 -0.0603  0.3571
 2995TIP3    H130400   5.259   3.396   2.944 -0.3213  0.1527 -0.0409
 2995TIP3    H230401   5.160   3.282   2.959 -1.4666  0.9843 -1.1546
 2996TIP3   OH230402   4.940   0.632   1.586 -0.1114  0.2666 -0.0987
 2996TIP3    H130403   4.951   0.725   1.602  0.0307  0.3386 -0.6063
 2996TIP3    H230404   4.999   0.613   1.513 -1.2785  0.0884 -1.0029
 2997TIP3   OH230405   3.247   4.075  11.596 -0.4397  0.2174  0.3710
 2997TIP3    H130406   3.246   4.080  11.501 -0.5396 -1.0968  0.3020
 2997TIP3    H230407   3.278   3.987  11.615 -0.9096  0.3055  1.5569
 2998TIP3   OH230408   1.191   2.741   0.754 -0.0437  0.1995  0.0025
 2998TIP3    H130409   1.218   2.813   0.696 -1.0363  0.2481 -0.4146
 2998TIP3    H230410   1.227   2.662   0.712  1.9113  0.5302  0.9968
 2999TIP3   OH230411   4.024   1.488   4.692 -0.1227 -0.3969 -0.0123
 2999TIP3    H130412   3.963   1.525   4.628 -0.3381 -0.1968  0.3125
 2999TIP3    H230413   4.103   1.470   4.641  1.2914  3.7883  0.5127
 3000TIP3   OH230414   4.852   0.503   2.902 -0.3236  0.1880  0.0627
 3000TIP3    H130415   4.914   0.533   2.836  0.6120  1.8278  1.6508
 3000TIP3    H230416   4.885   0.417   2.929  0.1834  0.2191 -0.4457
 3001TIP3   OH230417   1.919   2.493   1.026  0.8144 -0.0531  0.4096
 3001TIP3    H130418   1.937   2.587   1.031  1.8280 -0.1007 -1.6100
 3001TIP3    H230419   1.978   2.454   1.090  0.3238  0.6792  1.3274
 3002TIP3   OH230420   5.308   4.776  12.592  0.9408 -0.0023  0.2085
 3002TIP3    H130421   5.364   4.710  12.551  1.0020  0.4381 -0.4311
 3002TIP3    H230422   5.346   4.860  12.563  1.1379  0.3146  1.3721
 3003TIP3   OH230423   4.666   5.081  13.769  0.3291 -0.2653 -0.1341
 3003TIP3    H130424   4.630   5.128  13.844 -0.1514 -2.7089  1.2568
 3003TIP3    H230425   4.598   5.019  13.744  1.8169 -1.8814 -0.3329
 3004TIP3   OH230426   6.350   2.332   1.979  0.3477  0.1979  0.0908
 3004TIP3    H130427   6.311   2.254   1.940 -0.0572  0.4766 -0.0561
 3004TIP3    H230428   6.364   2.307   2.071 -3.2873  1.2338  0.9711
 3005TIP3   OH230429   6.338   5.435  15.566  0.2053  0.1062  0.3479
 3005TIP3    H130430   6.385   5.419  15.648  2.5808 -0.5345 -1.0671
 3005TIP3    H230431   6.371   5.520  15.536 -0.0852 -0.0101 -0.3042
 3006TIP3   OH230432   5.120   2.171   5.189 -0.1757 -0.0043 -0.2364
 3006TIP3    H130433   5.126   2.165   5.284 -1.2523 -1.3090 -0.2476
 3006TIP3    H230434   5.176   2.100   5.157  1.3387  1.3183 -0.6228
 3007TIP3   OH230435   2.284   6.301   0.502  0.0613 -0.0834  0.2375
 3007TIP3    H130436   2.335   6.229   0.540 -0.2547 -0.5965 -0.3097
 3007TIP3    H230437   2.200   6.298   0.546 -0.1296 -0.3659 -0.1448
 3008TIP3   OH230438   6.425   4.238   1.802 -0.4731  0.0841  0.0794
 3008TIP3    H130439   6.416   4.290   1.723  0.6100  0.1888  0.0114
 3008TIP3    H230440   6.341   4.247   1.847 -1.1218 -0.0356 -1.0840
 3009TIP3   OH230441   3.713   4.638  14.978  0.3304  0.2504 -0.3429
 3009TIP3    H130442   3.736   4.649  14.886 -1.8708 -1.0906 -1.0959
 3009TIP3    H230443   3.617   4.646  14.980  0.4942  2.7147  2.1981
 3010TIP3   OH230444   3.437   3.728  16.191  0.8210  0.7638 -0.2497
 3010TIP3    H130445   3.406   3.639  16.175 -0.4930  1.2481 -0.4620
 3010TIP3    H230446   3.357   3.779  16.203  1.5882  1.6191  1.4652
 3011TIP3   OH230447   4.202   0.471  11.473 -0.1938 -0.0234 -0.5156
 3011TIP3    H130448   4.254   0.397  11.441  0.4085  0.3768 -0.4774
 3011TIP3    H230449   4.153   0.436  11.547  0.9340 -0.1080  0.2027
 3012TIP3   OH230450   2.825   2.575  11.714  0.2793  0.0934 -0.2928
 3012TIP3    H130451   2.775   2.582  11.633 -0.5005 -0.5019  0.1250
 3012TIP3    H230452   2.758   2.561  11.782  0.9719 -0.1222  0.3508
 3013TIP3   OH230453   4.140   2.362   1.545  0.1073 -0.9223 -0.0752
 3013TIP3    H130454   4.171   2.453   1.546 -2.6295  0.0540  0.5838
 3013TIP3    H230455   4.173   2.327   1.462  1.6791  0.4906 -0.0772
 3014TIP3   OH230456   5.241   2.640   0.716  0.5254  0.5272 -0.4294
 3014TIP3    H130457   5.237   2.729   0.752  1.3541  0.0288  0.9468
 3014TIP3    H230458   5.289   2.650   0.634  0.8872  1.3187 -0.1376
 3015TIP3   OH230459   5.340   1.857   5.945 -0.3208 -0.2626 -0.1686
 3015TIP3    H130460   5.374   1.908   6.018 -1.8694 -0.2233  0.5398
 3015TIP3    H230461   5.385   1.773   5.952 -0.7880 -0.4239  1.1261
 3016TIP3   OH230462   1.016   3.747   1.051 -0.6088 -0.4397  0.1620
 3016TIP3    H130463   1.031   3.665   1.003 -0.2655  0.9833 -2.2537
 3016TIP3    H230464   1.103   3.772   1.082 -0.4191 -0.1314 -0.5886
 3017TIP3   OH230465   0.313   2.859  14.600  0.7682 -0.5426 -0.2516
 3017TIP3    H130466   0.240   2.921  14.589 -0.1069 -1.6741 -1.0525
 3017TIP3    H230467   0.370   2.900  14.664 -0.0970  0.8228 -0.3261
 3018TIP3   OH230468   1.152   1.700  10.615  0.2590  0.0240  0.0149
 3018TIP3    H130469   1.075   1.690  10.559  0.5497  0.7621 -0.5215
 3018TIP3    H230470   1.146   1.789  10.649  0.5908 -0.0969  0.3995
 3019TIP3   OH230471   0.153   3.592  12.021  0.1294 -0.0652  0.1509
 3019TIP3    H130472   0.093   3.530  11.978  1.4855 -1.3670  0.0919
 3019TIP3    H230473   0.176   3.653  11.951 -1.7026  0.9022  0.3640
 3020TIP3   OH230474   1.672   4.987   3.379 -1.0458  0.1264  0.1475
 3020TIP3    H130475   1.647   4.927   3.448 -0.5634  0.3183  0.4931
 3020TIP3    H230476   1.704   5.064   3.425  0.7046 -0.3364 -0.2718
 3021TIP3   OH230477   5.304   5.636   5.332 -0.8499  0.0719 -0.1185
 3021TIP3    H130478   5.371   5.669   5.392 -0.6595 -0.3135 -0.1107
 3021TIP3    H230479   5.339   5.654   5.245 -0.9460  0.2818 -0.1134
 3022TIP3   OH230480   3.157   5.336   6.075  0.0423 -0.0933  0.1421
 3022TIP3    H130481   3.131   5.324   6.166 -1.9226  0.2214 -0.3457
 3022TIP3    H230482   3.075   5.332   6.026  1.2207 -1.9196 -1.8029
 3023TIP3   OH230483   5.329   0.946   5.450  0.0069  0.3363  0.8931
 3023TIP3    H130484   5.423   0.940   5.467  0.7914 -1.1948 -3.3923
 3023TIP3    H230485   5.322   1.007   5.377 -2.1634 -0.9931 -0.0394
 3024TIP3   OH230486   0.070   6.137  13.322  0.7308  0.9106 -0.0025
 3024TIP3    H130487   0.096   6.118  13.412 -0.6440  0.8217  0.3908
 3024TIP3    H230488   0.122   6.213  13.297  0.2335  1.6996  1.3005
 3025TIP3   OH230489   3.923   6.720  13.709 -0.0822  0.1385  0.1818
 3025TIP3    H130490   3.962   6.785  13.768 -0.7563  0.0350  0.7518
 3025TIP3    H230491   3.914   6.766  13.625  3.7448 -0.6522 -0.7516
 3026TIP3   OH230492   1.505   4.861   4.188 -0.8825 -0.0410  0.2018
 3026TIP3    H130493   1.595   4.846   4.220 -1.0872  0.4042  1.0053
 3026TIP3    H230494   1.498   4.805   4.111  0.0664 -0.1415  0.1724
 3027TIP3   OH230495   0.922   2.333   3.307  0.2399  0.0625  1.0355
 3027TIP3    H130496   0.833   2.365   3.299  0.6127  1.1675  1.1839
 3027TIP3    H230497   0.976   2.400   3.264  0.8853 -1.2176 -0.2309
 3028TIP3   OH230498   1.300   2.627   0.118  0.0700  0.4836 -0.2969
 3028TIP3    H130499   1.257   2.683   0.182 -1.0655  0.1209 -0.7441
 3028TIP3    H230500   1.315   2.684   0.042 -0.0250  0.4910 -0.3100
 3029TIP3   OH230501   2.245   2.147  11.098  0.1070  0.7289  0.2240
 3029TIP3    H130502   2.339   2.168  11.097  0.2165  0.2185 -1.6285
 3029TIP3    H230503   2.201   2.232  11.095  0.5383  0.9239 -1.1566
 3030TIP3   OH230504   0.232   3.198  13.483  0.3305 -0.2090 -0.0757
 3030TIP3    H130505   0.313   3.172  13.440 -0.2721 -0.8274 -0.8493
 3030TIP3    H230506   0.187   3.254  13.420 -0.4919 -1.0045 -0.2103
 3031TIP3   OH230507   5.081   0.636  15.297  0.0315  0.5027 -0.0491
 3031TIP3    H130508   4.988   0.622  15.280  0.4513 -1.8528 -0.6443
 3031TIP3    H230509   5.123   0.619  15.212  1.1289  0.0548  0.5734
 3032TIP3   OH230510   2.583   6.088   0.206 -0.2318 -0.1054 -0.4328
 3032TIP3    H130511   2.593   6.078   0.112  1.1997  4.3471 -0.8534
 3032TIP3    H230512   2.499   6.133   0.217 -0.9512 -1.6265  0.5580
 3033TIP3   OH230513   3.958   4.067   0.945 -0.1237 -0.0745 -0.2203
 3033TIP3    H130514   3.971   4.152   0.902  0.3336 -0.0051  0.0441
 3033TIP3    H230515   3.946   4.005   0.873 -0.3487  0.2009 -0.4181
 3034TIP3   OH230516   3.303   1.567   1.136  0.0866 -0.1859  0.4825
 3034TIP3    H130517   3.216   1.588   1.102  0.7476  1.0101 -0.4786
 3034TIP3    H230518   3.321   1.636   1.200  0.5934 -0.0732  0.2196
 3035TIP3   OH230519   2.737   4.111   1.517 -0.9190  0.6534  0.2262
 3035TIP3    H130520   2.671   4.055   1.558 -1.3318  0.3248 -0.8876
 3035TIP3    H230521   2.753   4.072   1.431  0.7886  0.6832  0.5057
 3036TIP3   OH230522   1.280   1.637  15.464  0.7505 -0.4061 -0.4896
 3036TIP3    H130523   1.329   1.555  15.467  2.2970  0.5031 -0.6124
 3036TIP3    H230524   1.342   1.704  15.493 -0.6131  0.6765  0.0194
 3037TIP3   OH230525   2.397   1.994  14.874 -0.6244 -0.1018 -0.1277
 3037TIP3    H130526   2.333   1.981  14.805 -0.6234  0.2490 -0.1954
 3037TIP3    H230527   2.482   1.986  14.830 -0.6230 -0.3107 -0.0855
 3038TIP3   OH230528   2.908   5.302  13.831  0.1411  0.2757  0.0347
 3038TIP3    H130529   2.867   5.373  13.781 -1.5484 -1.9136 -1.7736
 3038TIP3    H230530   2.874   5.222  13.792  0.9639 -1.5635  2.9161
 3039TIP3   OH230531   4.074   4.105  12.966  0.3646 -0.8127  0.5374
 3039TIP3    H130532   4.130   4.083  13.041  1.3528 -2.1529 -0.5624
 3039TIP3    H230533   4.131   4.154  12.907 -0.1136 -0.6602  0.1968
 3040TIP3   OH230534   6.647   4.345   4.983  0.2641  0.4390  0.1482
 3040TIP3    H130535   6.700   4.284   4.933  1.3729  0.7953  0.8726
 3040TIP3    H230536   6.700   4.424   4.989 -0.2288  0.7098  1.1220
 3041TIP3   OH230537   2.979   5.650  16.808 -0.1417 -0.2653 -0.0694
 3041TIP3    H130538   2.988   5.566  16.764  1.9019 -0.2960  0.3860
 3041TIP3    H230539   3.042   5.707  16.765 -0.5503  0.6566  0.5272
 3042TIP3   OH230540   6.615   0.239   3.676  0.2815 -0.3552  0.3799
 3042TIP3    H130541   6.529   0.272   3.700  0.0224 -0.6324 -0.1518
 3042TIP3    H230542   6.604   0.206   3.587  0.8670 -0.6552  0.4161
 3043TIP3   OH230543   2.787   6.592  16.288  0.2256 -0.3335 -0.1018
 3043TIP3    H130544   2.807   6.521  16.349  0.0181 -0.1169  0.2182
 3043TIP3    H230545   2.868   6.605  16.238 -0.2730 -1.9939 -1.3807
 3044TIP3   OH230546   1.605   5.273  12.214  0.2592 -0.1227  0.4144
 3044TIP3    H130547   1.599   5.182  12.185 -0.7301 -0.1486  0.6663
 3044TIP3    H230548   1.520   5.311  12.191  1.3049  1.2405 -1.3174
 3045TIP3   OH230549   1.859   6.274   3.980  0.4714  0.4012 -0.3726
 3045TIP3    H130550   1.841   6.335   3.909  2.4192 -0.0099 -1.2678
 3045TIP3    H230551   1.953   6.255   3.972  0.3836 -0.8927  1.3213
 3046TIP3   OH230552   3.447   5.430   3.882 -0.0699  0.0993 -0.1635
 3046TIP3    H130553   3.392   5.439   3.959 -0.4751  1.2117 -0.5814
 3046TIP3    H230554   3.478   5.339   3.885 -2.4231 -0.7206 -0.2737
 3047TIP3   OH230555   0.559   2.105   4.994 -0.1801 -0.7272  0.0314
 3047TIP3    H130556   0.651   2.111   4.969  0.1614 -4.0193  0.2713
 3047TIP3    H230557   0.551   2.163   5.070  1.5904 -0.1093 -0.2274
 3048TIP3   OH230558   4.261   5.984   4.199 -0.7152  0.2690  0.2432
 3048TIP3    H130559   4.241   5.946   4.114 -1.4286 -0.3513  0.6827
 3048TIP3    H230560   4.239   6.077   4.189 -1.3463  0.0904 -0.0783
 3049TIP3   OH230561   4.865   3.988  12.614 -0.2734 -0.4350  0.0442
 3049TIP3    H130562   4.803   4.062  12.617 -2.4329 -2.1529 -0.6654
 3049TIP3    H230563   4.888   3.979  12.522 -0.0576 -0.6815  0.1214
 3050TIP3   OH230564   1.225   6.500   0.807 -0.1023  0.5948  0.3885
 3050TIP3    H130565   1.297   6.549   0.848  0.2583 -0.5059  1.0939
 3050TIP3    H230566   1.221   6.418   0.856 -0.9677  0.0825 -0.5222
 3051TIP3   OH230567   4.019   6.602  14.392 -0.3325 -0.2556  0.2001
 3051TIP3    H130568   3.929   6.580  14.414 -1.1027  2.2257 -0.2818
 3051TIP3    H230569   4.029   6.576  14.301 -0.3471 -1.1447  0.4491
 3052TIP3   OH230570   2.390   0.564   4.637  0.1150 -0.1578 -0.7063
 3052TIP3    H130571   2.370   0.515   4.557  0.5092 -1.0055 -0.2856
 3052TIP3    H230572   2.486   0.575   4.635  0.1055 -0.0260 -0.4325
 3053TIP3   OH230573   3.837   4.107   5.748  0.2936  0.3744  0.1377
 3053TIP3    H130574   3.842   4.043   5.677 -0.7910 -1.0961  1.3448
 3053TIP3    H230575   3.928   4.118   5.777  0.3607 -1.7063  0.8293
 3054TIP3   OH230576   4.185   3.151   3.924 -0.4844  0.5085 -0.0475
 3054TIP3    H130577   4.277   3.151   3.896 -0.1781 -0.7155  0.9092
 3054TIP3    H230578   4.152   3.065   3.897 -0.7338  0.0883  1.5496
 3055TIP3   OH230579   0.177   3.226   5.479 -0.5021 -0.1385 -0.4136
 3055TIP3    H130580   0.136   3.305   5.513  0.8712  0.3384  0.1895
 3055TIP3    H230581   0.125   3.154   5.516  0.5243  0.3786  2.1947
 3056TIP3   OH230582   3.307   3.100  16.347 -0.5436  0.3823 -0.1438
 3056TIP3    H130583   3.361   3.178  16.362 -0.3440  0.1091  0.5974
 3056TIP3    H230584   3.327   3.042  16.421 -0.2206 -0.6391 -1.0149
 3057TIP3   OH230585   0.047   5.673  11.955 -0.2945 -0.5341  0.3438
 3057TIP3    H130586  -0.038   5.697  11.917 -0.4918  0.0571  1.1390
 3057TIP3    H230587   0.111   5.696  11.888 -0.7342 -0.6323 -0.1101
 3058TIP3   OH230588   0.281   5.490  14.708 -0.8790  0.4786 -0.6455
 3058TIP3    H130589   0.211   5.535  14.661 -2.3977 -1.7294 -0.5408
 3058TIP3    H230590   0.237   5.442  14.778  0.5988 -1.8929 -1.2863
 3059TIP3   OH230591   4.751   1.688  15.176 -0.2337 -0.8325 -0.5291
 3059TIP3    H130592   4.757   1.783  15.185 -2.5975 -0.7904  1.0105
 3059TIP3    H230593   4.837   1.656  15.202  0.1345  0.8014  0.3419
 3060TIP3   OH230594   0.901   2.483  16.159 -0.3861  0.3564 -0.0985
 3060TIP3    H130595   0.962   2.467  16.086  0.9581  2.8652  0.4279
 3060TIP3    H230596   0.939   2.436  16.233 -0.9795 -0.9733 -0.6112
 3061TIP3   OH230597   6.392   3.717  15.344 -0.2091  0.4500 -0.0276
 3061TIP3    H130598   6.428   3.806  15.349 -0.7990  0.7562 -1.1191
 3061TIP3    H230599   6.443   3.674  15.275 -0.5520  0.2385 -0.1474
 3062TIP3   OH230600   1.427   4.116   4.041 -0.3670 -0.4915  0.0739
 3062TIP3    H130601   1.433   4.182   3.971  1.1643 -1.7434 -1.0219
 3062TIP3    H230602   1.338   4.124   4.074 -0.3761  1.7502 -0.4141
 3063TIP3   OH230603   1.420   5.957  17.044 -0.3217 -0.4940 -0.7135
 3063TIP3    H130604   1.397   5.975  16.953 -0.7561  0.0480 -0.4987
 3063TIP3    H230605   1.415   6.042  17.087 -1.3730 -0.9594  0.1006
 3064TIP3   OH230606   3.492   0.964  16.147 -0.2207  0.2139  0.3422
 3064TIP3    H130607   3.462   1.038  16.199  0.0616 -0.0681  0.9188
 3064TIP3    H230608   3.495   0.996  16.057 -1.3354  0.5149  0.4129
 3065TIP3   OH230609   4.586   4.264  13.844  0.3933  1.0437 -0.4301
 3065TIP3    H130610   4.494   4.291  13.848  0.3267  1.0799 -1.8727
 3065TIP3    H230611   4.634   4.346  13.832  0.5472  0.9454 -0.4864
 3066TIP3   OH230612   3.382   6.628   6.675 -0.3377  0.0194  0.0128
 3066TIP3    H130613   3.308   6.588   6.627  0.7932 -0.2307 -1.5645
 3066TIP3    H230614   3.441   6.555   6.691  0.1973  0.4689  0.0742
 3067TIP3   OH230615   1.355   1.641  15.062 -0.2114  0.0543 -0.6152
 3067TIP3    H130616   1.359   1.728  15.024 -3.3405  0.6788  0.4083
 3067TIP3    H230617   1.354   1.582  14.986  2.0990  0.8323 -1.3046
 3068TIP3   OH230618   6.660   2.696   5.654  0.1752  0.1126 -0.6451
 3068TIP3    H130619   6.718   2.772   5.650  0.1693  0.0404 -3.3354
 3068TIP3    H230620   6.581   2.724   5.608 -0.3202 -1.1084 -0.5563
 3069TIP3   OH230621   5.109   2.614   2.090 -0.2578 -0.3764  0.1318
 3069TIP3    H130622   5.044   2.560   2.137 -1.8305  1.5835  0.2962
 3069TIP3    H230623   5.192   2.594   2.134 -1.4398  0.2497  2.7994
 3070TIP3   OH230624   4.686   4.769  12.998  0.5137 -0.1066 -0.0770
 3070TIP3    H130625   4.758   4.832  12.993  1.9421 -1.7078 -0.4449
 3070TIP3    H230626   4.631   4.789  12.923  1.2133  0.4152 -0.4567
 3071TIP3   OH230627   2.582   2.140  14.235  0.6627  0.2359 -0.2134
 3071TIP3    H130628   2.524   2.178  14.300  1.7765 -0.5193  1.2480
 3071TIP3    H230629   2.531   2.069  14.195 -0.7342  1.9792 -1.6196
 3072TIP3   OH230630   0.563   3.669  15.469  0.3328  0.2758 -0.4080
 3072TIP3    H130631   0.496   3.737  15.479 -0.5329 -0.2286 -2.5919
 3072TIP3    H230632   0.640   3.704  15.516 -0.2512  2.5257 -1.0743
 3073TIP3   OH230633   5.839   6.263  15.782  0.0854 -0.5334  0.4552
 3073TIP3    H130634   5.777   6.224  15.844  0.0991  0.9874  1.4476
 3073TIP3    H230635   5.925   6.239  15.815  0.0519 -1.2162  0.0352
 3074TIP3   OH230636   5.975   5.770  12.708  0.0570 -0.2603  0.8470
 3074TIP3    H130637   5.984   5.839  12.774  1.3389  0.6604 -0.2631
 3074TIP3    H230638   5.925   5.811  12.637  1.4547 -0.2458 -0.1319
 3075TIP3   OH230639   3.057   1.666   1.103 -0.0281  0.2787  0.2440
 3075TIP3    H130640   2.986   1.626   1.052  1.4255 -0.6750 -1.0776
 3075TIP3    H230641   3.021   1.675   1.191 -2.1823  0.8589 -0.6560
 3076TIP3   OH230642   0.022   3.036   2.209 -0.0527  0.4201 -0.0637
 3076TIP3    H130643  -0.042   2.965   2.209 -0.1846  0.4898  2.3360
 3076TIP3    H230644   0.099   2.999   2.251  0.7993  0.9525 -1.1135
 3077TIP3   OH230645   2.128   2.105   4.556 -0.0902  0.1651 -0.3055
 3077TIP3    H130646   2.165   2.018   4.541 -0.2678  0.1733 -0.7840
 3077TIP3    H230647   2.148   2.124   4.648 -0.2795 -0.4865 -0.1345
 3078TIP3   OH230648   0.822   3.408   3.482 -0.2112  0.4012 -0.1372
 3078TIP3    H130649   0.750   3.380   3.426 -0.0631  1.0156 -0.6405
 3078TIP3    H230650   0.780   3.445   3.560 -0.4381  0.5430 -0.3261
 3079TIP3   OH230651   0.459   1.816  16.210  0.1854  0.3368  0.3212
 3079TIP3    H130652   0.552   1.795  16.213  0.1230  0.1493  1.1021
 3079TIP3    H230653   0.416   1.742  16.252 -0.2402  0.8465  0.7977
 3080TIP3   OH230654   5.869   6.334   5.238  0.0916 -0.0932  0.2603
 3080TIP3    H130655   5.819   6.260   5.203  0.0251 -0.7699  1.7497
 3080TIP3    H230656   5.804   6.402   5.255 -0.1272 -0.4350  0.7960
 3081TIP3   OH230657   0.207   4.666   1.136  0.4433  0.3866 -0.5002
 3081TIP3    H130658   0.300   4.684   1.147  0.1636  2.3984 -1.2170
 3081TIP3    H230659   0.165   4.751   1.147 -1.4217 -0.6766  0.8899
 3082TIP3   OH230660   4.912   5.501   3.348  0.1201  0.3163  0.5503
 3082TIP3    H130661   4.886   5.458   3.430 -0.1000  0.2632  0.4523
 3082TIP3    H230662   4.831   5.537   3.313 -0.2414 -1.8357 -0.9178
 3083TIP3   OH230663   5.214   4.090   1.911 -0.1207 -0.1049  0.1066
 3083TIP3    H130664   5.284   4.063   1.852 -1.2880 -1.0486 -0.8962
 3083TIP3    H230665   5.152   4.017   1.909 -1.1344  0.7152  0.9522
 3084TIP3   OH230666   0.590   5.984  10.622  0.5764 -0.1677 -0.3245
 3084TIP3    H130667   0.681   6.009  10.606  0.2287  1.0522 -0.4780
 3084TIP3    H230668   0.593   5.929  10.700  1.6409 -1.5902 -1.3515
 3085TIP3   OH230669   5.555   4.157   2.913 -0.0079  0.2774 -0.1472
 3085TIP3    H130670   5.569   4.214   2.838 -0.2046  0.0063 -0.3886
 3085TIP3    H230671   5.595   4.074   2.889  0.4336  0.3635  0.2762
 3086TIP3   OH230672   5.003   2.671  16.465  0.1361  0.1560  0.0889
 3086TIP3    H130673   4.964   2.758  16.455 -0.7768 -0.2941 -0.3208
 3086TIP3    H230674   4.944   2.613  16.417  0.6866 -0.7035  0.4482
 3087TIP3   OH230675   2.565   0.966  12.351  0.5861  0.1810  0.2515
 3087TIP3    H130676   2.591   0.992  12.263  2.0416  0.5854  0.7779
 3087TIP3    H230677   2.601   1.035  12.408  1.0173 -0.8768  1.2881
 3088TIP3   OH230678   0.275   3.457   4.941  0.1946  0.4229 -0.1064
 3088TIP3    H130679   0.363   3.458   4.903 -0.0623 -1.9487 -0.8451
 3088TIP3    H230680   0.236   3.376   4.910 -2.0948  1.1922  0.6350
 3089TIP3   OH230681   3.850   4.855  12.908 -0.4409  0.5185 -0.4186
 3089TIP3    H130682   3.797   4.934  12.899 -0.3691  0.4910 -1.1132
 3089TIP3    H230683   3.905   4.853  12.829 -1.0628 -0.6817 -0.8409
 3090TIP3   OH230684   4.684   1.241  11.241 -0.5536 -0.2148 -0.0691
 3090TIP3    H130685   4.754   1.242  11.306  0.8091 -0.7301 -1.4968
 3090TIP3    H230686   4.725   1.272  11.160 -2.0084 -0.3811 -0.8991
 3091TIP3   OH230687   5.500   4.707  14.245 -0.5151 -0.2267  0.5039
 3091TIP3    H130688   5.571   4.654  14.209 -0.2291 -0.9117  2.0435
 3091TIP3    H230689   5.538   4.749  14.322 -1.4590  0.3068  0.6918
 3092TIP3   OH230690   4.937   3.314  16.846  0.2361  0.7133 -0.1493
 3092TIP3    H130691   5.016   3.359  16.815  2.1342 -0.5458  2.5876
 3092TIP3    H230692   4.903   3.371  16.915  1.7898 -1.1714  2.2742
 3093TIP3   OH230693   5.153   3.205  16.569  0.3227 -0.0885  0.6340
 3093TIP3    H130694   5.179   3.234  16.657 -0.8338  0.6553  0.7330
 3093TIP3    H230695   5.059   3.187  16.576  0.4896 -1.3110 -0.1153
 3094TIP3   OH230696   0.207   4.146   4.256 -0.4216 -0.0992 -0.1000
 3094TIP3    H130697   0.187   4.053   4.248 -0.1295  0.0018 -2.0980
 3094TIP3    H230698   0.302   4.152   4.242 -0.5669  0.6012 -0.7753
 3095TIP3   OH230699   4.489   2.012  14.573 -0.1939 -0.3277  0.2497
 3095TIP3    H130700   4.414   2.036  14.520  1.3889  1.9386 -1.0316
 3095TIP3    H230701   4.521   2.095  14.609  0.9352 -1.3988  1.8065
 3096TIP3   OH230702   5.279   0.786   5.171 -0.1818  0.5683  0.6434
 3096TIP3    H130703   5.336   0.821   5.103 -1.9819  0.5878 -0.9207
 3096TIP3    H230704   5.271   0.693   5.150 -0.0084  0.3853  1.3772
 3097TIP3   OH230705   4.642   2.138  13.104 -0.1816  0.3038  0.2802
 3097TIP3    H130706   4.737   2.147  13.096 -0.0947 -0.3886  0.4841
 3097TIP3    H230707   4.610   2.135  13.014 -0.2520  2.8309  0.1719
 3098TIP3   OH230708   4.968   0.980  15.944 -0.1881 -0.1858  0.1319
 3098TIP3    H130709   4.879   0.958  15.970  0.4693  0.0971  2.7113
 3098TIP3    H230710   4.988   1.061  15.990  2.1633 -1.4042  1.3320
 3099TIP3   OH230711   0.040   5.026  12.031  0.4964  0.4255  0.0777
 3099TIP3    H130712   0.052   4.934  12.008  0.3866  0.0469  1.4811
 3099TIP3    H230713   0.035   5.071  11.947 -1.0770 -1.0551 -0.6649
 3100TIP3   OH230714   4.003   5.470  13.899  0.3522  0.5783  0.0938
 3100TIP3    H130715   4.078   5.484  13.957  1.0562  0.6524 -0.8121
 3100TIP3    H230716   3.932   5.521  13.938  1.3110  2.0914 -0.0958
 3101TIP3   OH230717   4.678   2.546   0.465 -0.5363 -0.6107  0.1942
 3101TIP3    H130718   4.713   2.560   0.377 -3.1987  1.5251 -0.5832
 3101TIP3    H230719   4.660   2.452   0.469 -1.5966 -0.5269 -2.0097
 3102TIP3   OH230720   5.163   2.988   3.260 -0.0582  0.7617 -0.4165
 3102TIP3    H130721   5.081   2.956   3.222  0.8349  0.4949 -2.1761
 3102TIP3    H230722   5.214   3.017   3.184  1.5622  0.7412  0.6570
 3103TIP3   OH230723   6.697   3.808  12.580  0.2645 -0.2625 -0.3492
 3103TIP3    H130724   6.696   3.861  12.660 -0.3669  2.4661 -2.1152
 3103TIP3    H230725   6.787   3.775  12.575  0.2039 -0.7929  1.6894
 3104TIP3   OH230726   3.105   3.852  15.993 -0.1157 -0.0568 -0.5558
 3104TIP3    H130727   3.133   3.864  16.084 -1.1196 -1.4324 -0.0519
 3104TIP3    H230728   3.167   3.788  15.958 -0.3099 -0.2420 -0.5604
 3105TIP3   OH230729   4.443   5.692   4.031 -0.8275 -0.4795 -0.5743
 3105TIP3    H130730   4.353   5.717   4.009 -0.7378  0.9774  0.5966
 3105TIP3    H230731   4.434   5.606   4.073 -1.2530 -2.0638 -3.7462
 3106TIP3   OH230732   4.356   3.370   0.318 -0.2972 -0.4057 -0.2538
 3106TIP3    H130733   4.279   3.379   0.262 -1.0428 -1.0486  0.6513
 3106TIP3    H230734   4.327   3.399   0.404  1.2377  1.9762 -0.4741
 3107TIP3   OH230735   0.502   0.207   5.407  0.1636 -0.6219 -0.2333
 3107TIP3    H130736   0.589   0.245   5.399  0.1688 -0.6935 -0.5429
 3107TIP3    H230737   0.488   0.162   5.323 -0.7721  0.6610 -0.7900
 3108TIP3   OH230738   3.677   0.868  12.503 -0.0321 -0.2637  0.3522
 3108TIP3    H130739   3.654   0.940  12.443 -0.4406 -0.7624 -0.1042
 3108TIP3    H230740   3.716   0.911  12.579  3.0322  0.2313 -1.4132
 3109TIP3   OH230741   4.011   1.634  10.639 -1.1157 -0.3798  0.1693
 3109TIP3    H130742   4.080   1.578  10.674 -1.5512 -0.2970  1.1595
 3109TIP3    H230743   3.931   1.604  10.682 -1.3117  1.1835  0.9023
 3110TIP3   OH230744   4.770   0.310   3.287 -0.5138 -0.0233  0.1160
 3110TIP3    H130745   4.718   0.243   3.333  0.3828 -1.5850 -1.0829
 3110TIP3    H230746   4.705   0.364   3.242 -1.1947 -0.8762  0.0524
 3111TIP3   OH230747   1.321   2.180   1.620 -0.4664 -0.5142  0.6031
 3111TIP3    H130748   1.295   2.255   1.567  0.1844 -1.6648 -1.4056
 3111TIP3    H230749   1.241   2.154   1.666 -1.9357 -1.4894 -2.3591
 3112TIP3   OH230750   2.103   2.326   2.942  0.2658  0.5106  0.6376
 3112TIP3    H130751   2.044   2.397   2.916 -0.3724 -0.5590 -0.8997
 3112TIP3    H230752   2.191   2.358   2.919 -0.0373  0.7270 -0.2381
 3113TIP3   OH230753   5.164   4.834  14.244 -0.0033  0.3717 -0.7651
 3113TIP3    H130754   5.139   4.926  14.231 -1.6163 -0.0902 -1.0420
 3113TIP3    H230755   5.219   4.814  14.169 -0.4060  0.8635 -1.2051
 3114TIP3   OH230756   1.042   3.556  13.908 -0.0576  0.5350  0.3207
 3114TIP3    H130757   0.994   3.473  13.904  0.2798  0.3555 -0.0671
 3114TIP3    H230758   0.975   3.622  13.924 -0.3838  0.2391  0.1863
 3115TIP3   OH230759   6.633   0.541  14.108  0.2726  0.0337 -0.3491
 3115TIP3    H130760   6.694   0.523  14.036 -1.2911 -0.9149 -1.4537
 3115TIP3    H230761   6.584   0.618  14.079 -2.1038 -1.8306 -1.4757
 3116TIP3   OH230762   4.114   6.637   5.354  0.0832  0.3765 -0.9137
 3116TIP3    H130763   4.144   6.668   5.268 -0.6887  2.0012 -0.6289
 3116TIP3    H230764   4.018   6.644   5.349  0.0072 -0.0455 -0.1022
 3117TIP3   OH230765   3.535   3.288  11.576  0.4101 -0.0967 -0.2990
 3117TIP3    H130766   3.532   3.195  11.557 -1.6829 -0.1827  0.3303
 3117TIP3    H230767   3.535   3.330  11.490  2.6129 -0.6837 -0.6041
 3118TIP3   OH230768   4.365   2.289   4.360 -0.0750  0.6429  0.1742
 3118TIP3    H130769   4.277   2.251   4.369 -0.3052  1.1815  0.2075
 3118TIP3    H230770   4.412   2.227   4.304 -1.4634  1.9672 -2.5774
 3119TIP3   OH230771   0.852   3.539  11.903 -0.2318  0.4039  0.4920
 3119TIP3    H130772   0.866   3.633  11.901  1.6995  0.1275  0.7690
 3119TIP3    H230773   0.757   3.529  11.896 -0.7242  2.4724  3.4139
 3120TIP3   OH230774   3.382   2.955  16.048  0.2611 -0.1040  0.6054
 3120TIP3    H130775   3.375   2.991  16.136 -1.2788 -0.9157  0.8150
 3120TIP3    H230776   3.425   2.871  16.060  2.3931  0.8962  0.2775
 3121TIP3   OH230777   6.738   0.488  16.372  0.2560 -0.3758  0.4134
 3121TIP3    H130778   6.667   0.513  16.314 -0.4165 -1.9324  0.5469
 3121TIP3    H230779   6.805   0.555  16.358 -0.1957 -0.3213 -1.6103
 3122TIP3   OH230780   5.623   1.571  14.049 -0.7428  0.0871  0.3910
 3122TIP3    H130781   5.649   1.497  13.993 -1.9526 -0.8479  1.0641
 3122TIP3    H230782   5.648   1.545  14.137 -1.1337  0.4977  0.6279
 3123TIP3   OH230783   0.569   1.663   0.544 -0.4841  0.1760  0.1072
 3123TIP3    H130784   0.573   1.757   0.560 -0.3841 -0.0650  1.5212
 3123TIP3    H230785   0.523   1.655   0.460 -1.4433  1.4369  0.4950
 3124TIP3   OH230786   1.355   4.826   6.430 -0.5061 -0.0894  0.4070
 3124TIP3    H130787   1.387   4.833   6.339 -1.0141 -0.2984  0.2104
 3124TIP3    H230788   1.306   4.907   6.444 -1.4587 -0.6106  0.0866
 3125TIP3   OH230789   6.617   4.007   4.752  0.1500  0.3213  0.0373
 3125TIP3    H130790   6.667   3.926   4.763  1.5638  1.1874  0.2417
 3125TIP3    H230791   6.681   4.069   4.716 -1.1418  1.0977 -0.9378
 3126TIP3   OH230792   0.815   4.118   5.663 -0.4035 -0.4409 -0.3372
 3126TIP3    H130793   0.750   4.067   5.712  0.7602 -0.9983  0.6454
 3126TIP3    H230794   0.820   4.075   5.578 -3.4667  1.3641 -1.5147
 3127TIP3   OH230795   6.125   0.566   4.437  0.1322 -0.2749  0.1373
 3127TIP3    H130796   6.089   0.607   4.515  2.0488 -1.5300  1.7539
 3127TIP3    H230797   6.071   0.489   4.423 -0.7833  0.4475 -0.3252
 3128TIP3   OH230798   5.240   4.907   5.804 -0.8141  0.1329  0.0266
 3128TIP3    H130799   5.189   4.827   5.796 -0.1335 -0.1613 -1.4157
 3128TIP3    H230800   5.179   4.977   5.779 -0.7390 -0.1467 -0.9455
 3129TIP3   OH230801   0.457   1.874  14.387 -0.2446 -0.6698 -0.0348
 3129TIP3    H130802   0.472   1.783  14.413 -1.1135 -0.4825  1.2071
 3129TIP3    H230803   0.361   1.882  14.381 -0.1146 -0.2634 -1.7572
 3130TIP3   OH230804   1.035   5.589  14.477 -0.5029 -0.0359  0.1388
 3130TIP3    H130805   1.075   5.503  14.480 -0.4329  0.0398  1.8352
 3130TIP3    H230806   1.050   5.620  14.388  0.8592 -1.1114 -0.0134
 3131TIP3   OH230807   1.032   0.582   4.452 -0.1837 -0.1625 -0.3180
 3131TIP3    H130808   1.075   0.648   4.397 -0.4940 -0.4060 -0.8534
 3131TIP3    H230809   0.990   0.632   4.522 -0.5659  0.2214 -0.8212
 3132TIP3   OH230810   6.075   0.931  15.888 -0.1609 -0.0316  0.9585
 3132TIP3    H130811   6.022   0.905  15.813  0.5860  0.0535  0.3951
 3132TIP3    H230812   6.067   0.858  15.950 -2.1112  0.6200  1.5131
 3133TIP3   OH230813   5.586   5.941   3.076 -0.2240  0.2836  0.6642
 3133TIP3    H130814   5.655   5.900   3.024 -1.3234 -0.0750 -0.5393
 3133TIP3    H230815   5.539   5.868   3.116  0.2200  0.5362  1.6586
 3134TIP3   OH230816   3.675   5.612   4.654 -0.1820  0.1145  0.0461
 3134TIP3    H130817   3.648   5.670   4.725  1.0456 -0.2468  0.8231
 3134TIP3    H230818   3.628   5.530   4.670 -0.5403  0.3045 -0.0335
 3135TIP3   OH230819   0.548   3.702  15.104  0.0131  0.3254  0.0964
 3135TIP3    H130820   0.530   3.752  15.024 -1.1890  1.3558  0.9795
 3135TIP3    H230821   0.474   3.722  15.162  0.2493 -1.3707  1.0126
 3136TIP3   OH230822   6.006   0.142  11.272  0.6905 -0.7251 -0.5730
 3136TIP3    H130823   6.006   0.078  11.201 -1.6725 -1.5038  0.0668
 3136TIP3    H230824   6.024   0.226  11.229 -2.5584 -0.8758 -2.4654
 3137TIP3   OH230825   0.951   4.383  12.417  0.3995  0.0238 -0.5048
 3137TIP3    H130826   0.913   4.423  12.496 -0.2999  0.3912 -1.0275
 3137TIP3    H230827   1.017   4.446  12.388  0.3605  0.0850 -0.4597
 3138TIP3   OH230828   0.567   0.350  11.907  0.0839 -0.0579  0.0264
 3138TIP3    H130829   0.529   0.317  11.989  0.6647 -0.7325  0.0308
 3138TIP3    H230830   0.508   0.318  11.839 -0.5613  0.7500  0.2048
 3139TIP3   OH230831   6.707   1.512  16.348 -0.8696  0.1659  0.6162
 3139TIP3    H130832   6.772   1.515  16.278 -0.2807 -0.2302  1.1372
 3139TIP3    H230833   6.667   1.426  16.340 -0.0121 -0.3197  1.4628
 3140TIP3   OH230834   5.969   6.079  16.786  0.0403 -0.1870 -0.4196
 3140TIP3    H130835   6.015   5.998  16.807 -0.5408 -0.6347 -0.8947
 3140TIP3    H230836   5.877   6.054  16.778 -0.3165  0.7217  0.5873
 3141TIP3   OH230837   6.141   6.669  12.639  0.1622 -0.2006 -0.1212
 3141TIP3    H130838   6.210   6.712  12.689 -1.4152  0.8250  1.2419
 3141TIP3    H230839   6.080   6.740  12.618 -1.3939 -1.3926  0.3183
 3142TIP3   OH230840   6.272   0.260   2.552  0.1152 -0.2951 -0.4204
 3142TIP3    H130841   6.339   0.230   2.492  1.6293  2.1927 -0.0360
 3142TIP3    H230842   6.297   0.224   2.637  0.5537  0.0427 -0.4093
 3143TIP3   OH230843   0.271   5.715   0.859 -0.1145  0.6516 -0.0549
 3143TIP3    H130844   0.184   5.714   0.818 -0.4183  1.2909  0.5459
 3143TIP3    H230845   0.331   5.693   0.788 -0.5562  2.5442 -1.0553
 3144TIP3   OH230846   4.660   5.981   3.026 -0.2703 -0.0213  0.2273
 3144TIP3    H130847   4.663   6.014   2.936  1.1191  2.3833  1.1031
 3144TIP3    H230848   4.746   5.942   3.040 -0.3893 -0.1493  0.5929
 3145TIP3   OH230849   5.729   5.502   5.196  0.0976  0.1921 -0.3639
 3145TIP3    H130850   5.806   5.557   5.180  0.4458 -0.6161 -1.4964
 3145TIP3    H230851   5.723   5.446   5.119 -2.0934  0.7782 -0.6636
 3146TIP3   OH230852   1.175   1.045  12.621 -0.0210  0.6372 -0.0890
 3146TIP3    H130853   1.267   1.024  12.604  0.3452  0.7870  1.6146
 3146TIP3    H230854   1.147   0.978  12.684 -0.8007  1.1649  0.1286
 3147TIP3   OH230855   1.366   1.760  11.504  0.5824 -0.1621  0.2622
 3147TIP3    H130856   1.455   1.785  11.477  0.2807  0.6367 -0.0072
 3147TIP3    H230857   1.350   1.677  11.461  0.8673  0.1318 -0.4124
 3148TIP3   OH230858   2.317   4.254   3.843  0.3262 -0.0329 -0.1228
 3148TIP3    H130859   2.339   4.348   3.836 -2.1052  0.6388  0.9233
 3148TIP3    H230860   2.226   4.253   3.873  0.2926 -2.7537 -0.2553
 3149TIP3   OH230861   6.672   2.392   4.873 -0.4569 -0.1304 -0.6511
 3149TIP3    H130862   6.601   2.352   4.923 -0.8408  2.5305  1.0738
 3149TIP3    H230863   6.628   2.434   4.799 -0.6846  1.2418  0.2407
 3150TIP3   OH230864   2.404   1.373  13.167 -0.4763 -0.2186  0.4458
 3150TIP3    H130865   2.451   1.368  13.084 -1.0372 -1.5487  0.2020
 3150TIP3    H230866   2.349   1.451  13.159 -1.3348 -0.9307 -0.8753
 3151TIP3   OH230867   1.779   0.339  12.289  0.0635 -0.1175 -0.0991
 3151TIP3    H130868   1.699   0.318  12.241 -0.6198  0.4874  0.7566
 3151TIP3    H230869   1.798   0.260  12.339  0.8416 -0.7906 -1.4377
 3152TIP3   OH230870   1.335   1.642  16.877 -0.1068 -0.0852  0.3736
 3152TIP3    H130871   1.394   1.567  16.883  1.6605  1.2394 -0.1067
 3152TIP3    H230872   1.336   1.680  16.965  1.2521  1.0388 -0.1194
 3153TIP3   OH230873   3.542   2.122   1.357 -0.2892  0.2918 -0.1889
 3153TIP3    H130874   3.571   2.062   1.288 -0.6425 -0.6144  0.4402
 3153TIP3    H230875   3.507   2.198   1.310  1.4801  0.6413 -0.9842
 3154TIP3   OH230876   3.523   2.367   5.767 -0.5758  0.5083 -0.1203
 3154TIP3    H130877   3.516   2.446   5.820  0.6324  0.5735 -0.0328
 3154TIP3    H230878   3.592   2.388   5.703 -0.3329 -0.4261 -0.1709
 3155TIP3   OH230879   2.070   6.510   2.530  0.1835  0.5559  0.8650
 3155TIP3    H130880   2.009   6.529   2.459  0.3052 -3.3918 -0.3989
 3155TIP3    H230881   2.021   6.528   2.610 -1.6620  0.2088 -0.1576
 3156TIP3   OH230882   2.283   2.802   6.469  0.4236 -0.1312 -0.1022
 3156TIP3    H130883   2.245   2.714   6.465  1.1310 -0.4191 -0.6712
 3156TIP3    H230884   2.343   2.806   6.394 -0.5673  1.2857 -0.8380
 3157TIP3   OH230885   2.171   6.343   6.445 -0.0414 -0.0519 -0.0220
 3157TIP3    H130886   2.110   6.279   6.483 -2.1243  0.1169 -2.9200
 3157TIP3    H230887   2.120   6.424   6.441  0.4222  0.1379 -2.3431
 3158TIP3   OH230888   3.593   4.923   5.894  0.1011  0.2842 -0.7762
 3158TIP3    H130889   3.610   4.932   5.988 -1.3257  0.7261 -0.5406
 3158TIP3    H230890   3.574   5.012   5.865 -1.1574 -0.0904 -1.1277
 3159TIP3   OH230891   4.958   5.080  14.070  0.6674  0.4718  0.5250
 3159TIP3    H130892   4.936   5.113  13.983  1.3808  0.5742  0.3731
 3159TIP3    H230893   4.961   4.985  14.060  0.1945  0.4514  0.5739
 3160TIP3   OH230894   5.019   6.007  11.189  0.0969 -0.1128 -0.6504
 3160TIP3    H130895   5.071   6.081  11.158  1.1427 -0.7413 -0.4192
 3160TIP3    H230896   4.948   6.000  11.125 -0.9821  2.1446  0.2794
 3161TIP3   OH230897   5.414   4.647   6.603 -0.2279  0.2506  0.6379
 3161TIP3    H130898   5.373   4.626   6.519  2.4177 -0.3826 -0.5527
 3161TIP3    H230899   5.461   4.729   6.587  0.1102  0.2460  1.5644
 3162TIP3   OH230900   4.431   2.011   2.839 -0.1815  0.5837 -0.2042
 3162TIP3    H130901   4.403   2.091   2.793 -1.0595 -0.7045 -1.9546
 3162TIP3    H230902   4.526   2.010   2.828 -0.4321 -0.0072 -2.5319
 3163TIP3   OH230903   0.678   6.658  12.849  0.6379 -0.2450  0.2343
 3163TIP3    H130904   0.687   6.656  12.753  0.6350 -2.3797  0.2465
 3163TIP3    H230905   0.763   6.687  12.881  1.2061 -1.2166 -0.3699
 3164TIP3   OH230906   1.911   0.957  11.019  0.3854  0.2332  0.0482
 3164TIP3    H130907   2.007   0.966  11.016  0.2758  1.2412 -0.3326
 3164TIP3    H230908   1.892   0.942  11.112  1.0190 -1.2775 -0.0420
 3165TIP3   OH230909   0.979   0.032  11.942 -0.3348  0.0125  0.5975
 3165TIP3    H130910   1.031   0.103  11.904 -1.6370  1.0078  0.6457
 3165TIP3    H230911   1.036  -0.045  11.935  0.6788  0.8265 -0.4410
 3166TIP3   OH230912   5.213   0.457  13.826  0.0211  0.6274  0.1135
 3166TIP3    H130913   5.260   0.430  13.747 -0.0599  0.5884  0.0787
 3166TIP3    H230914   5.276   0.443  13.897 -1.0494 -2.5792  0.5012
 3167TIP3   OH230915   2.630   0.110   4.932  0.4219 -0.2650  0.3562
 3167TIP3    H130916   2.552   0.154   4.900  0.3359  0.1303  1.1044
 3167TIP3    H230917   2.702   0.168   4.909  0.3495  0.0696  0.9774
 3168TIP3   OH230918   5.577   5.013   0.287  0.9603  0.3258  0.3386
 3168TIP3    H130919   5.610   4.941   0.233  2.4122  1.1022  0.1741
 3168TIP3    H230920   5.483   4.996   0.294  1.0674 -0.8444 -0.8258
 3169TIP3   OH230921   3.089   0.365   0.861  0.3678 -0.5820  0.2801
 3169TIP3    H130922   3.137   0.321   0.791  0.8995  1.5300 -0.7330
 3169TIP3    H230923   3.027   0.422   0.815  0.3245  0.4015  1.5275
 3170TIP3   OH230924   4.021   3.262   6.526 -0.1064  0.4537  0.1100
 3170TIP3    H130925   4.023   3.356   6.546  0.9402  1.0281 -2.5115
 3170TIP3    H230926   4.084   3.224   6.586  0.9033  1.7081 -0.1306
 3171TIP3   OH230927   0.661   5.245   3.392  0.1237 -0.2636  0.3003
 3171TIP3    H130928   0.679   5.198   3.474  3.3406  0.7149  0.2316
 3171TIP3    H230929   0.638   5.334   3.420  0.8518 -0.0331  0.1844
 3172TIP3   OH230930   5.497   1.817   2.412  0.2763  0.2490 -0.4190
 3172TIP3    H130931   5.580   1.836   2.455  0.0433 -1.0121  0.5936
 3172TIP3    H230932   5.453   1.754   2.469 -0.9492  0.1498 -1.4380
 3173TIP3   OH230933   5.586   5.363   0.603  0.5162 -0.5764  0.2041
 3173TIP3    H130934   5.611   5.288   0.549  0.5603 -1.8274  1.9178
 3173TIP3    H230935   5.507   5.397   0.562 -0.1074 -2.2057  0.0122
 3174TIP3   OH230936   1.525   5.600  15.018 -0.3734  0.0123  0.4067
 3174TIP3    H130937   1.474   5.540  15.073 -0.6436  0.4928  0.6839
 3174TIP3    H230938   1.511   5.686  15.057  1.1328  0.0680  0.8548
 3175TIP3   OH230939   3.298   0.036   0.078 -0.4635  0.4022  0.1781
 3175TIP3    H130940   3.389   0.055   0.097  0.7243 -3.3919 -1.2155
 3175TIP3    H230941   3.288   0.056  -0.015 -1.3862  1.8155  0.5588
 3176TIP3   OH230942   4.076   1.637  14.590 -0.2515 -0.1958  0.5342
 3176TIP3    H130943   4.093   1.695  14.516 -2.8571  0.2229  0.2223
 3176TIP3    H230944   3.983   1.619  14.586  0.3847 -4.0295  0.9347
 3177TIP3   OH230945   4.534   5.112   0.721  0.0859 -0.2788 -0.1244
 3177TIP3    H130946   4.498   5.033   0.761  0.0031  0.4914  1.3484
 3177TIP3    H230947   4.484   5.183   0.760  3.8654  0.9282  2.8928
 3178TIP3   OH230948   4.570   5.082   2.506 -0.2353 -0.1113  0.0687
 3178TIP3    H130949   4.479   5.056   2.520 -0.3407  0.5433  0.6434
 3178TIP3    H230950   4.621   5.019   2.557 -0.3563 -0.5476 -0.3439
 3179TIP3   OH230951   4.490   3.127  11.601  0.1766 -1.0209 -0.4760
 3179TIP3    H130952   4.550   3.201  11.613 -0.2822 -0.3952 -1.9690
 3179TIP3    H230953   4.485   3.087  11.688 -0.4668  1.3722  0.6542
 3180TIP3   OH230954   4.749   3.308  12.684  0.2016 -0.0656  0.2918
 3180TIP3    H130955   4.688   3.380  12.697  0.4220 -0.4070  3.4314
 3180TIP3    H230956   4.835   3.350  12.683  0.1869 -0.0392 -0.2585
 3181TIP3   OH230957   6.700   3.501  14.399  0.2556 -0.5634  0.1421
 3181TIP3    H130958   6.663   3.576  14.352  0.6646 -1.2548 -1.3189
 3181TIP3    H230959   6.772   3.539  14.450 -0.1645  0.1935  0.1879
 3182TIP3   OH230960   0.176   6.771  12.882  0.6020 -0.1716  0.4589
 3182TIP3    H130961   0.094   6.764  12.832  1.7978  1.2261 -1.7702
 3182TIP3    H230962   0.167   6.706  12.951 -1.4844 -1.5607 -1.0425
 3183TIP3   OH230963   4.655   4.858  15.396 -0.0117 -0.1110  0.5644
 3183TIP3    H130964   4.645   4.867  15.302  4.6951  1.2632  0.0856
 3183TIP3    H230965   4.589   4.917  15.433  1.1649  2.9132 -1.9653
 3184TIP3   OH230966   2.333   4.874   4.893  0.0123  0.7224  0.1549
 3184TIP3    H130967   2.334   4.907   4.803  1.6202  0.7766  0.1757
 3184TIP3    H230968   2.387   4.936   4.942 -0.2653  0.2979  1.0150
 3185TIP3   OH230969   3.864   1.396  11.071  0.6001 -0.1018 -0.1849
 3185TIP3    H130970   3.789   1.396  11.011  1.1999 -1.1212 -0.9663
 3185TIP3    H230971   3.860   1.481  11.114 -0.4533  0.2398 -0.9171
 3186TIP3   OH230972   5.990   2.727   0.409 -0.2460 -0.0617  0.0322
 3186TIP3    H130973   5.953   2.769   0.487  0.7885  1.8231 -0.4744
 3186TIP3    H230974   6.000   2.635   0.434 -2.0259  0.0753  1.3547
 3187TIP3   OH230975   3.543   5.581  14.024 -0.5826  0.8568 -0.0340
 3187TIP3    H130976   3.540   5.600  14.118  0.6984  2.7709 -0.3470
 3187TIP3    H230977   3.562   5.487  14.019 -0.8495  0.7005  1.6233
 3188TIP3   OH230978   3.343   2.884   0.521  0.0884  0.7904  0.0620
 3188TIP3    H130979   3.433   2.911   0.534  0.3238 -0.0654  0.2447
 3188TIP3    H230980   3.322   2.831   0.598 -0.8625  1.7415  0.4750
 3189TIP3   OH230981   1.328   1.432  12.315  0.0211 -0.0651 -0.1188
 3189TIP3    H130982   1.401   1.492  12.299 -0.9931  0.7183 -2.0969
 3189TIP3    H230983   1.351   1.385  12.395  2.0337  1.1498  0.0351
 3190TIP3   OH230984   3.109   6.641   3.613  0.1763  0.3957  0.0407
 3190TIP3    H130985   3.051   6.586   3.667  0.4891  1.1919  1.2119
 3190TIP3    H230986   3.110   6.598   3.528 -0.4332 -0.8232  0.6331
 3191TIP3   OH230987   5.387   2.000  15.340 -0.1485 -0.2447 -0.3419
 3191TIP3    H130988   5.326   1.979  15.269 -1.2668 -1.9185  1.0782
 3191TIP3    H230989   5.387   2.095  15.344 -1.5721 -0.1875 -1.3176
 3192TIP3   OH230990   0.482   4.089   1.110  0.1013  0.1601 -0.3293
 3192TIP3    H130991   0.568   4.098   1.070  1.7497  0.0901  3.0400
 3192TIP3    H230992   0.444   4.176   1.107  1.7908  0.9897  1.3121
 3193TIP3   OH230993   6.002   2.630   3.897  0.0839  0.3165 -0.1482
 3193TIP3    H130994   6.062   2.681   3.952  0.7573 -1.1538  0.4903
 3193TIP3    H230995   5.916   2.671   3.911  0.9250  2.5469 -1.1938
 3194TIP3   OH230996   0.686   5.309   3.030  0.3268  0.1478 -0.0635
 3194TIP3    H130997   0.631   5.387   3.020  1.0386  0.3633 -2.6709
 3194TIP3    H230998   0.624   5.238   3.044 -0.6170  0.4975 -2.2806
 3195TIP3   OH230999   2.820   1.941   4.757  0.7625 -0.3429  0.7977
 3195TIP3    H131000   2.909   1.963   4.727  1.2769 -1.7563  1.2522
 3195TIP3    H231001   2.802   1.857   4.717 -0.7500  0.3624 -0.0233
 3196TIP3   OH231002   1.095   5.480   1.174  0.5116  0.2987  0.1939
 3196TIP3    H131003   1.168   5.542   1.169 -1.1582  2.2958  0.4559
 3196TIP3    H231004   1.062   5.475   1.084 -0.8859  1.6757  0.6097
 3197TIP3   OH231005   2.646   1.049   3.612  0.1731 -0.0013  0.0454
 3197TIP3    H131006   2.554   1.020   3.612  0.0612  0.3134 -0.9846
 3197TIP3    H231007   2.679   1.024   3.698 -0.8514 -0.2197  0.3885
 3198TIP3   OH231008   6.155   3.536  16.513 -0.1974 -0.0799 -0.6399
 3198TIP3    H131009   6.079   3.565  16.564  0.4569  2.4180 -1.0366
 3198TIP3    H231010   6.119   3.512  16.428 -0.8115 -0.9526 -0.1496
 3199TIP3   OH231011   0.225   2.997  13.862 -0.2408 -0.7331 -0.5143
 3199TIP3    H131012   0.188   2.948  13.935 -2.1271 -1.0761 -1.6878
 3199TIP3    H231013   0.237   3.086  13.897 -2.2568 -0.5923 -0.1489
 3200TIP3   OH231014   1.543   4.011   6.277 -0.2134 -0.4774  0.1296
 3200TIP3    H131015   1.482   3.973   6.340  0.3081 -0.4561  0.6420
 3200TIP3    H231016   1.606   3.941   6.260  0.7966  0.1746  1.1321
 3201TIP3   OH231017   3.788   1.664   3.258 -0.4360 -1.1593 -0.2131
 3201TIP3    H131018   3.701   1.700   3.276 -0.3927 -1.1536 -0.0133
 3201TIP3    H231019   3.828   1.727   3.198 -0.4980 -1.0625 -0.1520
 3202TIP3   OH231020   4.055   2.875  12.585  0.0615  0.6685 -0.2851
 3202TIP3    H131021   4.056   2.920  12.501  0.0660 -0.1253 -0.7113
 3202TIP3    H231022   3.997   2.800  12.571  1.1685 -0.2416  0.0154
 3203TIP3   OH231023   1.451   1.708  13.059 -0.0435  0.1167 -0.0972
 3203TIP3    H131024   1.531   1.681  13.013 -0.4234  0.0162 -0.7146
 3203TIP3    H231025   1.392   1.736  12.989 -0.7616 -0.3721  0.3015
 3204TIP3   OH231026   2.955   5.532  11.417 -0.4163 -0.0006 -0.5525
 3204TIP3    H131027   3.018   5.602  11.402 -1.3575  0.7286 -1.2240
 3204TIP3    H231028   2.966   5.509  11.509 -0.6105  1.5654 -0.1173
 3205TIP3   OH231029   0.211   2.128  16.836 -0.0553 -0.2642 -0.0955
 3205TIP3    H131030   0.267   2.083  16.772  0.5763 -1.0540  0.9878
 3205TIP3    H231031   0.132   2.075  16.840  0.2862 -0.7383  0.4555
 3206TIP3   OH231032   0.514   3.917  13.550  1.2210 -0.2772  0.2135
 3206TIP3    H131033   0.506   3.978  13.477  2.7028 -1.1284 -0.6807
 3206TIP3    H231034   0.480   3.965  13.625 -0.7571  0.4557 -1.1044
 3207TIP3   OH231035   0.268   1.962   3.013 -0.5556 -0.2255  0.1602
 3207TIP3    H131036   0.220   1.913   2.946 -0.4874 -1.6328  1.1231
 3207TIP3    H231037   0.359   1.957   2.986 -0.4907 -1.0759  0.5252
 3208TIP3   OH231038   5.476   4.131  12.600 -0.1738 -0.3042 -0.1509
 3208TIP3    H131039   5.446   4.216  12.567 -1.0447 -0.7505 -0.5567
 3208TIP3    H231040   5.516   4.089  12.524  3.6359  1.1892  0.9231
 3209TIP3   OH231041   2.617   1.837  11.926 -0.1659  0.3687 -0.0247
 3209TIP3    H131042   2.619   1.888  11.845 -1.7220  1.6377  0.6870
 3209TIP3    H231043   2.530   1.797  11.926 -0.3558  0.7383  1.2000
 3210TIP3   OH231044   6.207   5.140  15.996  0.1227 -0.0365 -0.5949
 3210TIP3    H131045   6.269   5.213  15.992  1.9141 -1.5740 -1.6242
 3210TIP3    H231046   6.194   5.125  16.090 -0.1789  1.4973 -0.3743
 3211TIP3   OH231047   6.150   3.566  15.052  0.2864  0.0157  0.6277
 3211TIP3    H131048   6.131   3.519  15.132  0.3436  0.3628  0.8480
 3211TIP3    H231049   6.230   3.615  15.071  0.7798 -0.5759  0.0753
 3212TIP3   OH231050   1.512   6.361  12.091  0.1009  0.5784  0.6857
 3212TIP3    H131051   1.519   6.273  12.127  1.3435  0.9093  1.2773
 3212TIP3    H231052   1.546   6.419  12.159 -0.1281  1.4603  0.0701
 3213TIP3   OH231053   3.978   0.600   4.481  0.2665  0.8343  0.3109
 3213TIP3    H131054   3.889   0.629   4.459 -0.1932  0.0737  1.1714
 3213TIP3    H231055   3.970   0.505   4.494  1.2459  0.7303  0.1935
 3214TIP3   OH231056   1.601   4.997  13.189  0.2934  0.0582 -0.0537
 3214TIP3    H131057   1.635   5.068  13.135 -0.4760  1.2379  0.9772
 3214TIP3    H231058   1.535   4.955  13.134 -0.1726  0.9758 -0.2118
 3215TIP3   OH231059   0.934   3.837  11.964 -0.6800 -0.0948 -0.1589
 3215TIP3    H131060   0.865   3.903  11.961 -0.0778  0.4947 -1.1979
 3215TIP3    H231061   0.992   3.865  12.035 -2.0208 -1.1238  1.3751
 3216TIP3   OH231062   3.629   2.350  11.825 -0.0163 -0.4428 -0.0731
 3216TIP3    H131063   3.682   2.272  11.814  0.2000 -0.0334 -2.1390
 3216TIP3    H231064   3.648   2.380  11.914  2.0148 -1.1824 -0.2342
 3217TIP3   OH231065   0.686   0.485   0.184  1.0080 -0.0393 -0.2120
 3217TIP3    H131066   0.631   0.533   0.122 -0.3980 -0.3303  0.7987
 3217TIP3    H231067   0.754   0.444   0.129 -0.8655 -1.2388 -1.6895
 3218TIP3   OH231068   6.527   5.350  12.555 -0.2505 -0.2820 -0.0756
 3218TIP3    H131069   6.548   5.270  12.507  1.5564  0.7177 -1.0545
 3218TIP3    H231070   6.456   5.390  12.505  0.5194 -0.0590 -1.0055
 3219TIP3   OH231071   2.349   6.471  15.921 -0.0985 -0.0422 -0.4081
 3219TIP3    H131072   2.327   6.482  16.013  0.0005 -0.6330 -0.3117
 3219TIP3    H231073   2.417   6.536  15.904  0.7833 -0.7765  0.2588
 3220TIP3   OH231074   0.830   3.719  14.001  0.2938  0.0382  0.1745
 3220TIP3    H131075   0.835   3.740  13.908  1.5412 -0.4286  0.1360
 3220TIP3    H231076   0.789   3.797  14.040  0.2284  0.4427 -0.6786
 3221TIP3   OH231077   5.918   1.215   5.711 -0.0067  0.0574  0.2337
 3221TIP3    H131078   5.866   1.135   5.724 -0.1536  0.1399  0.1540
 3221TIP3    H231079   5.878   1.279   5.769  0.3984 -0.0542  0.6431
 3222TIP3   OH231080   0.428   4.526  12.063  1.1228 -0.2810  0.1689
 3222TIP3    H131081   0.443   4.546  12.155  0.2833  1.9454 -0.1567
 3222TIP3    H231082   0.342   4.484  12.061  0.0760  1.7885  0.1674
 3223TIP3   OH231083   4.706   4.244   6.792 -0.0774  0.0959 -0.2261
 3223TIP3    H131084   4.792   4.286   6.793 -0.7279  1.5361 -2.0369
 3223TIP3    H231085   4.644   4.316   6.801 -1.1129 -0.8402  0.1577
 3224TIP3   OH231086   1.725   5.533  16.774 -0.6463 -0.5461  0.5064
 3224TIP3    H131087   1.723   5.469  16.703  1.4337 -0.8362  0.6835
 3224TIP3    H231088   1.656   5.505  16.834 -2.8747  0.0686 -1.6937
 3225TIP3   OH231089   3.041   5.345  17.181 -0.2684 -0.2693 -0.8442
 3225TIP3    H131090   3.130   5.315  17.161  0.3716  0.8340  0.3244
 3225TIP3    H231091   3.052   5.407  17.253 -2.0974 -0.9134  0.0051
 3226TIP3   OH231092   2.799   4.925   2.527 -0.0340  0.6458 -0.0606
 3226TIP3    H131093   2.731   4.991   2.523 -1.1090 -0.4823 -0.6935
 3226TIP3    H231094   2.760   4.852   2.575  0.2591 -0.5242 -1.5526
 3227TIP3   OH231095   6.206   5.807   0.898  0.7909  0.4108 -0.2826
 3227TIP3    H131096   6.239   5.820   0.809  2.2156  1.1407  0.3436
 3227TIP3    H231097   6.224   5.890   0.942 -2.0570  0.9272  0.0445
 3228TIP3   OH231098   1.576   6.043  16.640  0.0563 -0.1403 -0.1294
 3228TIP3    H131099   1.501   6.042  16.700 -0.3041  0.6925 -0.5611
 3228TIP3    H231100   1.572   5.959  16.594 -1.0497  0.2133 -0.6937
 3229TIP3   OH231101   4.998   0.628  14.628  0.3416  0.6493 -0.2105
 3229TIP3    H131102   4.983   0.554  14.687  0.4493  1.5744  0.9911
 3229TIP3    H231103   4.994   0.705  14.685  0.6547  1.5388 -1.3830
 3230TIP3   OH231104   0.958   5.692  14.734  0.4748 -0.4791  0.3765
 3230TIP3    H131105   0.879   5.642  14.710 -0.2996  0.7746  0.2300
 3230TIP3    H231106   1.011   5.691  14.654  0.2401 -0.6414  0.2196
 3231TIP3   OH231107   6.708   1.195  14.694  0.0936 -0.2108 -0.2340
 3231TIP3    H131108   6.624   1.178  14.737  0.1991  0.1859  0.1270
 3231TIP3    H231109   6.771   1.200  14.766  0.0576  1.8403 -0.3202
 3232TIP3   OH231110   1.581   3.903   1.497 -0.1464 -0.1073  0.1297
 3232TIP3    H131111   1.583   3.910   1.402 -0.5745 -1.4072  0.0070
 3232TIP3    H231112   1.524   3.828   1.514 -0.4339  0.3910  1.4247
 3233TIP3   OH231113   5.343   1.442  11.807  0.3991  0.0125  0.3835
 3233TIP3    H131114   5.336   1.380  11.734 -0.8269 -0.7674  1.1508
 3233TIP3    H231115   5.275   1.508  11.788 -0.1501 -0.3783  0.9973
 3234TIP3   OH231116   5.665   6.196  11.886  0.1299  0.1584 -0.8401
 3234TIP3    H131117   5.742   6.244  11.857  0.4188 -0.4182 -1.0449
 3234TIP3    H231118   5.645   6.136  11.815  0.7934 -1.1983  0.0862
 3235TIP3   OH231119   2.422   1.427  12.114 -0.6477  0.0830  0.0367
 3235TIP3    H131120   2.421   1.498  12.178 -2.0228 -1.0665  1.3485
 3235TIP3    H231121   2.499   1.376  12.135 -0.9487 -0.1369  0.6169
 3236TIP3   OH231122   0.497   3.103   1.629 -0.3807 -0.0340  0.6542
 3236TIP3    H131123   0.463   3.034   1.686  0.2482 -0.1699  0.8686
 3236TIP3    H231124   0.530   3.057   1.552  1.0641 -0.0863  1.2872
 3237TIP3   OH231125   3.964   3.818   4.633  0.2788 -0.1632 -0.2918
 3237TIP3    H131126   3.975   3.749   4.568 -0.0211 -0.9390  0.4775
 3237TIP3    H231127   3.869   3.824   4.647  0.3525 -0.1004  0.1872
 3238TIP3   OH231128   1.672   3.397  11.985 -0.7928 -0.1971  0.6379
 3238TIP3    H131129   1.764   3.411  11.966 -0.3634 -2.1583  1.2023
 3238TIP3    H231130   1.654   3.458  12.057  0.2842 -0.4018  1.0970
 3239TIP3   OH231131   5.509   1.180   3.880  0.0828 -0.3120 -0.3366
 3239TIP3    H131132   5.414   1.171   3.889  0.0308  0.4359 -0.1021
 3239TIP3    H231133   5.534   1.115   3.814 -0.9862  1.4718 -2.5665
 3240TIP3   OH231134   0.799   5.002  16.551 -0.0561  0.0845 -0.6031
 3240TIP3    H131135   0.728   5.018  16.488  0.9035 -1.1789 -2.0370
 3240TIP3    H231136   0.871   5.056  16.519  0.2354 -0.0730 -0.2072
 3241TIP3   OH231137   0.611   2.509   1.914  0.3200  0.1833 -0.6739
 3241TIP3    H131138   0.575   2.549   1.835 -0.6933  1.8875  0.6068
 3241TIP3    H231139   0.653   2.582   1.960  0.0561 -0.5921  0.8146
 3242TIP3   OH231140   4.597   6.768  11.992 -0.4452 -0.0110 -0.9883
 3242TIP3    H131141   4.671   6.710  12.009 -0.9825 -0.7811 -1.2261
 3242TIP3    H231142   4.599   6.831  12.064  0.3128 -0.1535 -0.8771
 3243TIP3   OH231143   0.271   3.889   3.153 -0.6678  0.0283 -0.6198
 3243TIP3    H131144   0.185   3.932   3.150  0.2925  2.0140 -0.3246
 3243TIP3    H231145   0.330   3.950   3.109  0.9423 -0.4775  0.7901
 3244TIP3   OH231146   5.649   2.802   3.756 -0.0436  0.1174  0.3475
 3244TIP3    H131147   5.723   2.799   3.695 -0.6643 -1.7936 -0.3518
 3244TIP3    H231148   5.687   2.779   3.841  0.6240  1.7096  0.4892
 3245TIP3   OH231149   3.421   3.882   0.012 -0.5332 -0.2858  0.4412
 3245TIP3    H131150   3.416   3.883  -0.084 -0.2132 -0.2981  0.4243
 3245TIP3    H231151   3.369   3.958   0.039  0.7047  0.6868  0.1898
 3246TIP3   OH231152   2.448   6.556   5.401  0.4099  0.5526  0.1851
 3246TIP3    H131153   2.472   6.519   5.316 -0.9662  1.0059 -0.4091
 3246TIP3    H231154   2.532   6.584   5.439  1.0999 -0.1897 -0.7516
 3247TIP3   OH231155   0.758   0.444   3.007  0.6951  0.6815  0.3292
 3247TIP3    H131156   0.844   0.484   2.994  0.0323  2.0246 -0.1247
 3247TIP3    H231157   0.697   0.503   2.961 -0.3477 -0.7946 -0.2473
 3248TIP3   OH231158   4.433   2.603   3.952  0.1765  0.0220 -0.1212
 3248TIP3    H131159   4.386   2.553   3.886 -0.4214  0.6388 -0.1644
 3248TIP3    H231160   4.417   2.695   3.929 -1.6098  0.2619  1.9948
 3249TIP3   OH231161   1.496   5.437   5.876 -0.3184 -0.4467 -0.3942
 3249TIP3    H131162   1.520   5.356   5.922 -1.4365 -0.3563  0.3525
 3249TIP3    H231163   1.406   5.455   5.903 -0.1596  0.9277 -0.7381
 3250TIP3   OH231164   4.489   6.759  14.305  0.1714  0.3730 -0.3978
 3250TIP3    H131165   4.504   6.841  14.259  2.2458 -0.0088 -0.4635
 3250TIP3    H231166   4.410   6.775  14.357 -0.0607  2.0373 -1.2115
 3251TIP3   OH231167   5.727   1.583   2.789  0.1196  0.6343  0.3768
 3251TIP3    H131168   5.814   1.552   2.813 -0.2712 -0.4413  0.4212
 3251TIP3    H231169   5.689   1.615   2.871 -0.5324 -1.3732  0.8838
 3252TIP3   OH231170   4.705   4.375   5.827 -0.0477  0.3251  0.1563
 3252TIP3    H131171   4.775   4.314   5.849  0.2716  0.9914  1.0494
 3252TIP3    H231172   4.731   4.458   5.869 -0.9639  0.7964 -0.1787
 3253TIP3   OH231173   3.407   6.249   5.639  0.1628 -0.4615  0.1961
 3253TIP3    H131174   3.323   6.225   5.601  0.1701 -1.1197  0.5838
 3253TIP3    H231175   3.471   6.198   5.589  0.4210  0.7504 -0.7245
 3254TIP3   OH231176   4.814   5.357   0.318  0.1660  0.0813  0.1019
 3254TIP3    H131177   4.728   5.382   0.285  0.3412  0.2762 -0.2097
 3254TIP3    H231178   4.802   5.268   0.351  0.1561 -0.3814 -1.1304
 3255TIP3   OH231179   3.800   5.466  12.584 -0.1004 -0.8011  0.4396
 3255TIP3    H131180   3.720   5.476  12.636 -0.7872 -2.5435 -0.2574
 3255TIP3    H231181   3.775   5.495  12.496  0.3403 -0.3455  0.4611
 3256TIP3   OH231182   1.218   0.401   6.253  0.3681 -0.0118 -0.6586
 3256TIP3    H131183   1.170   0.332   6.298 -0.0807  0.3842 -0.5303
 3256TIP3    H231184   1.179   0.405   6.166  0.0744  0.4010 -0.5093
 3257TIP3   OH231185   1.443   1.496   3.797  0.0337  0.5377 -0.1116
 3257TIP3    H131186   1.406   1.433   3.736 -1.1021 -0.4671  1.5548
 3257TIP3    H231187   1.506   1.546   3.745 -0.6819 -0.4697 -2.0041
 3258TIP3   OH231188   2.343   0.543  13.212 -0.7387  0.1365 -0.1895
 3258TIP3    H131189   2.427   0.557  13.169 -0.9335 -0.5271 -0.7917
 3258TIP3    H231190   2.290   0.619  13.186 -0.4772  0.3276 -0.1654
 3259TIP3   OH231191   2.231   3.899  13.416 -0.0036 -0.3370  0.3780
 3259TIP3    H131192   2.283   3.833  13.370 -1.0975  0.9870 -2.9222
 3259TIP3    H231193   2.281   3.980  13.407 -0.3500  0.0029  1.3742
 3260TIP3   OH231194   1.053   3.622   4.983 -0.1616  0.1861 -0.1616
 3260TIP3    H131195   1.067   3.714   4.961 -1.9147  0.5829  0.3208
 3260TIP3    H231196   1.067   3.618   5.078 -1.1901  0.1864 -0.0027
 3261TIP3   OH231197   0.499   1.815  14.111  0.6772  0.0388 -0.0671
 3261TIP3    H131198   0.477   1.867  14.189  1.9703  2.4725 -1.2800
 3261TIP3    H231199   0.490   1.876  14.038  0.0869 -2.0575 -1.7976
 3262TIP3   OH231200   2.814   4.438  16.176  0.2270  0.1895 -0.3393
 3262TIP3    H131201   2.790   4.463  16.087 -0.2824 -0.6144 -0.4204
 3262TIP3    H231202   2.855   4.352  16.168 -1.3913 -0.6628  0.4235
 3263TIP3   OH231203   4.220   4.091   1.539  0.3707  0.6702 -0.8030
 3263TIP3    H131204   4.222   4.003   1.502 -1.0377  0.2900 -0.0339
 3263TIP3    H231205   4.312   4.117   1.547  0.7549 -0.3568 -1.9078
 3264TIP3   OH231206   5.226   0.790  13.628 -0.3744 -0.0396 -0.0017
 3264TIP3    H131207   5.182   0.761  13.707 -1.9138 -0.7732 -1.1079
 3264TIP3    H231208   5.221   0.715  13.568  1.6269  0.1531 -0.4693
 3265TIP3   OH231209   4.175   1.633   0.969  0.4691  0.2726 -0.1307
 3265TIP3    H131210   4.091   1.676   0.951  0.4300  0.3087  0.1333
 3265TIP3    H231211   4.234   1.705   0.992  0.5795  0.2495 -0.3444
 3266TIP3   OH231212   0.514   5.346   2.322  0.2369  0.2316 -0.4024
 3266TIP3    H131213   0.464   5.266   2.337  0.8738 -0.6374 -2.7739
 3266TIP3    H231214   0.593   5.334   2.375 -0.9276  0.5556  1.4563
 3267TIP3   OH231215   1.223   5.084   5.208  0.3764  0.1994  0.9998
 3267TIP3    H131216   1.293   5.112   5.266  1.5966  0.8862 -0.7694
 3267TIP3    H231217   1.180   5.166   5.181  0.7818  0.0016 -0.2573
 3268TIP3   OH231218   3.248   6.249  11.684 -0.4376 -0.2275  0.2004
 3268TIP3    H131219   3.342   6.242  11.665 -0.6085 -0.0061 -0.7562
 3268TIP3    H231220   3.242   6.321  11.747  0.1717 -1.1637  1.3270
 3269TIP3   OH231221   3.512   6.057   4.743 -0.2250 -0.1922  0.3517
 3269TIP3    H131222   3.528   5.968   4.712 -0.7975  0.4097 -1.7829
 3269TIP3    H231223   3.439   6.088   4.690 -0.0049  1.5764  1.0417
 3270TIP3   OH231224   4.609   3.183   1.725  0.3549  0.3497  0.1902
 3270TIP3    H131225   4.604   3.179   1.821  1.2281  0.5399  0.2540
 3270TIP3    H231226   4.626   3.275   1.706 -1.6791  0.6572 -0.2583
 3271TIP3   OH231227   1.805   2.515   2.287  0.6111  0.5117  0.0469
 3271TIP3    H131228   1.868   2.565   2.233  0.1877  0.3686 -0.5829
 3271TIP3    H231229   1.789   2.435   2.237  1.9663 -0.6701  1.4844
 3272TIP3   OH231230   6.607   6.070   0.384 -0.4164  0.0407  0.3550
 3272TIP3    H131231   6.666   6.031   0.448 -0.2335 -0.5500 -0.1728
 3272TIP3    H231232   6.661   6.087   0.308 -0.6506  0.6775  0.3259
 3273TIP3   OH231233   0.528   3.983   6.426 -0.2086 -0.5210 -0.5911
 3273TIP3    H131234   0.475   4.026   6.493 -0.5552 -1.2069 -0.4242
 3273TIP3    H231235   0.538   4.049   6.357 -1.9177 -0.6462 -0.9677
 3274TIP3   OH231236   4.605   5.097  16.946 -0.7712 -1.3309  0.5069
 3274TIP3    H131237   4.616   5.005  16.924 -0.2321 -1.1794  0.1434
 3274TIP3    H231238   4.674   5.115  17.010 -0.2483 -0.9258 -0.1723
 3275TIP3   OH231239   2.714   3.748   0.204 -0.2865  0.7246 -0.1528
 3275TIP3    H131240   2.747   3.676   0.151  1.1582  1.5432 -0.3867
 3275TIP3    H231241   2.637   3.712   0.248 -1.4144 -0.0435 -2.6465
 3276TIP3   OH231242   5.767   1.059   1.883  0.0322  0.2653  0.1656
 3276TIP3    H131243   5.705   1.124   1.849 -1.0910  0.2614  2.1190
 3276TIP3    H231244   5.851   1.104   1.884 -0.1999  0.7575 -1.1309
 3277TIP3   OH231245   4.642   1.755  11.476 -0.1141 -0.0506 -0.3724
 3277TIP3    H131246   4.695   1.693  11.527  0.5424 -0.0270 -1.0239
 3277TIP3    H231247   4.589   1.701  11.418  0.3771 -0.0022 -0.8623
 3278TIP3   OH231248   6.443   4.743   4.190  0.0022  0.4258  0.7092
 3278TIP3    H131249   6.500   4.667   4.177  1.0223  0.8316  2.6299
 3278TIP3    H231250   6.467   4.804   4.120  0.9315  0.0249  0.6807
 3279TIP3   OH231251   3.745   4.051  14.487  0.0328  0.1049  0.4623
 3279TIP3    H131252   3.654   4.079  14.476  0.1862  0.5258  0.2616
 3279TIP3    H231253   3.766   4.073  14.578  0.8292  2.6131 -0.3039
 3280TIP3   OH231254   6.394   2.692   0.688 -0.0494  0.3972  0.4859
 3280TIP3    H131255   6.309   2.656   0.662  0.6699 -0.6316 -0.5121
 3280TIP3    H231256   6.452   2.672   0.614  1.4266 -0.2361  1.7896
 3281TIP3   OH231257   2.163   6.110  12.492  0.1633 -0.0060 -0.1173
 3281TIP3    H131258   2.138   6.028  12.535 -1.4433 -0.5633 -2.0318
 3281TIP3    H231259   2.227   6.083  12.425  1.3874  0.6233  0.7908
 3282TIP3   OH231260   4.987   6.384  11.210 -0.0525 -0.3846  0.5657
 3282TIP3    H131261   5.032   6.348  11.134 -1.4043 -0.6373 -0.1303
 3282TIP3    H231262   4.994   6.479  11.200  1.9492 -0.4217  1.4552
 3283TIP3   OH231263   6.602   3.525  15.468  0.1608  0.5406  0.6470
 3283TIP3    H131264   6.610   3.567  15.382  0.4938 -0.7814  0.0242
 3283TIP3    H231265   6.687   3.483  15.483 -0.4285 -0.5784  0.9060
 3284TIP3   OH231266   2.868   0.096   5.485  0.1892 -0.4485 -0.1695
 3284TIP3    H131267   2.870   0.144   5.402  1.9646 -3.2866 -1.8425
 3284TIP3    H231268   2.909   0.155   5.548  1.4119  0.6272 -1.9340
 3285TIP3   OH231269   1.751   3.874   3.281 -0.4349  0.1800 -0.8038
 3285TIP3    H131270   1.795   3.790   3.297 -1.6058  0.2331  3.3433
 3285TIP3    H231271   1.696   3.858   3.204 -0.3394 -2.7661 -0.3245
 3286TIP3   OH231272   0.936   5.216   3.087 -0.1832  0.1445 -0.3424
 3286TIP3    H131273   0.944   5.183   2.997  0.6773  1.4988 -0.7700
 3286TIP3    H231274   0.862   5.276   3.084  0.5212  1.0121 -0.3943
 3287TIP3   OH231275   3.569   4.837   0.718  0.7723  0.2781 -0.1004
 3287TIP3    H131276   3.627   4.893   0.769  0.5202  1.0415 -0.6302
 3287TIP3    H231277   3.491   4.828   0.772  0.7107  0.6545 -0.1247
 3288TIP3   OH231278   1.037   6.584   2.210 -0.0208 -0.1640 -0.1792
 3288TIP3    H131279   0.994   6.613   2.130  1.5041  2.0024 -0.2475
 3288TIP3    H231280   0.968   6.589   2.277 -0.2202  2.1109 -0.5208
 3289TIP3   OH231281   1.903   0.585   4.047 -0.2426  0.6225 -0.0515
 3289TIP3    H131282   1.822   0.545   4.080 -0.3830  0.8533 -0.1089
 3289TIP3    H231283   1.930   0.644   4.117 -1.7537  2.8018 -1.2050
 3290TIP3   OH231284   2.543   3.459  16.516 -0.7289 -0.0541  0.5364
 3290TIP3    H131285   2.473   3.398  16.493 -0.7785 -0.7164  2.4210
 3290TIP3    H231286   2.620   3.403  16.529  0.0144  0.6062 -0.8921
 3291TIP3   OH231287   0.647   4.133   1.381 -0.1586  0.2643 -0.9999
 3291TIP3    H131288   0.707   4.096   1.446  0.7984 -0.7702 -2.4338
 3291TIP3    H231289   0.579   4.177   1.433 -0.0393 -1.4912  0.6943
 3292TIP3   OH231290   0.552   6.189   4.155  0.2246  0.2092 -0.0983
 3292TIP3    H131291   0.644   6.182   4.130 -0.1077 -0.7187 -1.1021
 3292TIP3    H231292   0.541   6.281   4.180  1.3502  0.3940 -0.2526
 3293TIP3   OH231293   5.337   1.613  12.069  0.5437 -0.1496  0.1626
 3293TIP3    H131294   5.430   1.635  12.074 -0.0389  2.8361 -1.2938
 3293TIP3    H231295   5.335   1.518  12.075  3.4241 -0.1174  3.6746
 3294TIP3   OH231296   2.386   5.365  16.542  0.4649 -0.0523 -0.3975
 3294TIP3    H131297   2.313   5.405  16.590  0.2775 -1.9428  1.0094
 3294TIP3    H231298   2.344   5.321  16.468  0.3110 -0.0046 -0.3398
 3295TIP3   OH231299   1.232   4.394   4.037 -0.1707  0.2462 -0.5086
 3295TIP3    H131300   1.170   4.379   4.108 -0.9688 -2.0160 -1.6348
 3295TIP3    H231301   1.312   4.425   4.081 -0.7352 -0.8430  1.3287
 3296TIP3   OH231302   3.245   4.172  15.788  0.3179 -0.1253 -0.4560
 3296TIP3    H131303   3.160   4.195  15.753 -0.1177  0.3390  0.8646
 3296TIP3    H231304   3.272   4.249  15.838  0.6704 -0.9516  0.6535
 3297TIP3   OH231305   4.925   2.880  13.993  0.2048  0.3819  0.0428
 3297TIP3    H131306   4.858   2.812  13.992  0.7149 -0.2112  2.5299
 3297TIP3    H231307   4.993   2.847  14.053  2.2963  1.3700 -1.6925
 3298TIP3   OH231308   4.185   4.612   3.591 -0.3836 -0.1940  0.0970
 3298TIP3    H131309   4.228   4.623   3.676 -0.6110 -0.4736  0.2510
 3298TIP3    H231310   4.203   4.693   3.544  1.0412 -0.6540 -0.1770
 3299TIP3   OH231311   6.576   4.201   1.348  0.1311  0.3161  0.3019
 3299TIP3    H131312   6.654   4.198   1.293  1.4300 -2.1268  2.1609
 3299TIP3    H231313   6.599   4.261   1.419 -0.8089  1.8823 -0.6701
 3300TIP3   OH231314   2.523   2.404   0.090  0.0357 -0.0691 -0.0136
 3300TIP3    H131315   2.520   2.460   0.013  1.3850 -0.4478 -0.3669
 3300TIP3    H231316   2.534   2.465   0.163 -1.1519  0.2822 -0.1181
 3301TIP3   OH231317   1.580   1.000   5.748  0.8337 -0.9710  0.5782
 3301TIP3    H131318   1.615   1.073   5.799  1.9312 -2.3697  1.8654
 3301TIP3    H231319   1.512   0.962   5.804 -0.7477 -0.1041 -0.6802
 3302TIP3   OH231320   5.567   0.697  12.876 -0.3375  0.6202  0.4779
 3302TIP3    H131321   5.524   0.612  12.872  1.0124 -0.0661  0.1166
 3302TIP3    H231322   5.568   0.719  12.969 -0.5851  0.1936  0.5826
 3303TIP3   OH231323   3.092   6.565  12.760  0.3625 -0.7500 -0.9718
 3303TIP3    H131324   3.056   6.587  12.846  1.2750 -0.4982 -0.6495
 3303TIP3    H231325   3.130   6.478  12.772  2.5906  0.2605 -0.4698
 3304TIP3   OH231326   1.070   3.488   5.853  0.3433  0.6189 -0.6885
 3304TIP3    H131327   1.134   3.545   5.896  0.6746  0.9461 -1.6041
 3304TIP3    H231328   1.024   3.445   5.925  1.3540  0.6461 -0.0124
 3305TIP3   OH231329   5.140   4.372  11.586  0.2128 -0.2671  0.1301
 3305TIP3    H131330   5.087   4.293  11.584 -0.1448 -0.1050  1.7938
 3305TIP3    H231331   5.134   4.408  11.498 -1.7115 -0.7327  0.0568
 3306TIP3   OH231332   4.204   5.700  13.135  0.7377  0.6701 -0.4302
 3306TIP3    H131333   4.257   5.630  13.099  2.2561  1.0362  1.0453
 3306TIP3    H231334   4.265   5.772  13.150 -0.4834  1.7126 -0.3353
 3307TIP3   OH231335   5.737   5.961   5.393 -0.3059  0.2572 -0.5950
 3307TIP3    H131336   5.799   6.028   5.422 -0.6470 -0.0523  0.9223
 3307TIP3    H231337   5.675   6.009   5.338 -0.7549  1.2962  0.7664
 3308TIP3   OH231338   1.048   1.984   5.275 -0.1959  0.3123  0.1385
 3308TIP3    H131339   1.143   1.970   5.275 -0.2991 -0.4368  0.4611
 3308TIP3    H231340   1.038   2.076   5.297  0.4682  0.4682 -0.1806
 3309TIP3   OH231341   2.791   6.780   4.301 -0.5103 -0.3120 -0.0120
 3309TIP3    H131342   2.758   6.863   4.335 -0.5905 -0.3124 -0.0850
 3309TIP3    H231343   2.718   6.746   4.248 -0.1412  0.0175 -0.7351
 3310TIP3   OH231344   0.798   2.167  12.228 -0.2874  1.1805 -0.1318
 3310TIP3    H131345   0.734   2.238  12.220 -1.1384  0.3514 -0.9266
 3310TIP3    H231346   0.776   2.124  12.311 -0.4440  1.2171 -0.1536
 3311TIP3   OH231347   2.049   4.233   0.157  0.3727 -0.0981 -0.3752
 3311TIP3    H131348   2.102   4.175   0.212  0.3204  1.6484  1.5718
 3311TIP3    H231349   2.070   4.321   0.188 -1.8834  0.7598 -1.2066
 3312TIP3   OH231350   0.993   1.859   4.992 -0.1008 -0.2015  0.1360
 3312TIP3    H131351   0.901   1.836   5.005 -0.1606 -0.9708 -1.4898
 3312TIP3    H231352   1.030   1.864   5.080 -1.4830 -0.8231  0.7569
 3313TIP3   OH231353   6.540   2.955   4.346  0.3956  0.3015 -0.6975
 3313TIP3    H131354   6.616   2.902   4.371  0.0726 -0.6177 -1.6122
 3313TIP3    H231355   6.473   2.933   4.411  0.4239 -0.0531 -0.7866
 3314TIP3   OH231356   0.843   5.788   2.937  0.2526 -0.7108 -0.5747
 3314TIP3    H131357   0.794   5.768   3.017 -0.4793 -0.0209 -0.8368
 3314TIP3    H231358   0.785   5.760   2.866 -0.0049  0.6077 -0.8989
 3315TIP3   OH231359   6.017   3.641   3.811 -0.0630 -0.0569 -0.1427
 3315TIP3    H131360   5.959   3.715   3.829 -0.3988 -0.1572 -0.7918
 3315TIP3    H231361   6.083   3.677   3.753  0.1382 -0.1129  0.0513
 3316TIP3   OH231362   3.882   5.211   4.565 -0.1292 -0.0493 -0.2061
 3316TIP3    H131363   3.901   5.208   4.659 -1.8602  0.1185  0.1641
 3316TIP3    H231364   3.944   5.275   4.530  2.7009 -2.4302  0.2522
 3317TIP3   OH231365   1.741   2.395   1.233 -0.3517  0.0054  0.1034
 3317TIP3    H131366   1.831   2.426   1.225 -1.2287  2.7363  0.3639
 3317TIP3    H231367   1.743   2.337   1.310  0.7800  1.6284  1.3322
 3318TIP3   OH231368   3.280   0.429  11.296 -0.2370 -0.2376  0.0613
 3318TIP3    H131369   3.250   0.362  11.357  0.0897  0.4716  1.0241
 3318TIP3    H231370   3.238   0.510  11.328  0.9307  0.3607  0.0927
 3319TIP3   OH231371   0.456   0.641  12.211  0.5215 -0.4565 -0.2984
 3319TIP3    H131372   0.467   0.676  12.123 -1.2809  0.4679 -0.1844
 3319TIP3    H231373   0.507   0.700  12.267 -1.1163  1.0265 -0.3213
 3320TIP3   OH231374   6.202   6.104   0.420  0.0175  0.0690  0.4074
 3320TIP3    H131375   6.192   6.197   0.401  0.6623  0.2839  1.0733
 3320TIP3    H231376   6.237   6.066   0.340  1.1985  0.6792  0.6229
 3321TIP3   OH231377   0.316   5.827  12.639 -0.3308 -0.1651 -0.0217
 3321TIP3    H131378   0.360   5.893  12.692  0.1870 -0.7573  0.3043
 3321TIP3    H231379   0.236   5.806  12.687  0.0183 -0.5269  0.4073
 3322TIP3   OH231380   4.457   1.825   0.326  0.1469  0.1358 -0.3124
 3322TIP3    H131381   4.503   1.846   0.245 -1.9566 -0.4231 -1.6817
 3322TIP3    H231382   4.459   1.729   0.331  0.8647  0.1851  0.6820
 3323TIP3   OH231383   0.944   3.896  16.227 -0.5921  0.0483 -0.2036
 3323TIP3    H131384   1.025   3.850  16.253 -0.9745  0.0019  0.9106
 3323TIP3    H231385   0.925   3.861  16.139  0.2803 -0.3673 -0.2405
 3324TIP3   OH231386   2.611   6.706  11.971 -0.4015 -0.1489 -0.3380
 3324TIP3    H131387   2.573   6.739  11.890 -0.3687  1.4312  0.2638
 3324TIP3    H231388   2.678   6.770  11.994  2.1948 -2.5327 -1.0034
 3325TIP3   OH231389   2.460   1.571   1.904  0.1226  0.7114 -0.2173
 3325TIP3    H131390   2.451   1.503   1.971  1.0802  1.1330  0.3477
 3325TIP3    H231391   2.411   1.537   1.829 -1.2236  0.3682  0.7961
 3326TIP3   OH231392   2.284   6.652  13.179 -0.0577 -0.0308  0.2110
 3326TIP3    H131393   2.357   6.643  13.117  0.0993  0.9375  0.2551
 3326TIP3    H231394   2.293   6.577  13.238  1.5847  0.7151  0.9217
 3327TIP3   OH231395   5.852   0.514   0.635 -0.0318  0.2055 -0.0675
 3327TIP3    H131396   5.809   0.501   0.551 -0.5505 -0.2438  0.2642
 3327TIP3    H231397   5.814   0.448   0.692  0.9941 -0.1040  0.2736
 3328TIP3   OH231398   6.259   2.768  12.596  0.0593  0.1153 -0.0423
 3328TIP3    H131399   6.298   2.699  12.650 -1.5472 -0.2738  0.6535
 3328TIP3    H231400   6.315   2.772  12.518  0.6946 -1.3540  0.3187
 3329TIP3   OH231401   6.205   3.670   2.673 -0.5099 -0.0591  0.2752
 3329TIP3    H131402   6.155   3.677   2.592  1.3686 -0.2414 -0.9097
 3329TIP3    H231403   6.158   3.727   2.735 -1.6852  0.4461 -1.0584
 3330TIP3   OH231404   0.222   1.175  14.044  0.6872 -0.1547 -0.2093
 3330TIP3    H131405   0.238   1.149  13.954 -2.0693 -0.9360 -0.5089
 3330TIP3    H231406   0.150   1.238  14.039  1.4161  0.8433  1.3317
 3331TIP3   OH231407   1.939   6.571  11.184  0.3562  0.6375  0.1795
 3331TIP3    H131408   1.945   6.657  11.225  0.3578  0.8530 -0.2770
 3331TIP3    H231409   2.030   6.544  11.171  0.3676  1.1625 -0.9247
 3332TIP3   OH231410   0.632   3.877  14.389  0.4304  0.2004 -0.1909
 3332TIP3    H131411   0.720   3.879  14.426 -0.3150  0.1882  1.5821
 3332TIP3    H231412   0.597   3.792  14.413  0.5713 -0.5360 -2.4477
 3333TIP3   OH231413   1.993   4.496  17.137 -0.1211  0.3835  0.1437
 3333TIP3    H131414   2.014   4.575  17.186 -0.7086  1.6251 -1.5755
 3333TIP3    H231415   1.905   4.472  17.167  0.4365 -0.2002  1.3738
 3334TIP3   OH231416   5.131   4.710  15.988  0.3200  0.1825 -0.8076
 3334TIP3    H131417   5.065   4.742  15.926 -0.3305  0.1856 -0.1321
 3334TIP3    H231418   5.120   4.615  15.988  0.4861  0.1643 -0.8862
 3335TIP3   OH231419   4.239   5.269   1.716 -0.0317  0.4896  0.3472
 3335TIP3    H131420   4.198   5.355   1.707  0.3590  0.5586 -0.9431
 3335TIP3    H231421   4.244   5.235   1.626  0.2524 -0.6767  0.7854
 3336TIP3   OH231422   3.140   6.223   2.705  0.3123 -0.1038 -0.1661
 3336TIP3    H131423   3.122   6.227   2.799 -0.6543 -1.9435 -0.2377
 3336TIP3    H231424   3.059   6.255   2.664  0.3435 -0.2942 -0.3778
 3337TIP3   OH231425   2.371   2.229  14.611  0.2868  0.2750  0.1762
 3337TIP3    H131426   2.371   2.293  14.539  1.7122 -0.4552 -0.4889
 3337TIP3    H231427   2.447   2.251  14.663  0.0739 -0.1135  0.6520
 3338TIP3   OH231428   1.762   1.324  14.238  0.4577 -0.5298 -0.5423
 3338TIP3    H131429   1.821   1.249  14.227  0.8910 -0.4436  1.0069
 3338TIP3    H231430   1.674   1.289  14.222  0.7863 -1.0151 -1.3118
 3339TIP3   OH231431   4.660   0.612   2.097  0.5307 -0.4081  0.3617
 3339TIP3    H131432   4.664   0.519   2.076 -0.8025  0.2093 -3.0195
 3339TIP3    H231433   4.749   0.644   2.082  0.6575 -0.8878  0.0759
 3340TIP3   OH231434   6.535   3.586   5.232  0.6005  0.0096  0.2520
 3340TIP3    H131435   6.519   3.623   5.145  1.4320  0.6347  0.3679
 3340TIP3    H231436   6.545   3.492   5.216 -1.5040 -0.1927 -0.0404
 3341TIP3   OH231437   3.139   6.467   1.827  0.1467  0.0510 -0.4625
 3341TIP3    H131438   3.231   6.459   1.802  0.1548 -0.3108 -0.3231
 3341TIP3    H231439   3.091   6.425   1.755  0.0293  1.1481 -1.0301
 3342TIP3   OH231440   4.099   2.288   1.212 -0.5594 -0.2850 -0.2843
 3342TIP3    H131441   4.165   2.338   1.164  1.3491 -0.5072  2.0214
 3342TIP3    H231442   4.034   2.353   1.238  0.7161  0.6108  0.7053
 3343TIP3   OH231443   2.032   3.938  11.022  0.4091  0.2713  0.4444
 3343TIP3    H131444   1.968   3.871  11.000  1.0137 -0.6787  1.5097
 3343TIP3    H231445   1.981   4.018  11.030 -0.4078 -0.1661 -0.2782
 3344TIP3   OH231446   5.637   2.474   4.003 -0.4010 -0.5407  0.0560
 3344TIP3    H131447   5.548   2.458   4.035 -0.2884  0.6336  0.9690
 3344TIP3    H231448   5.660   2.394   3.956 -2.1440 -0.6589 -0.6509
 3345TIP3   OH231449   3.195   0.041  16.150 -0.2634 -0.0768  0.6752
 3345TIP3    H131450   3.180   0.134  16.160 -3.2984 -0.7116  2.4943
 3345TIP3    H231451   3.271   0.023  16.206  0.6190  1.3180 -0.0343
 3346TIP3   OH231452   3.899   2.679  14.777 -0.3679 -0.1677  0.8666
 3346TIP3    H131453   3.936   2.754  14.825 -1.0853  0.7779 -0.0385
 3346TIP3    H231454   3.807   2.701  14.765 -0.4890 -1.0062  0.2075
 3347TIP3   OH231455   4.391   3.335  11.810  0.0572 -0.2735 -0.5530
 3347TIP3    H131456   4.319   3.296  11.860 -0.1373  0.6932 -0.0808
 3347TIP3    H231457   4.361   3.423  11.788  1.1865  0.2241 -0.1431
 3348TIP3   OH231458   3.470   5.764   2.833  0.0221 -0.2538  0.4149
 3348TIP3    H131459   3.435   5.781   2.921 -1.2750 -1.0379  0.0696
 3348TIP3    H231460   3.485   5.669   2.831  2.0254  0.0357  0.4760
 3349TIP3   OH231461   2.061   0.145   1.293  0.3775 -0.1294  0.1877
 3349TIP3    H131462   2.093   0.233   1.314  0.1848 -0.3688  1.4982
 3349TIP3    H231463   2.135   0.102   1.250  0.2743  0.8665 -1.0195
 3350TIP3   OH231464   1.425   2.291  13.379 -0.0064 -0.7773 -0.2986
 3350TIP3    H131465   1.438   2.381  13.408 -0.6320 -1.0909  1.0280
 3350TIP3    H231466   1.416   2.296  13.284 -3.1352  0.9524  0.0190
 3351TIP3   OH231467   0.781   3.082   0.372  0.2515  0.1815 -0.4533
 3351TIP3    H131468   0.765   3.153   0.310  2.8891 -0.4205 -1.8540
 3351TIP3    H231469   0.835   3.122   0.441  1.4342 -0.3546 -1.0586
 3352TIP3   OH231470   5.065   5.016   2.653 -0.3742  0.0965  0.6973
 3352TIP3    H131471   4.999   4.962   2.696  1.6103 -1.7620  1.5087
 3352TIP3    H231472   5.145   4.964   2.658  1.1119  2.2150 -0.4247
 3353TIP3   OH231473   0.592   1.769  15.498 -0.2731  0.3877 -0.1289
 3353TIP3    H131474   0.555   1.682  15.483 -1.2157  0.9874 -1.3811
 3353TIP3    H231475   0.684   1.761  15.475 -0.0580 -0.5966  1.0141
 3354TIP3   OH231476   4.253   6.167   1.114  0.1977 -0.2744 -0.2115
 3354TIP3    H131477   4.235   6.085   1.068  0.1661 -1.1523  1.3489
 3354TIP3    H231478   4.319   6.144   1.180  1.2351  1.2490 -0.6752
 3355TIP3   OH231479   1.319   3.437   0.226 -0.4677  0.3593  0.0201
 3355TIP3    H131480   1.285   3.468   0.310 -0.8307 -0.9644  0.3812
 3355TIP3    H231481   1.304   3.510   0.166  0.4407  1.5928  1.2459
 3356TIP3   OH231482   5.580   5.815  15.368  0.1281 -0.1455 -0.8991
 3356TIP3    H131483   5.516   5.854  15.428  0.3646 -1.9544  0.5590
 3356TIP3    H231484   5.528   5.788  15.292 -0.6020 -0.2906 -0.3568
 3357TIP3   OH231485   2.840   2.944   5.312  0.0893 -0.4177 -0.0584
 3357TIP3    H131486   2.754   2.952   5.354  0.4259 -2.0635  1.0012
 3357TIP3    H231487   2.889   3.020   5.342 -0.4738 -0.3358  0.6604
 3358TIP3   OH231488   6.100   1.566  15.074 -0.0844 -0.2823  0.0271
 3358TIP3    H131489   6.144   1.651  15.077 -0.1331 -0.2546 -0.0461
 3358TIP3    H231490   6.133   1.525  14.994  0.5354 -0.6549  0.4696
 3359TIP3   OH231491   4.412   3.690  13.830  0.0135  0.3569 -0.2327
 3359TIP3    H131492   4.391   3.769  13.881 -0.4067  0.3335 -0.3750
 3359TIP3    H231493   4.327   3.650  13.810  0.1465  0.6632 -1.4427
 3360TIP3   OH231494   2.788   4.213  14.029  0.6142 -0.1608  0.2606
 3360TIP3    H131495   2.727   4.204  13.957  1.3704 -0.9526 -0.2973
 3360TIP3    H231496   2.769   4.299  14.067 -1.1820 -0.6214  0.4327
 3361TIP3   OH231497   2.340   1.452  12.548 -0.1506  0.5339 -0.8024
 3361TIP3    H131498   2.350   1.425  12.639  0.3713 -1.3744 -1.4035
 3361TIP3    H231499   2.246   1.440  12.530  0.2975 -2.2704 -1.4573
 3362TIP3   OH231500   0.203   4.901   5.801  0.0642 -0.3261 -0.0933
 3362TIP3    H131501   0.127   4.947   5.764 -1.6962 -2.1514  1.1277
 3362TIP3    H231502   0.215   4.941   5.887 -0.4467 -1.0229  0.3069
 3363TIP3   OH231503   1.581   3.272   1.068 -0.5882  1.1456  0.2028
 3363TIP3    H131504   1.517   3.216   1.113 -1.8831  1.1293 -1.5722
 3363TIP3    H231505   1.527   3.331   1.015  0.8481  2.0308 -0.2909
 3364TIP3   OH231506   4.687   5.763   3.739 -0.5994  0.0876 -0.0283
 3364TIP3    H131507   4.756   5.698   3.726 -1.3730 -0.8685  0.5948
 3364TIP3    H231508   4.606   5.717   3.716 -1.0851  1.0499 -0.2882
 3365TIP3   OH231509   1.285   1.774   0.607 -0.0527  0.6547  0.3221
 3365TIP3    H131510   1.368   1.774   0.654 -0.0262  0.8542  0.2769
 3365TIP3    H231511   1.302   1.722   0.528 -0.3847 -0.5310  1.0321
 3366TIP3   OH231512   0.182   4.782  11.951  0.0915 -0.0173 -0.4729
 3366TIP3    H131513   0.177   4.747  12.040  1.0283 -1.0243 -0.8097
 3366TIP3    H231514   0.275   4.782  11.931 -0.2492 -1.5458 -2.1447
 3367TIP3   OH231515   4.694   4.046  16.071 -0.2544 -0.2993  0.2523
 3367TIP3    H131516   4.654   4.122  16.112  0.5372  0.0950  0.3008
 3367TIP3    H231517   4.724   4.076  15.986 -1.7881 -1.0930 -0.5824
 3368TIP3   OH231518   4.760   0.777   4.938 -0.4548  0.5321 -0.2670
 3368TIP3    H131519   4.837   0.806   4.987 -1.2739  0.7243  0.9546
 3368TIP3    H231520   4.743   0.848   4.877  0.7829  0.1463 -1.0741
 3369TIP3   OH231521   6.575   4.495   0.880  0.6798 -0.4255 -0.0126
 3369TIP3    H131522   6.664   4.529   0.879  0.4379  0.2225  0.0958
 3369TIP3    H231523   6.543   4.515   0.968  0.1937 -0.0256 -0.2764
 3370TIP3   OH231524   5.860   6.121  13.627 -0.2794  0.3335 -0.0834
 3370TIP3    H131525   5.803   6.044  13.625  0.1515 -0.0726  1.6845
 3370TIP3    H231526   5.850   6.162  13.541 -2.4504 -0.2896 -0.1481
 3371TIP3   OH231527   6.210   2.614  14.406 -0.2016 -0.0327  0.1844
 3371TIP3    H131528   6.146   2.560  14.361  0.7306 -1.8606  1.0002
 3371TIP3    H231529   6.166   2.643  14.485 -1.9654  3.4656 -1.9453
 3372TIP3   OH231530   2.483   2.293  16.237 -0.7733 -0.2694 -0.2859
 3372TIP3    H131531   2.390   2.307  16.216 -0.6466  0.3818 -0.4266
 3372TIP3    H231532   2.489   2.199  16.255 -1.3536 -0.4124 -0.8043
 3373TIP3   OH231533   4.185   3.256   4.344 -0.2782 -0.3936 -0.3511
 3373TIP3    H131534   4.117   3.322   4.332  0.2681  0.6846  2.1255
 3373TIP3    H231535   4.262   3.293   4.302 -0.1956  0.2038  0.3086
 3374TIP3   OH231536   3.749   5.959   2.673  0.1019 -0.2354  0.0829
 3374TIP3    H131537   3.809   5.989   2.605  2.2729 -2.9577  0.7527
 3374TIP3    H231538   3.781   6.000   2.753  0.6956 -1.1785  0.3327
 3375TIP3   OH231539   4.762   0.948  11.027  0.2206 -0.0425 -0.0348
 3375TIP3    H131540   4.730   1.037  11.014 -1.0996 -0.5738 -0.4854
 3375TIP3    H231541   4.804   0.950  11.113 -0.0254  0.9362  0.0704
 3376TIP3   OH231542   5.084   5.019   3.397 -0.3970 -0.3793 -0.5309
 3376TIP3    H131543   5.050   5.069   3.471  0.3284  0.6157 -0.8695
 3376TIP3    H231544   5.006   4.983   3.355 -0.8507 -0.4165  0.3321
 3377TIP3   OH231545   3.237   3.020   2.693  0.3913 -0.2050  0.6854
 3377TIP3    H131546   3.277   3.087   2.639 -0.0369  0.2407  0.9080
 3377TIP3    H231547   3.304   2.997   2.757  0.6117 -0.1407  0.4777
 3378TIP3   OH231548   6.574   2.254   3.412 -0.0983  0.0137 -0.4648
 3378TIP3    H131549   6.620   2.206   3.343 -2.9669 -0.1807 -2.3307
 3378TIP3    H231550   6.622   2.234   3.492  0.7610 -3.2899 -1.7456
 3379TIP3   OH231551   6.134   6.073  11.685  0.7094  0.0766 -0.0448
 3379TIP3    H131552   6.046   6.066  11.721  0.2876  1.2684 -0.7936
 3379TIP3    H231553   6.175   5.989  11.703 -0.3895 -0.2743  0.8311
 3380TIP3   OH231554   1.552   5.917   2.854  0.3849  0.3832  0.8465
 3380TIP3    H131555   1.509   5.861   2.789  0.8386 -0.0893  0.9588
 3380TIP3    H231556   1.602   5.980   2.802 -1.2358  1.5858  0.6814
 3381TIP3   OH231557   6.032   5.165  14.799  0.1647  0.1890 -0.2535
 3381TIP3    H131558   5.962   5.203  14.851  0.3934  1.0153 -0.5246
 3381TIP3    H231559   6.020   5.203  14.711 -1.7187 -3.0927 -1.4858
 3382TIP3   OH231560   1.037   0.710  15.601 -0.2773  0.1592 -0.0250
 3382TIP3    H131561   1.002   0.648  15.536  1.0638 -1.5101  0.8152
 3382TIP3    H231562   1.063   0.655  15.675  1.3010  1.7021  0.5883
 3383TIP3   OH231563   0.808   0.901  13.892 -0.0634  0.4093 -0.0952
 3383TIP3    H131564   0.752   0.944  13.956 -2.1408 -0.0233 -1.5748
 3383TIP3    H231565   0.749   0.845  13.842  1.9558 -1.2803 -0.6747
 3384TIP3   OH231566   4.255   5.073   4.919 -0.1884  0.0568  0.7502
 3384TIP3    H131567   4.341   5.048   4.953 -0.0226  1.0001  1.0439
 3384TIP3    H231568   4.197   5.069   4.995 -0.3647 -0.3773  0.5951
 3385TIP3   OH231569   3.452   2.257  12.294 -0.0749 -0.0920 -0.2989
 3385TIP3    H131570   3.534   2.295  12.326  0.0890  0.5194 -1.4124
 3385TIP3    H231571   3.446   2.173  12.339  1.1588 -0.1450 -0.1925
 3386TIP3   OH231572   3.899   5.073   1.196 -0.2860  0.4552 -1.0597
 3386TIP3    H131573   3.879   5.147   1.138  0.5976  2.4847  1.1385
 3386TIP3    H231574   3.886   5.108   1.284 -0.2153 -2.1462  0.0235
 3387TIP3   OH231575   1.324   0.696   3.289  0.6722  0.5723 -0.0258
 3387TIP3    H131576   1.410   0.657   3.304 -0.5487 -2.0344  0.4666
 3387TIP3    H231577   1.298   0.664   3.202 -0.5941 -0.2288  0.6321
 3388TIP3   OH231578   3.746   5.410  11.903  0.4297  0.0994 -0.2847
 3388TIP3    H131579   3.663   5.368  11.925  0.0580  0.7705 -0.3731
 3388TIP3    H231580   3.752   5.401  11.808  1.2437 -1.3610 -0.1085
 3389TIP3   OH231581   0.469   6.047  14.518  0.5159  0.2395  0.0193
 3389TIP3    H131582   0.503   5.986  14.452  0.1272 -0.1213  0.1520
 3389TIP3    H231583   0.435   5.991  14.588  1.7324  0.6352  0.9417
 3390TIP3   OH231584   3.498   3.566  13.005  0.0054  0.7037 -0.5466
 3390TIP3    H131585   3.452   3.562  13.089 -1.1059 -2.3125 -1.2486
 3390TIP3    H231586   3.466   3.646  12.964 -1.9681  0.4485  0.4621
 3391TIP3   OH231587   0.178   1.160   1.791  0.3834 -0.7325  0.1225
 3391TIP3    H131588   0.104   1.165   1.731  1.0764 -2.3837 -0.9273
 3391TIP3    H231589   0.235   1.233   1.765 -0.5901  0.1808  0.5477
 3392TIP3   OH231590   0.760   4.240  12.685 -0.0373  0.4947 -0.0535
 3392TIP3    H131591   0.794   4.248  12.774  0.0975 -0.2009 -0.0441
 3392TIP3    H231592   0.719   4.154  12.682  0.0517  0.4718 -0.6954
 3393TIP3   OH231593   1.981   4.536  13.217 -0.0758  0.5755 -0.4410
 3393TIP3    H131594   2.022   4.622  13.205 -0.9562  1.3767  1.8623
 3393TIP3    H231595   2.054   4.476  13.232  0.4443  1.2865 -0.1133
 3394TIP3   OH231596   4.650   2.188  10.987  0.0439 -0.3240  0.7961
 3394TIP3    H131597   4.558   2.188  10.958  0.3710  2.7616 -0.3913
 3394TIP3    H231598   4.690   2.114  10.940 -0.8892  0.8090 -1.8691
 3395TIP3   OH231599   4.324   1.284   2.726 -0.2302  0.3343 -0.3191
 3395TIP3    H131600   4.258   1.310   2.662  0.7610  0.0122 -1.4818
 3395TIP3    H231601   4.285   1.307   2.811 -0.7361  2.6250 -1.1244
 3396TIP3   OH231602   4.130   2.741   0.588  0.3933 -0.0091  0.1403
 3396TIP3    H131603   4.035   2.746   0.595  0.3578  1.4528 -0.9006
 3396TIP3    H231604   4.149   2.649   0.572 -0.9529 -0.1278 -0.8470
 3397TIP3   OH231605   0.495   6.078  15.235 -0.0002 -0.3291 -0.0424
 3397TIP3    H131606   0.573   6.132  15.245  0.1578 -0.3558 -1.0572
 3397TIP3    H231607   0.460   6.102  15.149  0.5794 -2.5079 -0.9212
 3398TIP3   OH231608   3.453   0.071   0.938  0.3812 -0.3882 -0.1063
 3398TIP3    H131609   3.511   0.081   0.861  0.0319 -0.8499 -0.4367
 3398TIP3    H231610   3.435  -0.023   0.941  1.8525 -0.6468  1.6171
 3399TIP3   OH231611   5.714   1.829  11.787 -1.2164  0.1705  0.1221
 3399TIP3    H131612   5.652   1.791  11.849 -2.2961  1.5325 -0.0935
 3399TIP3    H231613   5.729   1.918  11.820 -1.4551  0.7548 -1.3051
 3400TIP3   OH231614   5.767   2.151   5.523 -0.1956  0.0878  0.1670
 3400TIP3    H131615   5.685   2.106   5.543  0.7966 -1.3042  1.2332
 3400TIP3    H231616   5.808   2.162   5.609  1.3150 -0.3947 -0.4878
 3401TIP3   OH231617   2.382   6.480   5.710  0.0352  0.3333  0.0504
 3401TIP3    H131618   2.416   6.479   5.621  1.8011 -0.5350  0.7113
 3401TIP3    H231619   2.457   6.457   5.765 -0.9697  1.1009  1.7860
 3402TIP3   OH231620   2.957   3.011  13.602 -0.1576  0.0037  1.0179
 3402TIP3    H131621   2.956   3.055  13.688 -0.3957  1.9781  0.0409
 3402TIP3    H231622   2.902   2.934  13.614 -0.3805  0.3861  2.5896
 3403TIP3   OH231623   2.500   2.030  16.292  0.2749 -0.5093 -0.0469
 3403TIP3    H131624   2.439   1.966  16.327  2.4913 -1.6464  1.8859
 3403TIP3    H231625   2.585   2.005  16.328  1.7818  1.4696 -2.0419
 3404TIP3   OH231626   5.863   1.706  13.657 -0.2940 -0.4635 -0.0916
 3404TIP3    H131627   5.809   1.658  13.594 -0.2284 -0.3707 -0.2221
 3404TIP3    H231628   5.843   1.798  13.639 -2.2429 -0.4856  1.7803
 3405TIP3   OH231629   2.393   3.192   3.869  0.7191 -0.0094  0.1096
 3405TIP3    H131630   2.437   3.113   3.836 -1.5011 -0.2314 -2.5549
 3405TIP3    H231631   2.452   3.264   3.848  0.9198 -0.5570 -1.2266
 3406TIP3   OH231632   4.192   5.767  17.134 -0.0862 -0.2195 -0.0255
 3406TIP3    H131633   4.155   5.788  17.220  0.9602  0.8869  0.1591
 3406TIP3    H231634   4.116   5.750  17.078 -0.8277  0.9535  0.6237
 3407TIP3   OH231635   6.305   1.758   5.317 -0.1923  0.1837 -0.1623
 3407TIP3    H131636   6.304   1.756   5.221  0.4528 -0.0994 -0.1651
 3407TIP3    H231637   6.288   1.850   5.339  0.9938  0.5151 -0.5782
 3408TIP3   OH231638   0.522   0.876   2.287  0.1184 -0.0893 -0.1883
 3408TIP3    H131639   0.444   0.888   2.341  0.9667  2.4804  0.5170
 3408TIP3    H231640   0.593   0.916   2.337  1.9065 -2.2191 -0.8936
 3409TIP3   OH231641   2.534   5.300   5.942 -0.3148  0.2264  0.3406
 3409TIP3    H131642   2.514   5.286   6.034 -1.0894  0.7695  0.2537
 3409TIP3    H231643   2.545   5.211   5.906  0.7524  0.0341  1.1111
 3410TIP3   OH231644   1.688   0.258   2.975 -0.1627 -0.1435 -0.4298
 3410TIP3    H131645   1.651   0.330   3.025  0.3268 -0.0557 -0.1952
 3410TIP3    H231646   1.737   0.301   2.904 -0.3556 -0.2563 -0.6328
 3411TIP3   OH231647   3.842   1.677   1.009 -0.2251  0.1145  0.2818
 3411TIP3    H131648   3.850   1.620   0.933 -1.3876  0.6512 -0.2542
 3411TIP3    H231649   3.817   1.619   1.081 -0.9511 -0.1078 -0.1583
 3412TIP3   OH231650   5.328   4.410  17.225 -0.0075 -0.0545 -0.7455
 3412TIP3    H131651   5.245   4.392  17.179 -0.1056  2.3274 -1.5554
 3412TIP3    H231652   5.337   4.505  17.222  0.6543  0.0696  3.0797
 3413TIP3   OH231653   4.353   1.852   1.909 -0.0717 -0.0843 -0.6310
 3413TIP3    H131654   4.264   1.883   1.891 -0.3800  0.3639  1.5249
 3413TIP3    H231655   4.404   1.932   1.923 -0.5347 -0.3852  3.4182
 3414TIP3   OH231656   3.802   5.484   4.300 -0.0062 -0.8038 -0.3110
 3414TIP3    H131657   3.741   5.419   4.336  0.0153 -0.4828  0.3117
 3414TIP3    H231658   3.768   5.568   4.331  0.2545 -0.5562 -0.6979
 3415TIP3   OH231659   0.010   3.121  10.955  0.1797 -0.3759 -0.7653
 3415TIP3    H131660  -0.045   3.130  10.877  0.2614 -0.2214 -0.8051
 3415TIP3    H231661   0.091   3.167  10.932  0.6895 -1.4028 -1.0545
 3416TIP3   OH231662   1.676   3.270   2.871 -0.5324 -0.1501  0.4068
 3416TIP3    H131663   1.667   3.325   2.949 -0.1620  0.1888  0.2139
 3416TIP3    H231664   1.738   3.317   2.816  0.1989 -1.0203  0.4677
 3417TIP3   OH231665   6.165   0.693   2.134 -0.2368  0.4355 -0.1260
 3417TIP3    H131666   6.136   0.757   2.199 -0.6258 -0.6854  0.8139
 3417TIP3    H231667   6.129   0.725   2.051 -2.1517  0.3694  0.6478
 3418TIP3   OH231668   0.066   3.626   4.171  0.4935 -0.4310  0.5954
 3418TIP3    H131669   0.027   3.566   4.108  0.5728  2.3411 -2.2276
 3418TIP3    H231670   0.158   3.602   4.174  0.1509 -1.7318  1.0627
 3419TIP3   OH231671   1.509   1.222   3.323  0.2294 -1.2515 -0.5137
 3419TIP3    H131672   1.597   1.191   3.300  0.7888 -0.9004  1.0381
 3419TIP3    H231673   1.466   1.145   3.361  1.2117 -0.4988  2.2507
 3420TIP3   OH231674   1.967   1.369  12.107  0.5955  0.0553 -0.5610
 3420TIP3    H131675   2.044   1.400  12.059  0.0997 -0.6877 -1.8710
 3420TIP3    H231676   1.963   1.424  12.185  2.9374 -0.4521 -0.0515
 3421TIP3   OH231677   3.808   1.464  15.731 -0.6798 -0.2631 -0.0408
 3421TIP3    H131678   3.854   1.436  15.652 -1.3200 -1.3703 -0.0297
 3421TIP3    H231679   3.716   1.468  15.706 -0.8240 -0.0829  0.5032
 3422TIP3   OH231680   2.447   0.391  11.731  0.1409 -0.1444  0.6042
 3422TIP3    H131681   2.498   0.328  11.782  1.6073 -1.3639 -2.2254
 3422TIP3    H231682   2.484   0.385  11.643 -1.2681  3.0056 -0.2633
 3423TIP3   OH231683   3.026   0.433   1.148 -0.6758 -0.0414  0.1002
 3423TIP3    H131684   3.049   0.464   1.060 -0.8382  3.5590  1.2515
 3423TIP3    H231685   3.109   0.434   1.196 -0.7740 -1.0276  0.3089
 3424TIP3   OH231686   3.161   5.429   2.870  0.0220  0.0767  0.1661
 3424TIP3    H131687   3.255   5.440   2.856  0.0077  1.3995  0.9684
 3424TIP3    H231688   3.122   5.441   2.784  0.5059  0.6354  0.0215
 3425TIP3   OH231689   3.580   6.094   5.507  0.2152  0.1914 -0.2102
 3425TIP3    H131690   3.674   6.107   5.496  0.2310  0.1920 -0.0831
 3425TIP3    H231691   3.550   6.058   5.423  0.4530 -0.4700 -0.0134
 3426TIP3   OH231692   2.831   5.521  12.946 -0.1045 -0.2042 -0.4156
 3426TIP3    H131693   2.876   5.577  12.883  0.2613 -0.1987 -0.1558
 3426TIP3    H231694   2.902   5.475  12.991 -0.1873  1.6079  1.7044
 3427TIP3   OH231695   4.707   0.291   0.661 -0.1942 -0.5233 -0.4240
 3427TIP3    H131696   4.746   0.378   0.671 -1.2889  0.3653 -3.3993
 3427TIP3    H231697   4.619   0.308   0.628 -1.4817 -2.6931  1.7173
 3428TIP3   OH231698   2.193   6.143  12.053  0.4348  0.2358  0.0011
 3428TIP3    H131699   2.253   6.102  11.991 -0.1003  0.3265 -0.5816
 3428TIP3    H231700   2.148   6.070  12.095  2.0321  0.1006  1.5488
 3429TIP3   OH231701   2.987   4.469   5.270  0.2107 -0.1901  0.4180
 3429TIP3    H131702   2.972   4.542   5.330 -2.6263 -0.7113  0.3951
 3429TIP3    H231703   3.043   4.506   5.202  0.0578  1.5558  1.2152
 3430TIP3   OH231704   6.578   2.204   5.118 -0.1417  0.6021  0.2854
 3430TIP3    H131705   6.525   2.141   5.167 -1.0592  1.2810  0.1753
 3430TIP3    H231706   6.643   2.235   5.181  1.4176 -1.7432 -0.1380
 3431TIP3   OH231707   5.756   0.819  14.690 -0.2367 -0.3559 -0.1050
 3431TIP3    H131708   5.661   0.803  14.686 -0.3244  0.1631 -0.1623
 3431TIP3    H231709   5.792   0.760  14.624 -0.6801  0.5491 -1.1934
 3432TIP3   OH231710   0.322   4.747   0.072 -0.1651  0.0344 -0.1177
 3432TIP3    H131711   0.402   4.748   0.125  0.4542  1.4358 -1.0759
 3432TIP3    H231712   0.258   4.795   0.125 -0.0752 -0.1349  0.1509
 3433TIP3   OH231713   1.926   2.416  15.387  0.0842 -0.3131  0.3298
 3433TIP3    H131714   1.894   2.333  15.422 -0.5329 -0.4692 -0.6107
 3433TIP3    H231715   1.916   2.477  15.460  1.8373 -1.3497  1.4982
 3434TIP3   OH231716   1.849   3.424   2.682  0.4030  0.3916 -0.2254
 3434TIP3    H131717   1.891   3.461   2.603  1.5858 -0.0116  0.2070
 3434TIP3    H231718   1.759   3.457   2.678  1.0446  2.1993 -0.5930
 3435TIP3   OH231719   0.809   4.140  12.962  0.5433 -0.2160  0.1718
 3435TIP3    H131720   0.890   4.176  12.999 -0.0235 -0.4600  1.6987
 3435TIP3    H231721   0.817   4.046  12.974  0.2239 -0.2758 -0.0744
 3436TIP3   OH231722   6.312   2.784  13.675 -0.5486  0.1673  0.2858
 3436TIP3    H131723   6.393   2.831  13.657 -0.3555 -0.1289  0.3769
 3436TIP3    H231724   6.250   2.852  13.701 -0.1066  0.3060  0.9774
 3437TIP3   OH231725   1.094   0.132  14.509  0.3153 -0.1368 -0.1389
 3437TIP3    H131726   1.067   0.124  14.418 -2.0979  0.5984  0.4438
 3437TIP3    H231727   1.090   0.043  14.544  0.5526 -0.3199 -0.5887
 3438TIP3   OH231728   0.819   1.620   1.692 -0.0587 -0.1025  0.2350
 3438TIP3    H131729   0.872   1.561   1.745 -1.3487 -0.0686  1.5981
 3438TIP3    H231730   0.872   1.636   1.613  1.4647 -0.9112  1.0731
 3439TIP3   OH231731   4.984   1.041  16.644  0.4353  0.5759 -0.0151
 3439TIP3    H131732   5.058   1.102  16.647 -0.8752  2.1296  2.1352
 3439TIP3    H231733   4.936   1.065  16.565  1.1291  0.8625 -0.3540
 3440TIP3   OH231734   0.721   6.717  15.125 -0.1400  0.2600 -0.0301
 3440TIP3    H131735   0.772   6.745  15.049 -0.9911  2.7661  0.2690
 3440TIP3    H231736   0.631   6.740  15.103 -0.4713  0.4446  1.4966
 3441TIP3   OH231737   0.735   2.990  14.120  0.1296 -0.5735  0.6308
 3441TIP3    H131738   0.639   2.993  14.118  0.1841  2.9546 -0.2089
 3441TIP3    H231739   0.760   2.972  14.029  0.2602  1.5928  0.2050
 3442TIP3   OH231740   1.473   3.143   5.367 -0.1136  0.8206 -0.4539
 3442TIP3    H131741   1.488   3.219   5.311  0.1055  1.0128 -0.1375
 3442TIP3    H231742   1.559   3.124   5.406 -0.5629  1.5634  0.9114
 3443TIP3   OH231743   3.338   1.954   0.242 -0.1317  0.1061  0.4834
 3443TIP3    H131744   3.261   2.002   0.272 -0.1314  0.9433 -0.7889
 3443TIP3    H231745   3.306   1.896   0.173  0.2916  0.1105  0.2777
 3444TIP3   OH231746   5.303   2.499   1.147  0.0930  0.4609  0.3974
 3444TIP3    H131747   5.208   2.504   1.150 -0.0388 -1.7757  1.0231
 3444TIP3    H231748   5.323   2.480   1.055 -0.2997 -2.2830  0.8354
 3445TIP3   OH231749   2.961   2.233  12.821 -0.3282 -0.2893 -0.2312
 3445TIP3    H131750   2.937   2.233  12.728  0.0158  1.0307 -0.3268
 3445TIP3    H231751   3.049   2.269  12.823 -1.5268  2.7825  0.8687
 3446TIP3   OH231752   6.282   3.077  12.073  0.0445  0.0436  0.2570
 3446TIP3    H131753   6.206   3.021  12.060 -0.6074  1.2514 -1.3851
 3446TIP3    H231754   6.336   3.063  11.994 -0.0711  1.5924 -0.1129
 3447TIP3   OH231755   4.950   2.746   0.873 -0.2142 -0.1290  1.1081
 3447TIP3    H131756   4.867   2.770   0.914 -0.1979 -0.7740  1.5199
 3447TIP3    H231757   4.927   2.723   0.783 -0.1574  1.9520  0.5385
 3448TIP3   OH231758   6.296   0.821   3.317  0.2094 -0.1270  0.0248
 3448TIP3    H131759   6.351   0.833   3.239 -0.2597  0.3348 -0.2367
 3448TIP3    H231760   6.304   0.903   3.365  0.3509 -0.3429  0.3747
 3449TIP3   OH231761   1.191   2.289   3.727  0.2339  0.1089  0.5521
 3449TIP3    H131762   1.190   2.195   3.748  1.0203 -0.0441 -0.0173
 3449TIP3    H231763   1.270   2.322   3.770  1.8637 -0.2143 -2.0453
 3450TIP3   OH231764   4.906   3.584  13.551  0.0795  0.2080 -0.4424
 3450TIP3    H131765   4.834   3.635  13.588 -0.7751 -0.3444 -1.3086
 3450TIP3    H231766   4.877   3.562  13.463  1.1246 -0.4056 -0.6442
 3451TIP3   OH231767   6.754   0.792   5.263  0.6443  0.1711  0.3014
 3451TIP3    H131768   6.759   0.732   5.338 -0.6119  0.7882  0.8976
 3451TIP3    H231769   6.819   0.859   5.282  0.0562  0.5362  1.0365
 3452TIP3   OH231770   0.762   0.297   5.381 -0.3718  0.5024  0.2146
 3452TIP3    H131771   0.806   0.298   5.466 -0.6256  1.0967  0.3460
 3452TIP3    H231772   0.791   0.378   5.338 -1.2416  0.8460  0.2591
 3453TIP3   OH231773   3.277   4.658  12.928 -0.1846  0.7022  0.8047
 3453TIP3    H131774   3.294   4.564  12.935  2.0865  1.1146  1.3280
 3453TIP3    H231775   3.305   4.681  12.840 -2.2963  0.6210  0.0782
 3454TIP3   OH231776   4.891   1.275   0.834  0.0414 -0.5196  0.1282
 3454TIP3    H131777   4.983   1.264   0.812 -0.1352 -0.2248 -0.7728
 3454TIP3    H231778   4.847   1.199   0.795 -0.2977  0.0898 -0.6800
 3455TIP3   OH231779   1.032   4.926  17.132 -0.1080 -0.0218  0.2590
 3455TIP3    H131780   1.005   4.988  17.064 -0.8841  3.1292  3.3500
 3455TIP3    H231781   0.953   4.877  17.153  0.0802 -0.8476 -0.8799
 3456TIP3   OH231782   6.459   3.164   5.732 -0.1464  0.0334  0.5979
 3456TIP3    H131783   6.372   3.201   5.746 -1.3591 -1.5017 -2.4650
 3456TIP3    H231784   6.449   3.070   5.746  1.1268 -0.0985  0.6978
 3457TIP3   OH231785   4.856   5.247  14.276  0.0767 -0.1939  0.2392
 3457TIP3    H131786   4.770   5.261  14.235 -1.2278 -3.0360  1.8399
 3457TIP3    H231787   4.905   5.199  14.210 -0.0983  0.0952 -0.1039
 3458TIP3   OH231788   3.793   1.631  14.498 -0.0179  0.6527  0.5266
 3458TIP3    H131789   3.768   1.569  14.567  0.2612  0.1940  0.2157
 3458TIP3    H231790   3.810   1.576  14.422 -3.3838  1.3724 -0.8354
 3459TIP3   OH231791   0.701   3.446  14.435 -0.5554  0.0009 -0.3166
 3459TIP3    H131792   0.744   3.494  14.364  0.8455 -0.9564 -0.1422
 3459TIP3    H231793   0.697   3.356  14.403  0.7171 -0.5659  1.1015
 3460TIP3   OH231794   2.384   0.520   3.414  0.1015 -0.1373 -0.2964
 3460TIP3    H131795   2.294   0.536   3.387  0.3994  0.2032 -1.0928
 3460TIP3    H231796   2.389   0.555   3.503 -0.5228 -0.0638 -0.2896
 3461TIP3   OH231797   1.624   3.133  11.989 -0.0845  0.3220 -0.2289
 3461TIP3    H131798   1.711   3.096  12.006 -0.6197 -0.2165  1.4185
 3461TIP3    H231799   1.637   3.227  11.997  0.7256  0.3556 -1.7989
 3462TIP3   OH231800   5.634   1.427   4.256  0.4185  0.0045  0.2473
 3462TIP3    H131801   5.704   1.394   4.313  1.6784 -1.3005 -1.9736
 3462TIP3    H231802   5.588   1.348   4.227 -1.6685  0.8141  1.2060
 3463TIP3   OH231803   2.589   0.716  12.639 -0.0105  0.1513  0.2016
 3463TIP3    H131804   2.536   0.710  12.719 -0.0263  0.9219  0.2509
 3463TIP3    H231805   2.525   0.718  12.568  0.0077 -0.7025  0.1532
 3464TIP3   OH231806   5.518   4.322   4.774 -0.3990  0.5997 -0.0293
 3464TIP3    H131807   5.570   4.376   4.832 -0.3669 -0.0931  0.5954
 3464TIP3    H231808   5.501   4.377   4.697 -0.0600  1.3537  0.4389
 3465TIP3   OH231809   2.323   2.292   5.096  0.5153  0.5434  0.1136
 3465TIP3    H131810   2.261   2.365   5.090  1.5297  1.3562 -0.9837
 3465TIP3    H231811   2.269   2.213   5.089 -0.5452  1.2006  0.7490
 3466TIP3   OH231812   1.118   0.383   5.917  0.1336  0.5517  0.4300
 3466TIP3    H131813   1.067   0.416   5.990  0.0115  1.5641 -0.1080
 3466TIP3    H231814   1.058   0.386   5.842  0.2338 -0.5266  0.2899
 3467TIP3   OH231815   6.316   2.614  16.046  0.1655  0.0540 -0.0593
 3467TIP3    H131816   6.232   2.574  16.069 -1.1027  1.2912 -2.3143
 3467TIP3    H231817   6.327   2.684  16.111 -1.4245  1.0011 -0.7666
 3468TIP3   OH231818   4.447   6.325   5.110 -0.8103  0.8414 -0.1165
 3468TIP3    H131819   4.439   6.419   5.095  0.9461  1.0109  0.0149
 3468TIP3    H231820   4.486   6.317   5.197  0.9360  0.0349 -0.9488
 3469TIP3   OH231821   3.839   1.829   4.452  0.3417 -0.2743 -0.5769
 3469TIP3    H131822   3.857   1.819   4.359  1.8898  0.1429 -0.3286
 3469TIP3    H231823   3.856   1.742   4.490  4.0324  0.6247 -0.0074
 3470TIP3   OH231824   5.759   3.787   2.129  0.0065  0.1817  0.2678
 3470TIP3    H131825   5.732   3.878   2.120  0.3893  0.3235  0.5537
 3470TIP3    H231826   5.736   3.764   2.220 -0.2277 -0.0545  0.1516
 3471TIP3   OH231827   2.875   3.129  15.492 -0.4402  0.1240 -0.0459
 3471TIP3    H131828   2.866   3.117  15.397 -0.0731 -0.4814 -0.0085
 3471TIP3    H231829   2.968   3.111  15.510 -0.0895  2.1105  0.1651
 3472TIP3   OH231830   4.978   4.485   1.258  0.0094  0.0124 -0.3121
 3472TIP3    H131831   4.989   4.579   1.243  0.8426 -0.1010 -0.4316
 3472TIP3    H231832   4.936   4.479   1.344  0.8375  0.4645  0.1346
 3473TIP3   OH231833   2.461   0.028  11.799 -0.4115  0.1660  0.2774
 3473TIP3    H131834   2.479   0.119  11.823  0.1711  0.1101  0.0613
 3473TIP3    H231835   2.401   0.034  11.725  0.6524  0.3972 -0.5722
 3474TIP3   OH231836   2.828   1.702   0.607  0.3676  0.4400  0.5702
 3474TIP3    H131837   2.881   1.664   0.536  2.4744  2.1474  1.1801
 3474TIP3    H231838   2.817   1.793   0.581  0.0062  0.7445  1.7922
 3475TIP3   OH231839   1.692   4.283  16.164  0.1545 -0.1880  0.7876
 3475TIP3    H131840   1.650   4.328  16.238 -1.1948  0.9314 -0.6241
 3475TIP3    H231841   1.769   4.336  16.144 -0.0532  0.0893  0.7230
 3476TIP3   OH231842   4.208   2.741   5.117 -0.1067 -0.5879  0.0116
 3476TIP3    H131843   4.209   2.648   5.140  3.1118 -1.2391 -2.3376
 3476TIP3    H231844   4.237   2.744   5.026 -0.0775  2.7140  0.0505
 3477TIP3   OH231845   0.887   4.750  16.627  0.0510 -0.4706  0.4859
 3477TIP3    H131846   0.821   4.720  16.564  1.7146 -0.4296 -1.3332
 3477TIP3    H231847   0.872   4.844  16.636  0.6035 -0.2403 -0.8684
 3478TIP3   OH231848   6.058   0.737  16.093  0.1391  0.1356  0.3045
 3478TIP3    H131849   6.036   0.790  16.169  0.3270 -0.7811  1.0048
 3478TIP3    H231850   5.978   0.689  16.073  0.8268 -1.5612  1.5149
 3479TIP3   OH231851   0.166   5.258  16.580 -0.2812  0.2844  0.2167
 3479TIP3    H131852   0.253   5.280  16.549 -0.2076  1.3027  1.1378
 3479TIP3    H231853   0.107   5.282  16.509  0.1983 -0.6244 -0.5005
 3480TIP3   OH231854   6.574   5.138   2.116 -0.1785  0.0639  0.2970
 3480TIP3    H131855   6.566   5.108   2.207  1.6691  0.2653  0.5417
 3480TIP3    H231856   6.668   5.143   2.100 -0.4605  1.7775 -1.0595
 3481TIP3   OH231857   5.994   5.047  17.061  0.2876  0.0765 -0.7024
 3481TIP3    H131858   6.035   5.110  17.120  3.4487 -1.7302 -0.8666
 3481TIP3    H231859   5.910   5.026  17.102  0.9122  1.4683  1.3374
 3482TIP3   OH231860   4.197   1.188  11.528 -0.7606 -0.0569  0.4398
 3482TIP3    H131861   4.266   1.200  11.464 -0.2284 -0.1508  0.9869
 3482TIP3    H231862   4.211   1.100  11.563 -1.0868 -0.0364  0.6293
 3483TIP3   OH231863   4.901   4.769   0.679 -0.0589 -0.4164 -0.4868
 3483TIP3    H131864   4.859   4.686   0.658  0.0038 -0.3029 -1.0529
 3483TIP3    H231865   4.978   4.745   0.730 -1.6123 -0.5626  1.9424
 3484TIP3   OH231866   4.610   3.889  15.128 -0.1620 -0.3463  0.6240
 3484TIP3    H131867   4.519   3.904  15.102 -0.3468 -3.4631 -0.8737
 3484TIP3    H231868   4.638   3.970  15.170 -3.2807  1.0526  0.1015
 3485TIP3   OH231869   2.262   1.237  15.250  0.2091  0.3023  0.3898
 3485TIP3    H131870   2.175   1.275  15.256 -0.2091 -0.4966 -0.3993
 3485TIP3    H231871   2.246   1.144  15.232  1.2101 -0.0542  1.2806
 3486TIP3   OH231872   5.520   5.388   4.172 -0.6899 -0.2092  0.1519
 3486TIP3    H131873   5.588   5.401   4.239 -0.1431 -1.3919 -0.1658
 3486TIP3    H231874   5.531   5.461   4.112  0.7424 -0.7430 -0.2569
 3487TIP3   OH231875   0.098   2.455   4.463  0.1081  0.0356 -0.2152
 3487TIP3    H131876   0.094   2.401   4.384 -0.6127  0.0963 -0.2254
 3487TIP3    H231877   0.178   2.507   4.452  0.2026 -0.2118 -0.7390
 3488TIP3   OH231878   1.684   3.148  14.098 -0.1056 -0.0458 -0.6692
 3488TIP3    H131879   1.669   3.166  14.005  0.8154 -0.8126 -0.9800
 3488TIP3    H231880   1.757   3.085  14.099 -0.0891 -0.0289  0.5721
 3489TIP3   OH231881   0.153   4.489  12.072  0.1242  0.3943  0.1385
 3489TIP3    H131882   0.165   4.420  12.138  0.2320  1.0213  0.7795
 3489TIP3    H231883   0.070   4.530  12.095  0.3556  0.8740  0.1338
 3490TIP3   OH231884   4.465   5.472   2.527  0.0437 -0.4552  0.3855
 3490TIP3    H131885   4.409   5.395   2.525  1.9522 -1.8599 -1.1541
 3490TIP3    H231886   4.528   5.454   2.597  0.8197 -0.5626 -0.3310
 3491TIP3   OH231887   5.488   6.120  15.923  0.4287 -0.2931 -0.3619
 3491TIP3    H131888   5.474   6.070  16.004  0.5237  0.1944 -0.0398
 3491TIP3    H231889   5.438   6.072  15.857 -1.9863  0.8525  0.5593
 3492TIP3   OH231890   4.163   6.060  11.123  0.1834 -0.0047 -0.0566
 3492TIP3    H131891   4.150   5.986  11.064  2.2349  0.9738 -1.8210
 3492TIP3    H231892   4.223   6.028  11.190  2.7366  0.6289 -1.9973
 3493TIP3   OH231893   5.829   4.116   5.011 -0.1077  0.2088 -0.1958
 3493TIP3    H131894   5.747   4.067   5.008 -0.0423  0.1365 -0.8906
 3493TIP3    H231895   5.855   4.125   4.919  0.7620  0.0666  0.0301
 3494TIP3   OH231896   0.470   3.747  14.027 -0.3404 -0.2313 -0.3139
 3494TIP3    H131897   0.480   3.735  13.933  0.3416  0.2672 -0.3096
 3494TIP3    H231898   0.435   3.836  14.037 -0.2858 -0.2339 -0.0924
 3495TIP3   OH231899   1.477   1.456   5.350 -0.2121  0.1514 -0.0361
 3495TIP3    H131900   1.422   1.535   5.352 -1.7829 -0.9175 -0.1449
 3495TIP3    H231901   1.428   1.394   5.296  0.9436 -0.9720  0.1775
 3496TIP3   OH231902   5.765   4.396   5.167  0.0889  0.0626  0.0471
 3496TIP3    H131903   5.723   4.392   5.254 -0.3051 -1.1615 -0.1876
 3496TIP3    H231904   5.783   4.305   5.145  0.3724  0.3819 -1.0778
 3497TIP3   OH231905   0.817   4.360  14.140  0.6470 -0.1728 -0.2110
 3497TIP3    H131906   0.815   4.437  14.083  2.5681  0.2234  0.2246
 3497TIP3    H231907   0.813   4.396  14.229  0.4969 -0.6361 -0.0302
 3498TIP3   OH231908   0.890   0.197   6.355  0.1232  0.4070 -0.0721
 3498TIP3    H131909   0.860   0.258   6.288 -1.7832  0.2465  0.6006
 3498TIP3    H231910   0.928   0.252   6.424  3.5776  0.5029 -1.9110
 3499TIP3   OH231911   6.052   3.612   1.257 -0.2505 -0.1710 -0.4666
 3499TIP3    H131912   6.112   3.675   1.217  0.9638 -1.7664 -1.2340
 3499TIP3    H231913   5.971   3.622   1.209 -0.1686  0.9992 -0.3856
 3500TIP3   OH231914   2.713   1.128  15.053 -0.4950 -0.4879  0.0783
 3500TIP3    H131915   2.670   1.178  15.122  1.1422  0.9100  0.1043
 3500TIP3    H231916   2.650   1.129  14.980  0.5835  3.9772 -0.9175
 3501TIP3   OH231917   2.935   5.696   2.181 -0.3108 -0.0097 -1.0391
 3501TIP3    H131918   2.852   5.722   2.141 -0.9395 -0.3794 -0.0035
 3501TIP3    H231919   2.919   5.703   2.276  0.8860  0.0633 -0.8350
 3502TIP3   OH231920   1.405   2.843  16.518 -0.1358 -0.0192 -0.1196
 3502TIP3    H131921   1.318   2.882  16.534  0.2528  0.7209  0.2208
 3502TIP3    H231922   1.445   2.838  16.605  0.1370 -0.4316 -0.2671
 3503TIP3   OH231923   0.655   1.484  10.818 -0.1074 -0.3492  0.6273
 3503TIP3    H131924   0.633   1.537  10.740  0.0063 -1.0963  0.0833
 3503TIP3    H231925   0.687   1.548  10.882  0.3176  0.2082 -0.1305
 3504TIP3   OH231926   3.586   4.561   0.714  0.1147 -0.2183 -0.1934
 3504TIP3    H131927   3.555   4.642   0.674  1.4712  0.8651  0.8716
 3504TIP3    H231928   3.510   4.527   0.762  0.1926  1.7419  1.3751
 3505TIP3   OH231929   4.024   4.769   5.042  0.6031 -0.8080 -0.0599
 3505TIP3    H131930   4.031   4.805   4.954 -1.3630 -0.1719  0.0172
 3505TIP3    H231931   4.057   4.680   5.035  0.1509 -0.8671 -1.5102
 3506TIP3   OH231932   2.952   4.893   6.058 -0.3143  0.1252 -0.4047
 3506TIP3    H131933   2.970   4.826   6.124 -0.9964  1.1510  0.8539
 3506TIP3    H231934   3.039   4.926   6.034 -0.1126  0.7192  1.0487
 3507TIP3   OH231935   6.326   6.231   5.483 -0.2951  0.3855 -0.3798
 3507TIP3    H131936   6.278   6.234   5.400 -0.4307  1.0972 -0.2835
 3507TIP3    H231937   6.292   6.305   5.533 -0.0255  0.1197  0.2096
 3508TIP3   OH231938   5.693   4.038  17.079 -0.3943 -0.0418  0.0673
 3508TIP3    H131939   5.618   4.098  17.079 -1.0533 -0.8610 -0.1944
 3508TIP3    H231940   5.769   4.096  17.089 -1.1272  0.7060  1.5632
 3509TIP3   OH231941   5.175   1.099   3.128  0.4451 -0.0113  0.4454
 3509TIP3    H131942   5.151   1.190   3.142 -2.0342 -0.5577  0.0500
 3509TIP3    H231943   5.223   1.099   3.045 -0.0023  0.8589  0.1826
 3510TIP3   OH231944   4.586   1.664   3.381 -0.3922  0.3287 -0.2803
 3510TIP3    H131945   4.635   1.745   3.375 -0.0977  0.1008 -0.9847
 3510TIP3    H231946   4.542   1.655   3.296  1.3604 -1.3735 -1.0524
 3511TIP3   OH231947   4.025   5.278  13.262 -0.6286  0.9906 -0.2491
 3511TIP3    H131948   4.006   5.208  13.324 -0.3302  1.3629  0.2683
 3511TIP3    H231949   3.940   5.312  13.236 -0.7536  0.8136 -0.0670
 3512TIP3   OH231950   5.639   3.872  16.821 -0.5912 -0.2672 -0.0557
 3512TIP3    H131951   5.662   3.781  16.840  0.9571  0.2598  0.6654
 3512TIP3    H231952   5.651   3.918  16.905 -2.0719  0.4629 -0.2343
 3513TIP3   OH231953   1.884   1.502  10.652 -0.0058  0.1223 -0.3495
 3513TIP3    H131954   1.898   1.411  10.625 -0.5102 -0.2402  0.5948
 3513TIP3    H231955   1.928   1.509  10.737  1.0684  1.0950 -0.9621
 3514TIP3   OH231956   4.460   0.585  15.669 -0.2479  0.1141 -0.3071
 3514TIP3    H131957   4.443   0.573  15.575 -0.3157  2.1466 -0.5628
 3514TIP3    H231958   4.420   0.508  15.710 -0.7851 -0.4638 -1.8711
 3515TIP3   OH231959   5.179   6.597   5.843 -0.4223 -0.6912 -0.4655
 3515TIP3    H131960   5.112   6.568   5.905 -0.6341  1.4955  0.4047
 3515TIP3    H231961   5.250   6.629   5.898  0.7582 -1.7130 -1.3842
 3516TIP3   OH231962   1.845   3.037   0.768 -0.1606  0.6908  0.4712
 3516TIP3    H131963   1.840   3.101   0.697 -1.0505 -0.4675 -0.5380
 3516TIP3    H231964   1.786   2.967   0.741  0.1494 -0.1674  1.9605
 3517TIP3   OH231965   2.593   6.568  13.917 -0.1207 -0.3785  0.1809
 3517TIP3    H131966   2.631   6.622  13.987  2.4901 -0.9050 -0.7766
 3517TIP3    H231967   2.651   6.492  13.911 -0.8190 -0.7617 -1.9910
 3518TIP3   OH231968   5.459   4.506   3.755  0.2558 -0.0367  0.1003
 3518TIP3    H131969   5.539   4.551   3.782  1.3824 -1.2960 -1.0637
 3518TIP3    H231970   5.398   4.577   3.732  1.4843  0.9214 -0.2594
 3519TIP3   OH231971   2.108   0.564  14.241  0.4141 -0.2820  0.0028
 3519TIP3    H131972   2.078   0.501  14.176  1.7620 -1.9508  0.9532
 3519TIP3    H231973   2.034   0.623  14.254 -0.1286 -0.4019 -2.4400
 3520TIP3   OH231974   4.121   1.646  15.877 -0.2287  0.5878  0.5339
 3520TIP3    H131975   4.182   1.720  15.872  0.4332 -0.0064 -0.2432
 3520TIP3    H231976   4.154   1.583  15.813 -1.3772  0.0503  0.4628
 3521TIP3   OH231977   3.699   1.190   4.391 -0.4713  0.0107  0.0135
 3521TIP3    H131978   3.645   1.124   4.348 -0.2834 -1.1431  1.4896
 3521TIP3    H231979   3.649   1.271   4.385 -1.9701 -0.8696  0.6337
 3522TIP3   OH231980   4.456   0.435  16.783  0.6826  0.0325  0.3760
 3522TIP3    H131981   4.419   0.347  16.772 -1.7295  0.9180  0.9498
 3522TIP3    H231982   4.422   0.464  16.868  0.9485  1.7488 -0.0855
 3523TIP3   OH231983   2.421   0.020   0.621 -0.0033  0.6020 -0.5016
 3523TIP3    H131984   2.412  -0.075   0.621 -2.7550  0.8186  0.4132
 3523TIP3    H231985   2.512   0.036   0.644  0.4410 -1.8022 -0.5189
 3524TIP3   OH231986   5.168   4.705  16.640  0.3517 -0.1457  0.1094
 3524TIP3    H131987   5.192   4.724  16.731 -0.4528  0.8065  0.1404
 3524TIP3    H231988   5.228   4.758  16.587  2.8005 -2.9591 -0.0211
 3525TIP3   OH231989   5.336   2.961   4.718 -0.0440  0.0880  0.5706
 3525TIP3    H131990   5.242   2.977   4.730 -0.3330  0.0394 -1.4751
 3525TIP3    H231991   5.347   2.950   4.623  1.5001 -3.1737  1.0487
 3526TIP3   OH231992   6.439   1.017   2.494  0.3032  0.3274  0.5550
 3526TIP3    H131993   6.443   1.111   2.477  2.2490  0.3135  0.9123
 3526TIP3    H231994   6.432   0.977   2.407 -1.4982  0.8208  0.4462
 3527TIP3   OH231995   6.313   6.370   1.566  0.2040 -0.3632  0.3896
 3527TIP3    H131996   6.277   6.316   1.636  0.0321 -0.5250  0.1764
 3527TIP3    H231997   6.283   6.458   1.585 -1.5004 -0.7137 -0.5667
 3528TIP3   OH231998   5.337   3.588  12.568 -0.0060  0.1538 -0.2336
 3528TIP3    H131999   5.258   3.635  12.541  0.5271 -0.3873 -2.8520
 3528TIP3    H232000   5.404   3.656  12.575  0.0566  0.2006 -1.1671
 3529TIP3   OH232001   5.545   4.885  16.895 -0.3493 -0.1658 -0.4729
 3529TIP3    H132002   5.488   4.940  16.950  0.8269  1.1898 -0.5728
 3529TIP3    H232003   5.550   4.802  16.941  0.1364  0.7520  1.1909
 3530TIP3   OH232004   5.076   2.150  15.660  0.5953  0.3806 -0.4723
 3530TIP3    H132005   5.018   2.225  15.649  0.5767  0.1796 -1.8399
 3530TIP3    H232006   5.071   2.129  15.753 -2.5042 -0.4139 -0.7460
 3531TIP3   OH232007   5.407   2.230  15.700 -0.9423 -0.1133  0.0303
 3531TIP3    H132008   5.361   2.235  15.617 -0.0163 -0.2259 -0.4936
 3531TIP3    H232009   5.483   2.174  15.683 -0.8727 -0.3378  1.0079
 3532TIP3   OH232010   2.078   5.117   4.210  0.2711 -0.2322 -0.1877
 3532TIP3    H132011   2.127   5.113   4.127 -1.7244 -2.6436 -1.3251
 3532TIP3    H232012   1.996   5.160   4.187 -0.5931 -1.5694  0.3922
 3533TIP3   OH232013   1.896   5.361  12.839 -0.3458 -0.0674  0.3205
 3533TIP3    H132014   1.821   5.403  12.881  0.0251  0.4443  0.4747
 3533TIP3    H232015   1.970   5.382  12.896  0.1030  0.3544 -0.4171
 3534TIP3   OH232016   4.525   0.266  16.436 -0.1576  0.3199  0.1690
 3534TIP3    H132017   4.526   0.173  16.461  1.7560 -0.2839 -2.0226
 3534TIP3    H232018   4.450   0.274  16.377  0.3734 -0.0897 -0.5629
 3535TIP3   OH232019   5.261   6.602  11.919  0.1695  0.1608 -0.3206
 3535TIP3    H132020   5.336   6.654  11.947 -0.0544 -0.7449  2.0616
 3535TIP3    H232021   5.192   6.667  11.904  0.8093  0.8224 -0.4286
 3536TIP3   OH232022   2.383   2.762   1.017 -0.1036  0.0510  0.2838
 3536TIP3    H132023   2.381   2.667   1.004  2.4153  0.0614 -0.5644
 3536TIP3    H232024   2.301   2.793   0.980 -0.1126 -1.6200 -1.1822
 3537TIP3   OH232025   6.433   3.040   3.664 -0.2630 -0.0696  0.1875
 3537TIP3    H132026   6.380   2.967   3.633 -0.1303 -0.0438 -0.1031
 3537TIP3    H232027   6.513   3.037   3.611  0.2446 -0.4061  0.9581
 3538TIP3   OH232028   2.979   2.672  12.666  0.0382 -0.5249 -0.8988
 3538TIP3    H132029   2.948   2.635  12.749  0.5636  1.3445  0.1564
 3538TIP3    H232030   2.899   2.699  12.621 -0.0994  0.9565  0.2091
 3539TIP3   OH232031   4.393   3.987  13.003 -0.2090 -0.1451  0.4984
 3539TIP3    H132032   4.347   4.053  13.056  0.8337  0.4304  0.6890
 3539TIP3    H232033   4.349   3.905  13.025 -2.3970  0.6533 -0.7288
 3540TIP3   OH232034   2.853   5.085  16.244  0.4832  0.0126  0.3210
 3540TIP3    H132035   2.818   5.069  16.332 -2.4090 -1.5225 -1.0126
 3540TIP3    H232036   2.879   4.998  16.213  2.4984  0.6953  0.0317
 3541TIP3   OH232037   2.512   4.441  14.412  0.6725 -0.0538 -0.4665
 3541TIP3    H132038   2.451   4.509  14.441 -0.9014 -1.2125 -1.0015
 3541TIP3    H232039   2.544   4.402  14.493  0.3877  0.2740 -0.1914
 3542TIP3   OH232040   1.360   4.564   4.430 -0.4957 -0.0491 -0.3701
 3542TIP3    H132041   1.382   4.486   4.482 -2.9601 -0.7068 -0.2765
 3542TIP3    H232042   1.353   4.635   4.495 -0.2900 -0.1701 -0.2133
 3543TIP3   OH232043   2.862   6.366   6.127  0.6296 -0.3733 -0.1646
 3543TIP3    H132044   2.935   6.374   6.188  1.4853 -0.3731 -1.1635
 3543TIP3    H232045   2.786   6.349   6.182  1.4151 -0.5718  0.8748
 3544TIP3   OH232046   0.554   2.667   2.731  0.3279 -0.8087 -0.2806
 3544TIP3    H132047   0.489   2.624   2.677 -0.4549 -0.6345  0.5087
 3544TIP3    H232048   0.625   2.603   2.741  0.6135 -0.7270 -1.7482
 3545TIP3   OH232049   6.584   1.251  16.342  0.4173  0.1006  0.3050
 3545TIP3    H132050   6.573   1.194  16.418  2.8700  0.9324  1.3559
 3545TIP3    H232051   6.633   1.199  16.279  0.7604  0.2875  0.4087
 3546TIP3   OH232052   5.346   3.736   0.217  0.3914  0.2486  0.0703
 3546TIP3    H132053   5.341   3.819   0.169  1.2777  0.7364  0.8173
 3546TIP3    H232054   5.269   3.738   0.275  1.1060  1.1420  1.0122
 3547TIP3   OH232055   1.517   1.167  14.525 -0.4524 -0.7746  0.2457
 3547TIP3    H132056   1.523   1.149  14.619 -0.8392 -0.0305  0.4275
 3547TIP3    H232057   1.581   1.236  14.509 -1.3035  0.0379  0.2341
 3548TIP3   OH232058   5.940   3.849   1.939 -0.7710 -0.5469  0.5659
 3548TIP3    H132059   5.875   3.827   2.006 -2.3779 -0.9118 -1.0891
 3548TIP3    H232060   5.978   3.764   1.915 -1.7106 -0.6782 -0.4953
 3549TIP3   OH232061   1.450   3.880   5.265 -0.1590  0.2473  0.4745
 3549TIP3    H132062   1.376   3.846   5.315 -0.6124  0.0559 -0.3282
 3549TIP3    H232063   1.517   3.812   5.273  0.0299  0.5372  1.4165
 3550TIP3   OH232064   6.626   1.465   1.556  0.3613  0.4993  0.2369
 3550TIP3    H132065   6.706   1.515   1.571 -0.7689  1.9264  1.6458
 3550TIP3    H232066   6.579   1.514   1.488  1.6658 -1.5548 -2.2814
 3551TIP3   OH232067   0.501   6.383   1.747 -0.7396 -0.3709  0.1992
 3551TIP3    H132068   0.492   6.363   1.840 -0.5702 -1.5788 -0.0336
 3551TIP3    H232069   0.439   6.325   1.703  0.7685 -1.4241 -0.6049
 3552TIP3   OH232070   4.999   5.126  12.286  1.0482 -0.4558  0.5819
 3552TIP3    H132071   4.914   5.115  12.243  0.6178  0.3564  1.2096
 3552TIP3    H232072   4.979   5.171  12.368  1.8886 -1.7696  1.5404
 3553TIP3   OH232073   2.158   0.795  11.337  0.5694 -0.3269  0.0990
 3553TIP3    H132074   2.066   0.815  11.318  0.3912 -1.1533  0.0775
 3553TIP3    H232075   2.204   0.815  11.255  0.5315  0.8089  0.3398
 3554TIP3   OH232076   2.392   1.008  16.689  0.1042 -0.5845  0.3448
 3554TIP3    H132077   2.336   1.028  16.764  2.5378  1.7447  1.6154
 3554TIP3    H232078   2.450   0.938  16.720  0.8054  0.0605  0.5078
 3555TIP3   OH232079   6.612   4.592   3.397 -0.1524 -0.7177  0.1983
 3555TIP3    H132080   6.559   4.666   3.425  0.7921  0.1824 -0.3443
 3555TIP3    H232081   6.652   4.559   3.478  3.0053  2.2070 -0.0229
 3556TIP3   OH232082   2.585   5.444  14.376 -0.7247 -0.4845 -0.2250
 3556TIP3    H132083   2.602   5.373  14.315 -0.9968 -1.1705  0.4973
 3556TIP3    H232084   2.615   5.411  14.461 -0.6440  0.3435  0.0733
 3557TIP3   OH232085   0.657   1.810   1.859  0.0320 -0.5545  0.0453
 3557TIP3    H132086   0.728   1.763   1.816 -0.3433 -1.3816  0.3227
 3557TIP3    H232087   0.666   1.788   1.952 -1.2148 -1.5141 -0.0475
 3558TIP3   OH232088   1.245   1.379   2.425  0.1551 -0.6687  0.4261
 3558TIP3    H132089   1.188   1.454   2.406  0.2905 -0.4988  0.6938
 3558TIP3    H232090   1.207   1.339   2.503  1.0873  0.1467  1.3183
 3559TIP3   OH232091   4.023   5.303   1.357 -0.4716  0.3280 -0.1096
 3559TIP3    H132092   4.101   5.335   1.311  1.2540  0.6951  2.9026
 3559TIP3    H232093   4.040   5.210   1.372 -1.3896  0.0232 -0.8893
 3560TIP3   OH232094   5.630   2.327  12.614  0.2600 -0.4161  0.0228
 3560TIP3    H132095   5.589   2.376  12.543  1.2460 -0.3009 -0.4774
 3560TIP3    H232096   5.662   2.247  12.573  3.0607  0.7570 -0.2328
 3561TIP3   OH232097   4.994   6.724   3.017 -0.1957  0.1185  0.0413
 3561TIP3    H132098   5.042   6.653   3.059  0.6346  0.2206 -0.7073
 3561TIP3    H232099   4.905   6.717   3.050  0.0471 -0.8612  0.4800
 3562TIP3   OH232100   4.108   4.846  14.818  0.0251  0.0999 -0.2029
 3562TIP3    H132101   4.102   4.804  14.904  1.9529  2.9629  1.4236
 3562TIP3    H232102   4.021   4.885  14.805 -0.1829 -0.0777  0.6030
 3563TIP3   OH232103   0.025   0.029  11.747 -0.2908  0.6937 -0.1204
 3563TIP3    H132104   0.040  -0.066  11.739 -0.2261  0.5777  1.3763
 3563TIP3    H232105  -0.069   0.037  11.760 -0.3562  0.8696 -0.6954
 3564TIP3   OH232106   0.425   5.536   4.484 -0.1526 -0.1617 -0.0640
 3564TIP3    H132107   0.429   5.443   4.505 -0.0036 -0.3736 -1.0463
 3564TIP3    H232108   0.408   5.578   4.569  1.1139 -0.9682  0.6026
 3565TIP3   OH232109   3.168   0.963  15.799 -0.1877  0.4024  0.0012
 3565TIP3    H132110   3.155   0.882  15.749  0.1757 -0.7052  1.6552
 3565TIP3    H232111   3.263   0.968  15.810 -0.3100  0.3335  1.0754
 3566TIP3   OH232112   4.800   1.968  15.947  0.1807  0.0966 -0.4379
 3566TIP3    H132113   4.894   1.986  15.941  0.0306  0.9358 -0.3880
 3566TIP3    H232114   4.795   1.875  15.969  1.0088  0.1583  0.0686
 3567TIP3   OH232115   0.826   3.106  12.564 -0.4489  0.4088 -0.3549
 3567TIP3    H132116   0.773   3.186  12.559 -2.6319 -0.9950 -0.3754
 3567TIP3    H232117   0.882   3.111  12.486  0.0012  2.2915  0.0606
 3568TIP3   OH232118   6.259   5.946  17.056  0.6293  0.6475 -0.3565
 3568TIP3    H132119   6.243   6.000  16.978  0.2458 -0.5304 -1.1123
 3568TIP3    H232120   6.190   5.971  17.117  0.1049  0.5985 -0.9242
 3569TIP3   OH232121   0.954   5.690   5.181  0.0006  0.0637 -0.5806
 3569TIP3    H132122   0.945   5.650   5.095 -0.0130  0.4209 -0.7501
 3569TIP3    H232123   1.014   5.763   5.167  0.1549  0.0008 -0.2439
 3570TIP3   OH232124   2.477   4.369   2.924  0.8871 -0.4820 -0.5458
 3570TIP3    H132125   2.492   4.293   2.981 -0.5122 -0.8267 -0.6209
 3570TIP3    H232126   2.520   4.442   2.970 -1.5594 -0.4408  1.7979
 3571TIP3   OH232127   4.552   5.052  12.935 -0.3060 -0.1950 -0.4230
 3571TIP3    H132128   4.559   5.084  13.025  0.8772 -0.1680 -0.5059
 3571TIP3    H232129   4.643   5.045  12.906 -0.6814 -0.1792 -1.6263
 3572TIP3   OH232130   5.578   6.727  15.256  0.4549  0.0513  0.7826
 3572TIP3    H132131   5.585   6.799  15.318 -0.7889 -0.3325  1.3773
 3572TIP3    H232132   5.492   6.688  15.273 -0.2152  0.3794 -1.6540
 3573TIP3   OH232133   4.060   1.559   4.947  0.8644  0.1763 -0.2186
 3573TIP3    H132134   4.027   1.477   4.984 -0.8275  0.9178 -0.0384
 3573TIP3    H232135   4.035   1.555   4.855  2.3435 -0.2888 -0.6073
 3574TIP3   OH232136   6.171   3.400   0.452 -0.3358 -0.1629 -0.0901
 3574TIP3    H132137   6.228   3.476   0.443  0.9673 -1.1981 -0.6741
 3574TIP3    H232138   6.203   3.356   0.531 -0.0620 -0.9650 -0.6464
 3575TIP3   OH232139   3.091   2.679   4.511 -0.3830 -0.4246  0.1424
 3575TIP3    H132140   3.103   2.644   4.600 -0.5071 -1.1537 -0.1256
 3575TIP3    H232141   3.088   2.774   4.523  4.1996 -0.2355  0.4013
 3576TIP3   OH232142   6.749   3.014   1.932 -0.6832  0.3099  0.1201
 3576TIP3    H132143   6.756   3.048   2.022 -0.0310 -0.3471  0.3220
 3576TIP3    H232144   6.821   3.054   1.885 -0.7875  0.3431 -0.0121
 3577TIP3   OH232145   6.344   2.946  13.407  0.3778  0.4388 -0.1029
 3577TIP3    H132146   6.424   2.950  13.459 -0.8310  0.9301  1.7463
 3577TIP3    H232147   6.302   2.864  13.432 -0.4273  0.8842  0.0311
 3578TIP3   OH232148   2.238   5.548  12.375 -0.4909 -0.5722  0.9218
 3578TIP3    H132149   2.192   5.630  12.396  0.0570 -0.1956  0.6362
 3578TIP3    H232150   2.193   5.482  12.428  0.0448  0.1656  2.3277
 3579TIP3   OH232151   2.562   0.303  14.663 -0.0495 -0.2588  0.4380
 3579TIP3    H132152   2.565   0.370  14.731 -0.8538 -0.3329  0.5498
 3579TIP3    H232153   2.596   0.347  14.585  0.8661 -0.1723  0.8809
 3580TIP3   OH232154   5.872   3.248   4.450  0.4926 -0.4721 -0.2119
 3580TIP3    H132155   5.901   3.164   4.486 -0.3946 -0.5091  0.4681
 3580TIP3    H232156   5.834   3.225   4.365 -1.9060 -1.1380  0.9852
 3581TIP3   OH232157   1.510   2.269  14.959  0.3755 -0.7071  0.5239
 3581TIP3    H132158   1.592   2.309  14.931  0.6047 -0.0477  2.0813
 3581TIP3    H232159   1.447   2.294  14.891  1.5139 -1.4362 -0.8078
 3582TIP3   OH232160   6.588   1.482  16.705  0.0631 -0.3956 -0.4991
 3582TIP3    H132161   6.619   1.568  16.733  1.8573 -0.4103 -2.3570
 3582TIP3    H232162   6.538   1.499  16.625 -0.1145 -1.0142 -0.5258
 3583TIP3   OH232163   3.442   0.276  15.518  0.3361 -0.6605 -0.4409
 3583TIP3    H132164   3.483   0.262  15.433  1.1824 -1.5412  0.0979
 3583TIP3    H232165   3.472   0.363  15.545 -0.3619 -0.1490 -1.2619
 3584TIP3   OH232166   3.427   5.191   3.191 -0.7575  0.1517  0.1872
 3584TIP3    H132167   3.518   5.168   3.173 -0.4854 -0.7206  2.5393
 3584TIP3    H232168   3.382   5.175   3.109  1.2622  0.9441 -1.1351
 3585TIP3   OH232169   5.640   4.986  15.016 -0.2423 -0.5455  0.3695
 3585TIP3    H132170   5.593   4.925  15.073 -2.5657 -1.0120 -1.9114
 3585TIP3    H232171   5.671   4.931  14.944 -0.6974  0.6308 -0.7417
 3586TIP3   OH232172   2.152   6.207  13.129 -0.7466 -0.5975 -0.7557
 3586TIP3    H132173   2.069   6.221  13.084 -0.9336  1.6147  0.1979
 3586TIP3    H232174   2.140   6.247  13.215  1.1523 -0.6180 -0.4573
 3587TIP3   OH232175   3.961   3.977  15.112 -0.3037 -0.6746 -0.1956
 3587TIP3    H132176   3.870   4.008  15.110 -0.5111 -1.0248  2.3747
 3587TIP3    H232177   4.005   4.031  15.046 -1.5404  2.3589  1.3295
 3588TIP3   OH232178   1.887   5.237  13.185 -0.4786  0.5490 -0.4734
 3588TIP3    H132179   1.930   5.312  13.226  0.6000  0.0127 -0.6193
 3588TIP3    H232180   1.833   5.199  13.255 -0.2654  0.8800 -0.1279
 3589TIP3   OH232181   2.391   3.083   1.438 -0.0491 -0.2196 -0.6047
 3589TIP3    H132182   2.308   3.119   1.407  0.9603  2.0731 -0.7481
 3589TIP3    H232183   2.407   3.007   1.381 -3.2552 -2.2435  1.0654
 3590TIP3   OH232184   3.304   5.884   5.678 -0.0211  0.5295  0.9851
 3590TIP3    H132185   3.395   5.878   5.706  0.3531  0.3319 -0.2629
 3590TIP3    H232186   3.307   5.920   5.590 -1.2335  1.7109  1.4118
 3591TIP3   OH232187   6.374   6.704   5.138 -0.5384 -0.2562  0.4291
 3591TIP3    H132188   6.441   6.676   5.201  0.8145  0.0101 -0.8551
 3591TIP3    H232189   6.331   6.778   5.180 -0.0413 -0.4441  1.2842
 3592TIP3   OH232190   1.458   6.109  13.037 -0.1465 -0.0120  0.6732
 3592TIP3    H132191   1.495   6.106  13.125 -0.3133 -2.1582  0.7060
 3592TIP3    H232192   1.373   6.152  13.047 -0.3181 -0.5657  1.6137
 3593TIP3   OH232193   6.693   2.328   4.238  0.3068 -0.4716 -0.6493
 3593TIP3    H132194   6.773   2.312   4.188  0.9442 -1.1971  0.5792
 3593TIP3    H232195   6.689   2.423   4.247  1.3607 -0.4533 -0.2165
 3594TIP3   OH232196   4.503   6.653   5.298  0.2535 -0.7849  0.1038
 3594TIP3    H132197   4.500   6.627   5.206 -0.1531  1.3817 -0.5284
 3594TIP3    H232198   4.486   6.573   5.347  0.8136 -2.0214 -1.7038
 3595TIP3   OH232199   0.674   1.887   1.003  0.1101  0.3121  1.0461
 3595TIP3    H132200   0.630   1.849   1.079 -1.0480 -0.9152 -0.1997
 3595TIP3    H232201   0.728   1.817   0.968  0.5304  0.8221  0.6531
 3596TIP3   OH232202   2.783   4.740   4.300  0.3104 -0.3217 -0.5459
 3596TIP3    H132203   2.763   4.773   4.213  2.6147  1.1140 -0.5735
 3596TIP3    H232204   2.877   4.754   4.310 -0.0309  0.1607  2.4223
 3597TIP3   OH232205   3.933   4.261   5.447  0.2291 -0.4676 -0.1985
 3597TIP3    H132206   3.908   4.189   5.389  1.1852  0.4785 -1.8401
 3597TIP3    H232207   3.850   4.303   5.469 -0.1633 -0.8929 -0.8222
 3598TIP3   OH232208   3.536   5.643   3.505  0.5774  0.4858 -0.8482
 3598TIP3    H132209   3.614   5.638   3.559 -0.8477 -1.4125  1.1531
 3598TIP3    H232210   3.551   5.579   3.435  0.2620 -0.9572  0.3601
 3599TIP3   OH232211   2.141   4.218  15.766  0.7532 -0.4683 -0.2614
 3599TIP3    H132212   2.098   4.237  15.850  1.6675 -0.2212  0.1565
 3599TIP3    H232213   2.187   4.299  15.744  1.7904 -1.0420 -0.2289
 3600TIP3   OH232214   3.376   3.931   1.635 -0.2019  0.3356  0.8140
 3600TIP3    H132215   3.313   3.962   1.570 -0.0781 -1.5738 -0.2350
 3600TIP3    H232216   3.323   3.889   1.702 -0.1890  0.6086  0.9974
 3601TIP3   OH232217   0.648   1.539   3.314  0.4941 -0.2249  0.2973
 3601TIP3    H132218   0.667   1.592   3.391 -0.1375 -1.5723  1.4188
 3601TIP3    H232219   0.656   1.599   3.240 -0.2529  1.4264  1.5247
 3602TIP3   OH232220   1.372   4.157   4.385  0.2524 -0.3952  1.1820
 3602TIP3    H132221   1.367   4.127   4.294  3.3621 -1.2161  1.2225
 3602TIP3    H232222   1.287   4.134   4.423 -0.9221 -0.4747 -1.3636
 3603TIP3   OH232223   4.043   3.780   5.237  0.3792  0.0643 -0.2009
 3603TIP3    H132224   4.016   3.765   5.327  1.5774  0.8318  0.3047
 3603TIP3    H232225   4.111   3.715   5.221 -0.6052 -0.7991 -0.9265
 3604TIP3   OH232226   3.530   6.522   5.641 -0.3203  0.0369  0.3062
 3604TIP3    H132227   3.619   6.556   5.631 -0.6933  1.1714  0.8005
 3604TIP3    H232228   3.501   6.504   5.551  0.1710  0.2695  0.1021
 3605TIP3   OH232229   3.974   6.370  13.406 -0.1681 -0.5529 -0.2192
 3605TIP3    H132230   3.951   6.396  13.495  1.4098 -0.1727  0.1066
 3605TIP3    H232231   4.069   6.386  13.401 -0.0834 -1.4550 -1.6637
 3606TIP3   OH232232   2.868   5.015  11.649  0.1302 -0.0613  0.0967
 3606TIP3    H132233   2.869   4.921  11.667  1.5597 -0.2886 -1.0966
 3606TIP3    H232234   2.832   5.022  11.560  2.2165  0.3385 -0.7424
 3607TIP3   OH232235   1.209   3.780   2.640 -0.5359  0.1097 -0.4235
 3607TIP3    H132236   1.206   3.872   2.667  0.5269 -0.0426  0.2588
 3607TIP3    H232237   1.128   3.742   2.675 -0.8787  0.7300 -0.5307
 3608TIP3   OH232238   1.238   5.133  16.842 -0.2069 -0.1265 -0.3144
 3608TIP3    H132239   1.171   5.177  16.893  0.3612  0.9229 -0.4530
 3608TIP3    H232240   1.200   5.048  16.819 -1.0067 -0.0262  0.6258
 3609TIP3   OH232241   1.977   4.442  14.081 -0.3630  0.8040 -0.2021
 3609TIP3    H132242   1.983   4.431  14.176  0.6915 -0.5195 -0.4091
 3609TIP3    H232243   1.978   4.537  14.068  1.0983  0.9803  1.0277
 3610TIP3   OH232244   5.302   5.895  14.547 -0.1067 -0.2710 -0.2179
 3610TIP3    H132245   5.282   5.969  14.604  0.5403  0.0661 -0.4266
 3610TIP3    H232246   5.276   5.924  14.459  1.9203  0.4403 -0.6056
 3611TIP3   OH232247   2.646   3.213   1.085 -0.2853  0.0976  0.0106
 3611TIP3    H132248   2.734   3.234   1.115 -0.8320  0.0565  1.6837
 3611TIP3    H232249   2.590   3.279   1.125 -1.0005  0.2348 -1.1881
 3612TIP3   OH232250   3.961   3.868  15.984  0.3686  0.3131 -0.4592
 3612TIP3    H132251   3.978   3.797  16.045  1.2957  2.8584  2.3512
 3612TIP3    H232252   3.972   3.948  16.035 -4.7685  2.4893 -2.3688
 3613TIP3   OH232253   6.011   1.170  16.017  0.1594  0.4666 -0.0342
 3613TIP3    H132254   6.085   1.231  16.018 -0.7153  1.6791 -3.4477
 3613TIP3    H232255   6.045   1.091  15.976  0.5980 -0.4745  2.0692
 3614TIP3   OH232256   2.288   3.948  14.390  0.0517  0.1232 -0.1639
 3614TIP3    H132257   2.373   3.913  14.365 -0.9153 -0.5135 -2.6829
 3614TIP3    H232258   2.301   4.043  14.393  0.7995  0.0339 -0.6514
 3615TIP3   OH232259   5.301   5.135  16.668  0.0314 -0.2568 -0.0713
 3615TIP3    H132260   5.314   5.040  16.666  0.0221 -0.2600  0.0090
 3615TIP3    H232261   5.214   5.148  16.630 -0.8526 -0.4441  1.8141
 3616TIP3   OH232262   5.209   0.989  11.347  0.1092  0.3949  0.0766
 3616TIP3    H132263   5.141   0.924  11.330 -0.5570  0.9485  0.5914
 3616TIP3    H232264   5.208   0.999  11.442  1.4837 -0.2019  0.1642
 3617TIP3   OH232265   3.287   4.318   5.254 -0.9010 -0.7221 -0.0979
 3617TIP3    H132266   3.354   4.329   5.186 -0.8853 -0.5783 -0.0595
 3617TIP3    H232267   3.216   4.270   5.211 -1.6843  0.9735 -0.7324
 3618TIP3   OH232268   0.758   4.644  14.977  0.3378 -0.3751  0.1462
 3618TIP3    H132269   0.735   4.585  15.049  0.1108  2.3219  2.3943
 3618TIP3    H232270   0.674   4.675  14.944  0.4755  0.9928  1.0211
 3619TIP3   OH232271   0.854   1.614  14.392 -0.5814 -1.0430  0.2150
 3619TIP3    H132272   0.859   1.698  14.345  2.9118 -1.0585  0.3980
 3619TIP3    H232273   0.799   1.559  14.336 -1.0117  0.6548 -1.0916
 3620TIP3   OH232274   0.230   6.628  12.383 -0.3917  0.1560 -0.2753
 3620TIP3    H132275   0.252   6.655  12.472  0.4627  1.8397 -0.9813
 3620TIP3    H232276   0.238   6.707  12.331 -2.1006 -0.5499 -1.6551
 3621TIP3   OH232277   3.748   5.124  15.397 -0.3875  0.5538 -0.1722
 3621TIP3    H132278   3.810   5.173  15.342 -1.3446  0.9139 -0.9476
 3621TIP3    H232279   3.674   5.105  15.338  0.4010 -2.7267 -0.1741
 3622TIP3   OH232280   5.369   0.996  16.934  0.1431 -0.5598 -0.0449
 3622TIP3    H132281   5.441   0.933  16.939 -0.9921 -1.8163  0.8258
 3622TIP3    H232282   5.290   0.942  16.934 -0.8551  0.8705  0.9020
 3623TIP3   OH232283   0.709   2.692   5.631 -0.2531 -0.1092  0.4144
 3623TIP3    H132284   0.632   2.634   5.627 -0.8241  0.5826  1.2670
 3623TIP3    H232285   0.737   2.688   5.722  0.2711  0.2343  0.2684
 3624TIP3   OH232286   4.301   1.361   9.930 -0.1897  0.1062 -0.0604
 3624TIP3    H132287   4.256   1.393   9.851 -0.2642  1.0951  0.3778
 3624TIP3    H232288   4.233   1.315   9.979 -0.0099 -1.0087 -0.8436
 3625TIP3   OH232289   0.643   1.942   0.456 -0.3385 -0.6689  0.6030
 3625TIP3    H132290   0.592   2.023   0.459  0.8315  0.0676  0.8094
 3625TIP3    H232291   0.660   1.927   0.363 -1.0209 -0.9758  0.5260
 3626TIP3   OH232292   1.302   3.277  12.438 -0.8777 -0.4600  0.1538
 3626TIP3    H132293   1.284   3.351  12.495 -1.7563 -0.0881 -0.6032
 3626TIP3    H232294   1.222   3.225  12.439 -0.6797 -0.7832 -0.2452
 3627TIP3   OH232295   0.203   6.380  13.246 -0.1569 -0.0324  0.1029
 3627TIP3    H132296   0.258   6.388  13.323  1.3431 -0.6441 -0.8922
 3627TIP3    H232297   0.173   6.469  13.228  0.1276  0.2295  0.9233
 3628TIP3   OH232298   2.932   4.634  15.962  0.0433 -0.1749  0.3084
 3628TIP3    H132299   2.903   4.546  15.935  0.4537  0.0321 -0.8238
 3628TIP3    H232300   3.015   4.618  16.006  0.2809 -0.3287 -0.1854
 3629TIP3   OH232301   2.503   5.003   2.160  0.0325 -0.3743  0.2858
 3629TIP3    H132302   2.451   4.922   2.161 -1.7458  0.7583  0.4994
 3629TIP3    H232303   2.480   5.048   2.241 -1.9152  2.1592 -1.6165
 3630TIP3   OH232304   2.876   1.597  13.748 -0.8633 -0.1868  0.8380
 3630TIP3    H132305   2.857   1.645  13.667 -0.8118  0.5104  1.2347
 3630TIP3    H232306   2.942   1.650  13.792  1.8625 -2.4178 -0.3795
 3631TIP3   OH232307   3.039   5.673   4.840  0.4945  0.0947  0.6222
 3631TIP3    H132308   3.105   5.684   4.772 -1.2614 -0.2406 -1.1926
 3631TIP3    H232309   3.014   5.762   4.864 -0.5664  0.2420 -0.9087
 3632TIP3   OH232310   1.628   2.020  14.789  0.0301 -0.0514 -0.0779
 3632TIP3    H132311   1.543   2.017  14.833 -0.2691  1.7232 -0.4995
 3632TIP3    H232312   1.640   1.931  14.754 -1.3385 -0.4993  0.5497
 3633TIP3   OH232313   4.088   4.246  12.693 -0.3984  0.0660 -0.1572
 3633TIP3    H132314   4.053   4.157  12.700 -1.6317  0.4963 -0.6572
 3633TIP3    H232315   4.014   4.298  12.659  1.0296  0.8007 -2.2583
 3634TIP3   OH232316   0.908   3.819   1.589  0.0969 -0.0391 -0.3935
 3634TIP3    H132317   1.003   3.808   1.587  0.0383 -0.7118  0.3843
 3634TIP3    H232318   0.874   3.737   1.552 -0.1653  0.5397 -1.4608
 3635TIP3   OH232319   2.431   3.800   3.948 -0.0275  0.0009 -0.2445
 3635TIP3    H132320   2.472   3.855   4.014 -0.4877 -0.2105  0.2127
 3635TIP3    H232321   2.413   3.859   3.875 -1.4913  0.6726  0.6566
 3636TIP3   OH232322   1.412   0.158   3.544 -0.0572 -0.1845 -0.2740
 3636TIP3    H132323   1.481   0.135   3.482  0.1449  0.5773 -0.3407
 3636TIP3    H232324   1.459   0.193   3.620 -0.4014  1.5377 -0.8212
 3637TIP3   OH232325   2.372   4.614   4.775  0.2035  0.2219  0.6755
 3637TIP3    H132326   2.303   4.588   4.713  1.8599 -3.3988  0.2159
 3637TIP3    H232327   2.334   4.687   4.824 -2.7232  0.4309 -1.7705
 3638TIP3   OH232328   6.050   5.302  15.670 -0.4028 -0.0288 -0.4148
 3638TIP3    H132329   6.018   5.372  15.613 -0.0477  0.9760  0.5981
 3638TIP3    H232330   6.102   5.347  15.737  0.0387 -1.2838  0.1123
 3639TIP3   OH232331   2.604   5.568  13.119  0.3985  0.1707  0.0844
 3639TIP3    H132332   2.685   5.572  13.067 -1.2568  0.1585 -2.5481
 3639TIP3    H232333   2.569   5.657  13.116  1.1547  0.6175  2.7024
 3640TIP3   OH232334   2.290   5.382   4.180  0.1063 -0.0578  0.6917
 3640TIP3    H132335   2.232   5.346   4.247 -1.6004  3.6837  1.3196
 3640TIP3    H232336   2.376   5.387   4.224  0.2713 -2.6795  0.7653
 3641TIP3   OH232337   0.045   6.703   1.244  0.9598 -0.0246  0.1119
 3641TIP3    H132338   0.033   6.778   1.302  1.3083 -0.4185  0.6999
 3641TIP3    H232339   0.032   6.627   1.300  1.1716 -0.4072 -0.3546
 3642TIP3   OH232340   5.530   6.214  11.342 -0.4326 -0.7574  0.0191
 3642TIP3    H132341   5.610   6.161  11.344  1.0051  1.2367 -2.0592
 3642TIP3    H232342   5.490   6.193  11.257 -0.3404  0.7298 -0.4052
 3643TIP3   OH232343   3.811   2.415  16.415  0.0755 -0.3544 -0.0333
 3643TIP3    H132344   3.741   2.475  16.392 -1.4131 -1.6011  1.0540
 3643TIP3    H232345   3.769   2.329  16.415  1.4604 -1.0554  1.2396
 3644TIP3   OH232346   4.473   0.067   0.506 -0.7773  0.2531  0.4090
 3644TIP3    H132347   4.441   0.043   0.594 -1.2393  1.5312  0.5996
 3644TIP3    H232348   4.462   0.162   0.502  0.2834  0.3323 -0.6318
 3645TIP3   OH232349   6.663   5.017   6.589  0.1830  0.4022  0.0517
 3645TIP3    H132350   6.733   4.952   6.592  0.9810  1.2211 -0.5973
 3645TIP3    H232351   6.708   5.100   6.568 -0.5773  1.4945  2.5774
 3646TIP3   OH232352   0.964   2.396   2.314 -0.3509  0.9541  0.1425
 3646TIP3    H132353   0.931   2.312   2.349  2.0302 -0.0535  0.0736
 3646TIP3    H232354   0.983   2.377   2.222 -0.5349  1.7988 -0.0669
 3647TIP3   OH232355   4.679   5.788  14.081 -0.1349  0.2370 -0.3383
 3647TIP3    H132356   4.748   5.726  14.106  0.0736  0.7996  0.4723
 3647TIP3    H232357   4.601   5.756  14.125 -0.0592  0.4712 -0.0340
 3648TIP3   OH232358   6.771   1.130  13.087 -0.0841  0.1168  0.3259
 3648TIP3    H132359   6.693   1.166  13.129  0.4694  0.3326  1.1871
 3648TIP3    H232360   6.803   1.201  13.032 -0.8465 -0.1867 -0.5225
 3649TIP3   OH232361   6.470   6.597   3.063 -0.1614 -0.4773 -0.0991
 3649TIP3    H132362   6.446   6.595   3.155  3.4062  1.9345  0.9955
 3649TIP3    H232363   6.453   6.688   3.036  2.3550 -0.1346 -0.7026
 3650TIP3   OH232364   1.580   2.669  13.758 -0.0474  0.3768  0.3497
 3650TIP3    H132365   1.545   2.580  13.754  0.6351  0.1570 -1.5359
 3650TIP3    H232366   1.604   2.689  13.667  0.0513  2.3875  0.7978
 3651TIP3   OH232367   4.905   3.197   3.295 -0.0559 -0.1877 -0.1821
 3651TIP3    H132368   4.973   3.222   3.357  1.6955  0.1877 -2.2090
 3651TIP3    H232369   4.873   3.113   3.328  1.1454 -0.2095  0.9868
 3652TIP3   OH232370   5.633   5.555  13.733  0.6301 -0.5132  0.3383
 3652TIP3    H132371   5.582   5.503  13.672 -0.7769 -0.5426  1.5274
 3652TIP3    H232372   5.715   5.507  13.743  0.9544 -0.4124 -1.6475
 3653TIP3   OH232373   6.366   4.455  14.959 -0.3634  0.0971  0.1104
 3653TIP3    H132374   6.401   4.395  14.894 -2.7526 -2.4598  1.0881
 3653TIP3    H232375   6.340   4.532  14.908  0.6003 -0.6374 -1.5173
 3654TIP3   OH232376   3.447   0.304   3.102 -0.2792  0.0201  0.4962
 3654TIP3    H132377   3.407   0.390   3.118 -1.1002 -0.0803 -0.8856
 3654TIP3    H232378   3.372   0.246   3.085  0.3798 -0.3691 -1.2340
 3655TIP3   OH232379   3.931   2.126   4.874  0.6518 -0.3569 -0.4600
 3655TIP3    H132380   3.992   2.193   4.904 -0.7814  1.1664 -0.8460
 3655TIP3    H232381   3.986   2.052   4.849  2.0993 -0.2923  2.4041
 3656TIP3   OH232382   4.684   4.078   0.921 -0.0870 -0.4986  1.0056
 3656TIP3    H132383   4.708   4.024   0.996  0.3415 -0.2278  1.0659
 3656TIP3    H232384   4.718   4.165   0.942  3.0029 -1.1393 -0.9386
 3657TIP3   OH232385   4.265   2.302  15.056  0.2297 -0.3030 -0.0896
 3657TIP3    H132386   4.213   2.341  14.986 -0.8175 -2.8243 -0.7839
 3657TIP3    H232387   4.280   2.374  15.118 -1.0831  1.3188 -1.5969
 3658TIP3   OH232388   4.599   0.257  11.315 -0.0204 -0.4751 -0.0185
 3658TIP3    H132389   4.523   0.224  11.363 -1.0644  0.7506 -0.7964
 3658TIP3    H232390   4.674   0.216  11.359 -1.1873 -3.1025 -0.3765
 3659TIP3   OH232391   0.047   1.152   2.405  0.9148 -0.1704 -0.3291
 3659TIP3    H132392   0.141   1.163   2.387  0.4875  1.6611 -1.5526
 3659TIP3    H232393   0.018   1.237   2.436 -0.3705 -0.7095 -0.0396
 3660TIP3   OH232394   4.512   4.982  15.813 -0.2496  0.3768  0.8549
 3660TIP3    H132395   4.575   5.016  15.876  0.0608  0.3576  0.5558
 3660TIP3    H232396   4.438   5.042  15.818  0.4111  1.2706  0.1258
 3661TIP3   OH232397   1.103   3.241   0.811 -0.8673  0.0443 -0.3580
 3661TIP3    H132398   1.041   3.184   0.766 -0.7225  0.0693 -0.5947
 3661TIP3    H232399   1.178   3.246   0.751  0.7245 -2.5220  1.3229
 3662TIP3   OH232400   1.742   4.954   4.320  0.1817 -0.3118  0.2766
 3662TIP3    H132401   1.780   4.897   4.253 -0.1515  0.9833 -1.0260
 3662TIP3    H232402   1.818   5.000   4.358  0.2447 -0.0772 -0.1302
 3663TIP3   OH232403   0.241   2.453  11.417  0.5492 -0.2596  0.1688
 3663TIP3    H132404   0.323   2.433  11.371  0.6147 -1.1265  0.6494
 3663TIP3    H232405   0.245   2.401  11.497 -0.9127 -1.0882 -0.2775
 3664TIP3   OH232406   5.540   1.453  17.091  0.1617 -0.1181  0.1736
 3664TIP3    H132407   5.592   1.374  17.077  1.8216  0.6925  1.5386
 3664TIP3    H232408   5.547   1.471  17.184  0.0792  1.8088 -0.1597
 3665TIP3   OH232409   4.292   5.110  14.908  0.5888  0.0746 -0.1405
 3665TIP3    H132410   4.281   5.054  14.831  1.2662  3.1439 -2.5562
 3665TIP3    H232411   4.383   5.095  14.935  1.2119  1.0426 -1.6447
 3666TIP3   OH232412   5.913   1.884  12.631 -0.0590 -0.4296 -0.1030
 3666TIP3    H132413   5.839   1.944  12.618 -1.0955 -1.6304  0.1423
 3666TIP3    H232414   5.937   1.895  12.723  0.3671  0.2950 -0.2994
 3667TIP3   OH232415   6.735   6.538   1.903 -0.1514 -0.4949 -0.1454
 3667TIP3    H132416   6.673   6.501   1.840  0.5204 -0.7189 -0.6742
 3667TIP3    H232417   6.780   6.462   1.941  1.0522 -0.2444 -1.0489
 3668TIP3   OH232418   0.112   4.392  15.989  0.8273  0.8500  0.5873
 3668TIP3    H132419   0.178   4.330  16.022  1.1969  0.4757 -0.8253
 3668TIP3    H232420   0.033   4.340  15.978  1.0737  0.6695 -0.3793
 3669TIP3   OH232421   6.166   5.080   6.134 -0.2061 -0.4031 -0.0918
 3669TIP3    H132422   6.203   5.075   6.046 -0.2358 -1.3944 -0.0608
 3669TIP3    H232423   6.083   5.033   6.127 -0.8579  0.6927  0.1443
 3670TIP3   OH232424   5.210   3.842  13.736 -0.0390 -0.2998  0.1699
 3670TIP3    H132425   5.247   3.929  13.751 -3.6637  1.0213  2.0049
 3670TIP3    H232426   5.239   3.790  13.811  0.3302 -0.0741  0.1850
 3671TIP3   OH232427   2.030   0.644   1.584  0.2525 -0.4044  0.1494
 3671TIP3    H132428   2.092   0.716   1.596 -0.0259  0.1220 -1.4348
 3671TIP3    H232429   1.946   0.687   1.569 -0.4346 -1.1114  1.8013
 3672TIP3   OH232430   4.311   6.312   1.386  0.7262 -0.2504  0.3856
 3672TIP3    H132431   4.331   6.367   1.461  3.2662 -0.7099  0.1016
 3672TIP3    H232432   4.300   6.373   1.313  2.2826 -0.0152  0.3274
 3673TIP3   OH232433   5.861   1.662   5.814  0.0356  0.3153  0.7996
 3673TIP3    H132434   5.917   1.620   5.748 -0.5517 -0.2807  0.6791
 3673TIP3    H232435   5.897   1.633   5.898  2.2982  2.9983  0.8208
 3674TIP3   OH232436   6.543   3.379  11.418  0.4388  0.5054 -0.3532
 3674TIP3    H132437   6.615   3.353  11.476 -0.4553  0.7329  0.8867
 3674TIP3    H232438   6.556   3.474  11.407  0.2467  0.5726 -0.0100
 3675TIP3   OH232439   2.783   4.748  12.363  0.1810  1.3073 -0.3255
 3675TIP3    H132440   2.728   4.818  12.327  0.7836  2.0660  0.2037
 3675TIP3    H232441   2.855   4.739  12.301  0.2163  1.3075 -0.2841
 3676TIP3   OH232442   5.743   5.688   2.426 -0.4871  0.1576  0.2427
 3676TIP3    H132443   5.673   5.753   2.418 -0.1424  0.5054  0.0100
 3676TIP3    H232444   5.721   5.638   2.505  0.2806  1.8366  1.5569
 3677TIP3   OH232445   0.451   4.087   6.110 -0.0748 -0.4308  0.1199
 3677TIP3    H132446   0.529   4.117   6.157 -0.6766  0.1273  0.7714
 3677TIP3    H232447   0.456   4.132   6.026  0.0648 -0.0333  0.3380
 3678TIP3   OH232448   0.024   3.404  13.593  0.0946  0.2908 -0.5609
 3678TIP3    H132449  -0.046   3.468  13.580 -0.8716 -0.7257 -0.4126
 3678TIP3    H232450   0.008   3.337  13.528 -0.0699 -0.8153  0.6003
 3679TIP3   OH232451   2.200   6.466  11.050 -0.3730  0.3331 -0.0231
 3679TIP3    H132452   2.197   6.434  10.960 -2.9622 -1.4905  0.6680
 3679TIP3    H232453   2.237   6.554  11.042  1.0892 -0.4515 -2.6482
 3680TIP3   OH232454   3.027   1.239   4.683 -0.1010  0.0407 -0.2012
 3680TIP3    H132455   2.960   1.185   4.726 -0.1175 -0.8918 -1.3896
 3680TIP3    H232456   3.105   1.184   4.682 -0.1057  0.0506 -1.3761
 3681TIP3   OH232457   6.774   4.878  15.459 -0.0519  0.2286 -0.0999
 3681TIP3    H132458   6.723   4.958  15.451 -1.2541 -0.4147  1.0498
 3681TIP3    H232459   6.725   4.812  15.410 -0.3377 -0.3828  0.9827
 3682TIP3   OH232460   1.495   2.006   4.374  0.7666  0.4279 -0.2576
 3682TIP3    H132461   1.445   1.964   4.304 -1.0522 -0.0168  1.2636
 3682TIP3    H232462   1.585   1.981   4.356  0.1093 -1.3262 -1.3287
 3683TIP3   OH232463   3.088   4.114  15.090 -0.5993 -0.0828  0.4898
 3683TIP3    H132464   3.019   4.056  15.056 -0.3106  0.3324 -0.8453
 3683TIP3    H232465   3.154   4.115  15.021 -0.2427  1.2073  0.8438
 3684TIP3   OH232466   4.877   3.142  11.348  0.5367  0.1265  0.2394
 3684TIP3    H132467   4.784   3.123  11.334  0.6514 -1.9137  1.9643
 3684TIP3    H232468   4.921   3.097  11.276  0.1515  1.9363 -1.1614
 3685TIP3   OH232469   6.444   1.661   3.379 -0.3917 -0.3660  0.3964
 3685TIP3    H132470   6.390   1.627   3.307 -2.2742  2.7790  0.1995
 3685TIP3    H232471   6.384   1.668   3.453  0.8305 -0.8741  1.4546
 3686TIP3   OH232472   2.780   1.649  17.001  0.6719 -0.4684  0.8197
 3686TIP3    H132473   2.704   1.656  16.943  0.5124 -0.1457  1.0664
 3686TIP3    H232474   2.846   1.603  16.949  0.7325  0.3501  0.1721
 3687TIP3   OH232475   6.148   2.994   3.520 -0.5162  0.0227  0.0785
 3687TIP3    H132476   6.101   2.937   3.459  0.1789  0.5327 -0.9399
 3687TIP3    H232477   6.204   2.934   3.570 -2.5286 -0.6466  1.6044
 3688TIP3   OH232478   1.163   1.081  12.054 -0.2697  0.2113 -0.2567
 3688TIP3    H132479   1.137   1.166  12.018  1.4929  0.4066 -1.1029
 3688TIP3    H232480   1.252   1.095  12.086 -0.0373 -1.2741 -0.2420
 3689TIP3   OH232481   0.979   2.365   0.166  0.3845 -0.1086  0.1022
 3689TIP3    H132482   0.912   2.389   0.230 -0.0173 -0.7970 -0.0536
 3689TIP3    H232483   0.951   2.406   0.084  1.6242  1.9271  0.6713
 3690TIP3   OH232484   4.734   6.337   3.664 -0.5115  0.1461  0.2471
 3690TIP3    H132485   4.730   6.247   3.696 -0.2804  0.4021  1.0024
 3690TIP3    H232486   4.666   6.383   3.714 -0.0114  0.5931  0.5277
 3691TIP3   OH232487   0.785   4.477   5.139  0.3144 -0.2260 -0.3170
 3691TIP3    H132488   0.726   4.449   5.209  1.3767 -1.3782  0.1437
 3691TIP3    H232489   0.728   4.512   5.071 -0.8240 -0.4358  0.5252
 3692TIP3   OH232490   1.483   4.320  11.783 -0.2201  0.5183 -0.5173
 3692TIP3    H132491   1.501   4.245  11.726 -1.9016  1.2263 -2.0306
 3692TIP3    H232492   1.505   4.289  11.871  1.1287 -1.0409 -1.3629
 3693TIP3   OH232493   4.231   5.208   2.187 -0.1520  0.2628  0.5614
 3693TIP3    H132494   4.202   5.117   2.178 -0.1004  0.3780 -1.0411
 3693TIP3    H232495   4.186   5.254   2.116  0.3931  1.3434  0.9099
 3694TIP3   OH232496   6.717   0.953  16.842 -0.6173  0.1074  0.2668
 3694TIP3    H132497   6.686   0.961  16.932  0.4321 -1.1589  0.7631
 3694TIP3    H232498   6.676   0.872  16.811 -1.3426  0.7836 -0.5510
 3695TIP3   OH232499   6.595   5.870   6.135  0.5773  0.6655 -0.0566
 3695TIP3    H132500   6.612   5.953   6.179  0.1379  0.1793  1.0311
 3695TIP3    H232501   6.558   5.813   6.202  1.5568 -0.6610 -0.6109
 3696TIP3   OH232502   6.325   3.339   4.189  0.2406  0.6063 -0.0033
 3696TIP3    H132503   6.384   3.274   4.150 -1.9304  0.6810 -3.6273
 3696TIP3    H232504   6.243   3.292   4.201  0.0406  1.4123  1.8618
 3697TIP3   OH232505   2.080   2.070   3.001  0.4722 -0.3482  0.6772
 3697TIP3    H132506   2.095   2.165   2.993 -0.7878 -0.2105 -0.0522
 3697TIP3    H232507   2.019   2.049   2.930 -0.4432 -1.4427  1.7746
 3698TIP3   OH232508   4.328   1.871   3.531 -0.1598 -0.5596  0.7172
 3698TIP3    H132509   4.325   1.924   3.610 -0.3004 -0.8046  0.8762
 3698TIP3    H232510   4.387   1.918   3.472 -0.9087  0.1850  0.5579
 3699TIP3   OH232511   6.230   3.573  11.632 -0.0171 -0.1050  0.3766
 3699TIP3    H132512   6.135   3.569  11.621 -0.1793 -0.2124  1.7245
 3699TIP3    H232513   6.250   3.666  11.628 -0.0358 -0.1526 -1.0013
 3700TIP3   OH232514   3.825   0.904   4.596 -0.5970  0.1130 -0.0153
 3700TIP3    H132515   3.746   0.890   4.648 -0.8102 -0.9063 -0.6022
 3700TIP3    H232516   3.825   0.832   4.532  0.9739 -0.0781  0.1898
 3701TIP3   OH232517   1.872   5.869  13.786 -0.1515 -0.1021  0.1591
 3701TIP3    H132518   1.797   5.926  13.767  0.4816  0.8135  0.4120
 3701TIP3    H232519   1.905   5.844  13.700  0.8918  1.6511  0.0416
 3702TIP3   OH232520   4.915   0.890   1.816 -0.2894  0.9383 -0.9595
 3702TIP3    H132521   4.889   0.978   1.843  0.8828  0.8524  0.5557
 3702TIP3    H232522   5.005   0.900   1.786 -0.7903  0.5894 -2.5932
 3703TIP3   OH232523   1.899   3.782  10.525  0.0874  0.3444 -0.5207
 3703TIP3    H132524   1.955   3.848  10.486  1.8163 -1.2996 -0.8661
 3703TIP3    H232525   1.813   3.825  10.532  0.5154  1.7610 -3.1201
 3704TIP3   OH232526   3.959   4.129   2.937 -0.5563 -0.3715 -0.2359
 3704TIP3    H132527   3.890   4.164   2.881 -0.3985 -0.5545 -0.5425
 3704TIP3    H232528   3.981   4.201   2.996 -0.7051 -0.1745 -0.4216
 3705TIP3   OH232529   3.359   0.788   1.656 -0.0856  0.2035  0.9584
 3705TIP3    H132530   3.395   0.717   1.604 -0.7369  0.9051 -0.4609
 3705TIP3    H232531   3.390   0.771   1.745  3.6321  0.7101 -0.1646
 3706TIP3   OH232532   4.145   2.223  17.204  0.2264 -0.1519 -0.3645
 3706TIP3    H132533   4.092   2.256  17.132 -1.9285 -1.2383  0.6773
 3706TIP3    H232534   4.106   2.262  17.282  1.6884 -0.0749  0.3504
 3707TIP3   OH232535   5.221   5.163  11.235  0.3961 -0.1541  0.0431
 3707TIP3    H132536   5.293   5.106  11.208  1.5992  1.7133 -0.7860
 3707TIP3    H232537   5.181   5.192  11.153 -0.0410  0.3972  0.4472
 3708TIP3   OH232538   3.658   0.444   1.693  0.6612  0.5423 -0.3251
 3708TIP3    H132539   3.638   0.533   1.662  0.3343  1.4830  2.4837
 3708TIP3    H232540   3.629   0.387   1.622 -1.2038  2.5628 -1.2370
 3709TIP3   OH232541   1.441   4.691  14.913  0.0657 -0.7122 -0.0812
 3709TIP3    H132542   1.534   4.668  14.923 -0.1005 -1.7368 -0.7918
 3709TIP3    H232543   1.433   4.717  14.821  0.3897  2.9267  0.8546
 3710TIP3   OH232544   3.442   3.000  15.431 -0.2102  0.2911  0.3688
 3710TIP3    H132545   3.481   2.913  15.437 -1.8092 -0.3697  1.5428
 3710TIP3    H232546   3.511   3.059  15.461  0.3071 -0.7399  1.2517
 3711TIP3   OH232547   2.862   0.688  13.630 -0.3533  0.3230 -0.3459
 3711TIP3    H132548   2.774   0.682  13.591  0.0236  1.2937 -1.3636
 3711TIP3    H232549   2.913   0.622  13.582 -0.0443  1.0940 -1.0861
 3712TIP3   OH232550   3.693   6.211   3.647 -0.1919  0.2800  0.4779
 3712TIP3    H132551   3.648   6.219   3.563 -0.1056  0.8010  0.4807
 3712TIP3    H232552   3.776   6.258   3.635  0.1600 -0.2914  0.6114
 3713TIP3   OH232553   4.658   4.187  15.204 -0.2328 -0.1327  0.2019
 3713TIP3    H132554   4.747   4.218  15.190 -0.4016 -0.0103 -0.5905
 3713TIP3    H232555   4.602   4.256  15.168 -0.6075 -1.4276 -1.7790
 3714TIP3   OH232556   3.727   3.091   5.883  0.2243 -0.3170  0.1563
 3714TIP3    H132557   3.654   3.078   5.943 -0.8956  1.1250 -0.8624
 3714TIP3    H232558   3.789   3.022   5.906 -1.0372 -0.9902  1.6548
 3715TIP3   OH232559   3.643   2.454  15.340 -0.4415 -0.3869  0.1203
 3715TIP3    H132560   3.733   2.423  15.341 -0.5515 -0.7072  0.2949
 3715TIP3    H232561   3.590   2.374  15.346 -0.7396 -0.2223 -0.2797
 3716TIP3   OH232562   4.506   3.245  10.773 -0.0986 -0.0018 -0.2195
 3716TIP3    H132563   4.422   3.202  10.788 -0.2388 -1.0012 -3.4893
 3716TIP3    H232564   4.558   3.180  10.726  1.5414  1.5849 -0.6352
 3717TIP3   OH232565   4.026   2.321  11.801 -0.7589 -0.2624 -0.0017
 3717TIP3    H132566   3.938   2.302  11.767 -1.5568  0.5306  1.5334
 3717TIP3    H232567   4.015   2.403  11.850  0.6938 -0.5159  0.7732
 3718TIP3   OH232568   4.129   1.151  13.545 -0.1947 -0.5251 -0.6879
 3718TIP3    H132569   4.065   1.221  13.551 -1.6098 -1.8164 -0.2888
 3718TIP3    H232570   4.197   1.185  13.488 -0.5387  1.4023  0.0253
 3719TIP3   OH232571   0.186   5.498  16.880 -0.5645 -0.3544 -0.4765
 3719TIP3    H132572   0.220   5.410  16.873  0.1176 -0.0785 -0.6072
 3719TIP3    H232573   0.112   5.500  16.819  2.3030  0.5699 -4.0679
 3720TIP3   OH232574   5.374   4.692  13.032 -0.0375 -0.4105 -0.1648
 3720TIP3    H132575   5.422   4.736  12.961  1.8839 -1.4696  0.4439
 3720TIP3    H232576   5.378   4.754  13.105 -0.0125 -0.2874 -0.2694
 3721TIP3   OH232577   5.553   6.474   4.342  0.0315  0.2909  0.2859
 3721TIP3    H132578   5.601   6.410   4.289 -0.2294  0.1724  0.1919
 3721TIP3    H232579   5.465   6.477   4.303  0.3824  1.5737 -0.4464
 3722TIP3   OH232580   2.271   0.177   2.035 -0.0769 -0.1737 -0.7936
 3722TIP3    H132581   2.315   0.236   2.095  0.2879  0.8160 -2.0146
 3722TIP3    H232582   2.215   0.123   2.091  0.5201  0.4868  0.4556
 3723TIP3   OH232583   3.185   6.350  16.076 -0.1467 -0.2796  0.0631
 3723TIP3    H132584   3.221   6.354  15.987 -0.2770 -2.4808 -0.1246
 3723TIP3    H232585   3.093   6.324  16.064  0.5476 -3.3363  0.9232
 3724TIP3   OH232586   2.372   4.088  16.901 -0.1175 -0.2313  0.2706
 3724TIP3    H132587   2.291   4.094  16.951  0.2023 -1.0147  0.8712
 3724TIP3    H232588   2.365   4.005  16.853  0.5776 -0.5617  0.7441
 3725TIP3   OH232589   4.863   1.192   3.291  0.3052  0.6795  0.0016
 3725TIP3    H132590   4.927   1.250   3.333  0.3687  0.8300 -0.3038
 3725TIP3    H232591   4.909   1.109   3.279  1.0053  1.3249 -1.8245
 3726TIP3   OH232592   0.851   3.122   5.344  0.2965  0.3033 -0.1617
 3726TIP3    H132593   0.907   3.086   5.412 -0.1245  1.4086  0.7804
 3726TIP3    H232594   0.901   3.196   5.308  0.1427  0.2683 -0.4561
 3727TIP3   OH232595   6.459   6.337   4.136 -0.3714  0.5459 -0.4268
 3727TIP3    H132596   6.508   6.255   4.140 -2.3973 -0.6751 -0.1402
 3727TIP3    H232597   6.526   6.405   4.148  1.4325 -1.0071 -1.4336
 3728TIP3   OH232598   6.007   0.490  15.855 -0.7657  0.4416  0.4656
 3728TIP3    H132599   5.929   0.456  15.897 -2.2275 -1.0372 -3.2305
 3728TIP3    H232600   6.070   0.501  15.926 -3.1401 -1.7357  3.0181
 3729TIP3   OH232601   6.781   0.786   4.846  0.1754 -0.0528 -0.0508
 3729TIP3    H132602   6.864   0.820   4.881  1.9120 -1.4763 -2.5938
 3729TIP3    H232603   6.747   0.730   4.916  0.4238  1.9237  1.7147
 3730TIP3   OH232604   4.277   5.480  14.561  0.0014  0.1208 -0.0874
 3730TIP3    H132605   4.260   5.425  14.638 -1.1903 -0.0908 -0.4849
 3730TIP3    H232606   4.286   5.568  14.596  1.9502 -0.3148  0.5618
 3731TIP3   OH232607   6.632   1.081   4.171  0.2906  0.1320 -0.1875
 3731TIP3    H132608   6.598   1.007   4.222  0.5567 -2.0160 -3.0180
 3731TIP3    H232609   6.557   1.140   4.163  0.8393  1.6856  4.5737
 3732TIP3   OH232610   6.726   3.438  10.820  0.0834  0.2179  0.4174
 3732TIP3    H132611   6.757   3.403  10.737  0.3924  0.0948  0.5827
 3732TIP3    H232612   6.797   3.420  10.882  0.7569  2.2123  0.2504
 3733TIP3   OH232613   2.579   0.241   1.104 -0.1639  0.4952 -0.0685
 3733TIP3    H132614   2.632   0.162   1.096 -0.6033  0.2728 -0.8495
 3733TIP3    H232615   2.612   0.284   1.183  0.8615  0.1201 -0.2757
 3734TIP3   OH232616   0.788   3.926  17.025  0.2528 -0.3839  0.3571
 3734TIP3    H132617   0.756   4.014  17.004  0.7953 -0.3598 -0.3977
 3734TIP3    H232618   0.777   3.876  16.945  2.4435 -0.2618 -0.0714
 3735TIP3   OH232619   4.503   5.786  11.942 -0.0474 -0.2962 -0.2156
 3735TIP3    H132620   4.418   5.831  11.946  0.8160  1.5935 -2.0910
 3735TIP3    H232621   4.508   5.753  11.853  1.0175 -0.7238  0.0060
 3736TIP3   OH232622   3.261   3.183   0.215 -0.0407 -0.0309  0.4444
 3736TIP3    H132623   3.214   3.249   0.266 -1.8972 -0.0859 -1.1371
 3736TIP3    H232624   3.222   3.100   0.242  0.0511 -0.1891  0.0996
 3737TIP3   OH232625   6.394   1.545  13.072 -0.4231 -0.3044 -0.0108
 3737TIP3    H132626   6.469   1.605  13.065 -1.9304  1.3432 -2.9520
 3737TIP3    H232627   6.427   1.462  13.037  0.0898  0.4191 -1.3056
 3738TIP3   OH232628   0.599   4.876   2.175 -0.0049 -0.3032 -0.3103
 3738TIP3    H132629   0.679   4.911   2.215  0.9683 -0.5175 -2.0186
 3738TIP3    H232630   0.568   4.946   2.118 -0.5698 -0.5269 -0.2766
 3739TIP3   OH232631   4.678   5.488  16.253  0.3660  0.3102 -0.0139
 3739TIP3    H132632   4.633   5.530  16.179  1.0514  0.4793 -0.3357
 3739TIP3    H232633   4.623   5.509  16.328 -0.3526  0.1199 -0.4770
 3740TIP3   OH232634   1.063   3.971  14.779 -0.4055 -0.0745  0.9417
 3740TIP3    H132635   1.109   3.979  14.862  2.6409 -4.6256 -0.0973
 3740TIP3    H232636   0.987   3.916  14.799  0.1362 -0.8772  0.8252
 3741TIP3   OH232637   0.200   0.085  16.060  0.3377 -0.1730 -0.1152
 3741TIP3    H132638   0.236   0.010  16.107  1.8704  1.2305  0.9781
 3741TIP3    H232639   0.111   0.095  16.095  0.4718 -0.8658  0.4241
 3742TIP3   OH232640   6.135   5.509   5.634  0.4016  0.0029 -0.8393
 3742TIP3    H132641   6.218   5.473   5.602  0.9844 -0.4015  1.0873
 3742TIP3    H232642   6.137   5.494   5.728 -1.2460  1.2606 -0.5852
 3743TIP3   OH232643   6.067   0.521  14.974 -0.3365 -0.4349 -0.3551
 3743TIP3    H132644   6.017   0.440  14.987  1.4623 -1.5927 -0.3808
 3743TIP3    H232645   6.045   0.549  14.885  0.8297 -2.2160 -1.2323
 3744TIP3   OH232646   0.734   2.713  14.188 -0.6316 -0.1945 -0.0829
 3744TIP3    H132647   0.742   2.793  14.136  1.1503  0.2994  0.8821
 3744TIP3    H232648   0.739   2.642  14.125 -2.3917  0.4422 -0.9693
 3745TIP3   OH232649   4.193   0.196  17.107 -0.0878  0.1718  0.1869
 3745TIP3    H132650   4.141   0.228  17.034 -0.3906 -2.7799 -0.9572
 3745TIP3    H232651   4.128   0.172  17.174 -0.0418 -0.7007 -0.0744
 3746TIP3   OH232652   4.254   0.212  10.926  1.0185  0.0643  0.9153
 3746TIP3    H132653   4.267   0.258  10.843  1.9895 -0.1724  0.9342
 3746TIP3    H232654   4.296   0.269  10.991  1.6158 -0.5011  1.0305
 3747TIP3   OH232655   0.091   3.462   3.965  0.0009 -0.2477  0.2425
 3747TIP3    H132656   0.124   3.372   3.959 -1.5949 -0.8113 -0.3480
 3747TIP3    H232657   0.118   3.503   3.882 -1.6120 -1.0064 -0.6801
 3748TIP3   OH232658   0.660   5.897   1.434 -0.4029 -0.3554  0.2485
 3748TIP3    H132659   0.606   5.886   1.512 -0.8540  2.2823  0.3429
 3748TIP3    H232660   0.646   5.988   1.407  0.8200 -0.8177 -2.1045
 3749TIP3   OH232661   2.655   1.305   0.686  0.1310 -0.3766  0.2429
 3749TIP3    H132662   2.708   1.225   0.680  2.2045  0.9641  0.2862
 3749TIP3    H232663   2.573   1.283   0.642  0.0537 -3.0251  1.5921
 3750TIP3   OH232664   5.663   3.878  16.115  0.5442  0.5391  0.0523
 3750TIP3    H132665   5.600   3.835  16.172  1.7101  0.0495  0.9867
 3750TIP3    H232666   5.631   3.968  16.106 -0.6102  0.1190  0.0169
 3751TIP3   OH232667   1.540   2.130   3.109  0.1282 -0.1344  0.6786
 3751TIP3    H132668   1.463   2.186   3.115  1.5964  2.0731 -0.3041
 3751TIP3    H232669   1.506   2.041   3.107 -2.3252  0.7668  1.1930
 3752TIP3   OH232670   2.863   3.064  14.196  0.5418  0.3899  0.2950
 3752TIP3    H132671   2.885   3.155  14.215 -1.7252  0.9294  0.5498
 3752TIP3    H232672   2.875   3.018  14.279  0.7120  0.6644  0.4225
 3753TIP3   OH232673   2.336   0.885  12.019 -0.6789  0.7347 -0.2253
 3753TIP3    H132674   2.427   0.855  12.019 -0.5231  1.1964  0.5815
 3753TIP3    H232675   2.305   0.866  11.931 -0.3570 -1.0859  0.0441
 3754TIP3   OH232676   5.794   5.335   2.257  0.5433  0.0750  0.0648
 3754TIP3    H132677   5.699   5.338   2.246  0.4317 -0.7310  0.8055
 3754TIP3    H232678   5.824   5.420   2.226 -0.4876  0.6091  0.5088
 3755TIP3   OH232679   3.242   5.497  15.370  0.2984  0.3766  0.1203
 3755TIP3    H132680   3.239   5.555  15.293 -0.6682  1.0630  0.6652
 3755TIP3    H232681   3.164   5.520  15.420  0.6129 -0.4849  1.0145
 3756TIP3   OH232682   5.145   4.601   6.623  0.1072 -0.5647 -0.3628
 3756TIP3    H132683   5.210   4.667   6.647 -1.2385  0.4274  0.6681
 3756TIP3    H232684   5.187   4.517   6.642  0.6631  0.0982  1.4709
 3757TIP3   OH232685   5.952   2.754  11.342  0.0439 -0.1399 -0.0923
 3757TIP3    H132686   6.032   2.744  11.290 -0.2313  0.7518 -0.7065
 3757TIP3    H232687   5.952   2.847  11.367 -1.2284  0.0468 -0.7936
 3758TIP3   OH232688   2.277   4.579   1.274  0.3797 -0.1098  0.0847
 3758TIP3    H132689   2.193   4.588   1.228  1.2049 -1.2582 -1.6779
 3758TIP3    H232690   2.343   4.599   1.208  1.5125  2.3685  1.8471
 3759TIP3   OH232691   5.318   1.489  14.702 -0.1354 -0.2020  0.2681
 3759TIP3    H132692   5.328   1.496  14.607 -1.4934 -0.3564  0.0965
 3759TIP3    H232693   5.346   1.400  14.722  0.4239 -0.0781  0.0620
 3760TIP3   OH232694   4.488   0.021  14.676  0.0630  0.4652  0.3368
 3760TIP3    H132695   4.465   0.112  14.655 -0.7205  0.7238  2.1609
 3760TIP3    H232696   4.404  -0.025  14.675  0.4720 -0.2684 -0.6754
 3761TIP3   OH232697   0.305   1.119  17.031  0.6071  0.3113  0.4949
 3761TIP3    H132698   0.251   1.109  16.953  0.4070 -1.7108  0.8572
 3761TIP3    H232699   0.388   1.154  16.999  0.6677 -0.8812 -0.6944
 3762TIP3   OH232700   1.462   1.654  12.247 -0.4698  0.3290  0.1037
 3762TIP3    H132701   1.507   1.698  12.320  1.5974 -1.0968 -0.2679
 3762TIP3    H232702   1.432   1.725  12.191  0.9790  1.3285  0.5715
 3763TIP3   OH232703   2.741   4.179   3.219 -0.5073  0.6336  0.1039
 3763TIP3    H132704   2.776   4.134   3.296 -2.1717  0.4472  0.7772
 3763TIP3    H232705   2.757   4.118   3.146 -0.7715 -0.0848  0.6463
 3764TIP3   OH232706   3.872   0.666  15.356 -0.1810  0.3043 -0.2272
 3764TIP3    H132707   3.840   0.617  15.280  0.0778 -0.7746  0.3492
 3764TIP3    H232708   3.937   0.727  15.320  0.0113 -0.2720 -0.8608
 3765TIP3   OH232709   4.875   3.718  15.313 -0.4424  0.1444 -0.5026
 3765TIP3    H132710   4.917   3.720  15.227  2.6937  1.1378  0.9967
 3765TIP3    H232711   4.850   3.627  15.326  0.7825 -0.3626 -1.6489
 3766TIP3   OH232712   0.434   0.016  15.660 -0.1449  1.3835  0.2984
 3766TIP3    H132713   0.470  -0.025  15.582  0.2996  0.0684  1.1673
 3766TIP3    H232714   0.424   0.108  15.637 -0.1967  0.9785 -1.3614
 3767TIP3   OH232715   0.108   2.359  14.713 -0.0971  0.2473 -0.1586
 3767TIP3    H132716   0.108   2.441  14.664 -0.7003  1.6104  2.0429
 3767TIP3    H232717   0.167   2.377  14.787 -0.2039 -1.3298  0.3116
 3768TIP3   OH232718   6.572   6.126   3.651  0.0845 -0.1318  0.2455
 3768TIP3    H132719   6.530   6.108   3.567  1.4353  1.5229 -0.8343
 3768TIP3    H232720   6.545   6.055   3.708  0.4224 -2.1601 -2.0645
 3769TIP3   OH232721   5.073   5.404  15.662 -0.1739  0.3635 -0.5940
 3769TIP3    H132722   5.071   5.499  15.675  0.8693  0.0046  2.8196
 3769TIP3    H232723   4.983   5.375  15.681  0.1025  0.4375  0.9243
 3770TIP3   OH232724   2.333   4.142  13.375 -0.0530 -0.5818 -0.0747
 3770TIP3    H132725   2.298   4.199  13.443 -0.6933 -1.8837  0.7093
 3770TIP3    H232726   2.427   4.157  13.377 -0.4203  2.4198 -1.6999
 3771TIP3   OH232727   0.244   1.446   2.013  0.4877 -0.2123  0.0569
 3771TIP3    H132728   0.231   1.353   2.031 -0.3100 -0.4440 -1.6056
 3771TIP3    H232729   0.205   1.459   1.927  1.8719  1.3739 -0.3444
 3772TIP3   OH232730   2.397   4.079   1.760 -0.3980 -0.2670 -0.1390
 3772TIP3    H132731   2.310   4.042   1.747 -0.4655  0.2756 -1.3388
 3772TIP3    H232732   2.385   4.173   1.745  0.5189 -0.2824 -1.0223
 3773TIP3   OH232733   0.941   1.861  13.504  0.0835  0.1204 -0.1900
 3773TIP3    H132734   0.856   1.821  13.486  0.0990  0.4484 -1.0343
 3773TIP3    H232735   0.967   1.899  13.420  0.8568  0.4044  0.1788
 3774TIP3   OH232736   0.388   1.052  16.411  0.0738 -0.5616  0.0645
 3774TIP3    H132737   0.427   0.984  16.466 -0.4711 -1.5234 -0.6982
 3774TIP3    H232738   0.462   1.096  16.370  0.4689 -0.0232  1.3361
 3775TIP3   OH232739   3.713   0.278   2.807  0.0231  0.5962  0.0262
 3775TIP3    H132740   3.709   0.367   2.840 -2.2884  0.6566 -0.3511
 3775TIP3    H232741   3.697   0.223   2.884 -0.5823  0.5840 -0.1045
 3776TIP3   OH232742   1.448   4.235   0.304  0.3527 -0.1770  0.2587
 3776TIP3    H132743   1.505   4.159   0.322  0.2433 -0.1241  0.8434
 3776TIP3    H232744   1.469   4.297   0.374  1.6477  1.0201 -1.1816
 3777TIP3   OH232745   0.766   5.971   3.928 -0.3869  0.5997  0.2555
 3777TIP3    H132746   0.797   6.055   3.961 -1.0391  0.4387  1.3202
 3777TIP3    H232747   0.696   5.993   3.867  1.2043  0.9251 -1.4864
 3778TIP3   OH232748   0.636   1.767  11.848  0.0942 -0.9813 -0.0006
 3778TIP3    H132749   0.582   1.745  11.924  0.4498 -0.6873  0.3401
 3778TIP3    H232750   0.724   1.739  11.873  0.0617 -1.6695 -0.6432
 3779TIP3   OH232751   2.028   5.634  12.817  0.1785  0.3397 -0.5133
 3779TIP3    H132752   2.043   5.577  12.741  0.6245 -0.2955  0.0398
 3779TIP3    H232753   2.115   5.663  12.843 -0.1301  2.2301 -1.4946
 3780TIP3   OH232754   2.247   1.517  16.087 -0.2244 -0.5784 -0.3947
 3780TIP3    H132755   2.165   1.561  16.107 -1.3049 -2.9157  0.5197
 3780TIP3    H232756   2.222   1.443  16.032  1.3998 -0.6860 -1.0138
 3781TIP3   OH232757   3.451   5.767  15.476  0.3316 -0.0418 -0.3947
 3781TIP3    H132758   3.466   5.766  15.571  0.4255  0.5756 -0.3986
 3781TIP3    H232759   3.360   5.740  15.466  0.5733 -0.9661 -0.1850
 3782TIP3   OH232760   6.322   5.955   5.507  0.4836 -0.4468 -0.0176
 3782TIP3    H132761   6.324   6.051   5.513 -0.9506 -0.4857  1.3747
 3782TIP3    H232762   6.229   5.933   5.510  0.7951 -1.8780 -0.6058
 3783TIP3   OH232763   4.834   1.484  14.950 -0.7290  0.3391 -0.1368
 3783TIP3    H132764   4.900   1.527  15.004 -0.9743  0.1689  0.3009
 3783TIP3    H232765   4.877   1.469  14.865 -0.1989  0.1976  0.1602
 3784TIP3   OH232766   5.481   3.821  12.615  0.0503 -0.4752  0.0042
 3784TIP3    H132767   5.451   3.877  12.545  0.3411 -0.7950 -0.3797
 3784TIP3    H232768   5.530   3.879  12.674 -1.2775  0.0391  0.6208
 3785TIP3   OH232769   5.789   2.018  11.346  0.3476  0.1756 -0.0082
 3785TIP3    H132770   5.869   2.028  11.295  0.3865  0.9060  0.1944
 3785TIP3    H232771   5.767   2.106  11.374  0.0594 -0.1580  0.8289
 3786TIP3   OH232772   3.106   0.499   2.224 -0.3612  0.0659 -0.0289
 3786TIP3    H132773   3.062   0.475   2.306 -1.1334  1.8925  0.1281
 3786TIP3    H232774   3.120   0.593   2.232 -2.0689  0.6017 -2.7445
 3787TIP3   OH232775   1.391   4.005  13.657 -0.6244  0.1217 -0.8833
 3787TIP3    H132776   1.439   4.049  13.587  1.2209  0.2770  0.4365
 3787TIP3    H232777   1.366   3.920  13.620  3.0288 -1.0807 -0.7742
 3788TIP3   OH232778   0.245   5.444   1.968  0.0044  0.0365  0.2506
 3788TIP3    H132779   0.167   5.426   1.916 -0.5299  0.3285  0.9397
 3788TIP3    H232780   0.293   5.361   1.969  1.0431  0.5604 -2.3764
 3789TIP3   OH232781   6.774   5.068  14.548  0.3708  0.1451 -0.0436
 3789TIP3    H132782   6.861   5.071  14.509  0.3028  1.2179 -0.1187
 3789TIP3    H232783   6.752   5.159  14.564 -0.8889 -0.0962 -0.3616
 3790TIP3   OH232784   1.034   1.259   4.677 -0.0783 -0.4882  0.2796
 3790TIP3    H132785   0.959   1.200   4.685 -0.6765  0.1684 -0.3541
 3790TIP3    H232786   0.997   1.346   4.692  0.9638 -0.3359  2.1492
 3791TIP3   OH232787   1.464   4.739   4.845 -0.1357  0.7419 -0.1695
 3791TIP3    H132788   1.512   4.704   4.770  1.4192  0.8752  0.7417
 3791TIP3    H232789   1.530   4.789   4.894 -0.8003 -0.4867  2.0311
 3792TIP3   OH232790   4.602   2.189   4.974  0.0697 -0.3824 -0.1204
 3792TIP3    H132791   4.684   2.176   5.023  0.6098  0.7987 -0.6969
 3792TIP3    H232792   4.534   2.158   5.034  0.7948  0.2234  1.0360
 3793TIP3   OH232793   2.790   6.109   3.277  0.5693 -0.0113 -0.3081
 3793TIP3    H132794   2.875   6.144   3.251  0.6633 -0.4387 -0.5803
 3793TIP3    H232795   2.738   6.109   3.197  0.1733  0.6481 -0.0541
 3794TIP3   OH232796   2.701   1.950   0.257  0.0430 -0.4724  0.0706
 3794TIP3    H132797   2.676   2.013   0.189 -1.7310  0.7098  1.7570
 3794TIP3    H232798   2.637   1.879   0.249  0.0545 -0.5047  0.2604
 3795TIP3   OH232799   3.890   4.780  11.685 -0.1676  0.2600 -0.5265
 3795TIP3    H132800   3.945   4.713  11.645 -1.1165 -0.3474 -0.8212
 3795TIP3    H232801   3.918   4.862  11.644  0.6777 -0.0107 -0.4987
 3796TIP3   OH232802   5.641   3.255  14.979  0.5117 -0.2908 -0.3170
 3796TIP3    H132803   5.716   3.315  14.981  1.6962 -1.7566  1.4120
 3796TIP3    H232804   5.575   3.298  15.034 -0.0441  1.1250 -2.0452
 3797TIP3   OH232805   1.364   3.397   0.960 -0.4290  0.2165 -0.0516
 3797TIP3    H132806   1.316   3.318   0.984 -0.0486 -0.3597 -1.1302
 3797TIP3    H232807   1.365   3.450   1.039 -3.0527  0.3693 -0.0842
 3798TIP3   OH232808   2.010   1.811   4.759  0.0111 -0.4703 -0.4394
 3798TIP3    H132809   2.052   1.730   4.729  0.4086 -0.0936 -0.9157
 3798TIP3    H232810   1.951   1.783   4.829  1.2749 -0.9829  0.4457
 3799TIP3   OH232811   6.641   5.124  16.165  0.3726 -0.6410  0.3123
 3799TIP3    H132812   6.640   5.035  16.200 -1.4953 -0.7329  0.0947
 3799TIP3    H232813   6.625   5.180  16.241 -0.9802 -0.6643  0.0515
 3800TIP3   OH232814   1.362   2.867   2.950  0.3298  0.6673  0.2202
 3800TIP3    H132815   1.414   2.840   3.025 -0.4956 -1.9896 -0.1300
 3800TIP3    H232816   1.362   2.792   2.891 -0.4424  2.1021 -1.7033
 3801TIP3   OH232817   4.649   0.349   2.024  0.1746  0.1720 -0.7081
 3801TIP3    H132818   4.562   0.340   1.985  0.4572  0.7727 -1.4970
 3801TIP3    H232819   4.705   0.297   1.966 -0.4272 -4.5008  2.6264
 3802TIP3   OH232820   0.218   4.200  11.568  0.2541 -0.3126 -0.0106
 3802TIP3    H132821   0.246   4.171  11.481  0.6350 -1.3161  0.4429
 3802TIP3    H232822   0.299   4.221  11.614  0.2025 -1.8095  0.8061
 3803TIP3   OH232823   6.060   6.030   5.388  0.3735  0.2457  0.2595
 3803TIP3    H132824   6.035   6.109   5.435  2.1702  1.9173 -1.4890
 3803TIP3    H232825   6.029   6.044   5.299 -0.7794 -1.7790  0.3096
 3804TIP3   OH232826   3.757   4.666  15.814  0.3159 -0.7025  0.6628
 3804TIP3    H132827   3.841   4.625  15.791  0.2771 -0.3196 -0.1564
 3804TIP3    H232828   3.769   4.695  15.904  1.4152  0.2564  0.2182
 3805TIP3   OH232829   6.674   5.601  12.549 -0.2668  0.3424 -0.0195
 3805TIP3    H132830   6.615   5.673  12.531  0.5167  0.7833 -0.8596
 3805TIP3    H232831   6.641   5.529  12.495 -0.9602  0.1148  0.7058
 3806TIP3   OH232832   2.201   2.147  17.149  0.3376 -0.1238 -0.1405
 3806TIP3    H132833   2.247   2.153  17.065 -1.3055  0.2083 -1.0529
 3806TIP3    H232834   2.161   2.233  17.160 -1.1960 -0.8285 -0.0618
 3807TIP3   OH232835   2.974   5.616  15.981 -0.6009 -0.3868  0.2175
 3807TIP3    H132836   3.008   5.596  15.894 -2.6741  0.1995 -0.7411
 3807TIP3    H232837   2.892   5.568  15.987  0.2880 -1.7318  2.4895
 3808TIP3   OH232838   5.736   3.164  10.913 -0.0738  0.1094  0.3376
 3808TIP3    H132839   5.702   3.129  10.830 -0.0318  0.8554  0.0000
 3808TIP3    H232840   5.700   3.106  10.980  0.1412 -0.6919 -0.2251
 3809TIP3   OH232841   4.536   6.617   0.983 -0.6074 -0.3780 -0.8045
 3809TIP3    H132842   4.535   6.651   1.073  0.8606  0.3155 -1.0272
 3809TIP3    H232843   4.491   6.533   0.989 -0.1669 -0.5375  0.6753
 3810TIP3   OH232844   0.332   1.948   4.080  0.3266  0.1230 -0.1900
 3810TIP3    H132845   0.287   2.029   4.105 -1.1629 -0.0851 -2.1203
 3810TIP3    H232846   0.423   1.975   4.065  0.7291  0.6903  2.9836
 3811TIP3   OH232847   5.042   4.684   3.844 -0.2378 -0.3872  0.1255
 3811TIP3    H132848   4.994   4.617   3.797 -0.0820 -1.0019  0.8275
 3811TIP3    H232849   4.979   4.721   3.906 -0.2676 -0.0343 -0.1168
 3812TIP3   OH232850   2.327   0.048  12.635  0.1215  0.1433  0.1216
 3812TIP3    H132851   2.361  -0.016  12.573 -1.0334 -0.4028  0.0553
 3812TIP3    H232852   2.375   0.129  12.615  1.6744 -0.7208  0.2880
 3813TIP3   OH232853   2.245   3.551  11.769  0.1136  0.5665  0.0870
 3813TIP3    H132854   2.182   3.603  11.819 -0.4697  0.6974 -0.7623
 3813TIP3    H232855   2.237   3.463  11.805 -0.6263  0.5636 -0.0572
 3814TIP3   OH232856   3.723   5.973  15.848 -0.1704 -0.1461 -0.1294
 3814TIP3    H132857   3.773   5.891  15.840  0.1922  0.0005  0.6335
 3814TIP3    H232858   3.653   5.964  15.782  0.2470 -0.7912 -0.4953
 3815TIP3   OH232859   1.242   5.792  12.157 -0.1672 -0.0356 -0.5120
 3815TIP3    H132860   1.282   5.879  12.165  0.3495 -0.4076  1.0063
 3815TIP3    H232861   1.196   5.779  12.239  0.3539 -1.5032 -0.4434
 3816TIP3   OH232862   5.213   5.237   3.262 -0.1064  0.3431  0.3930
 3816TIP3    H132863   5.160   5.177   3.314 -0.3518 -0.1347 -0.3929
 3816TIP3    H232864   5.289   5.185   3.236  0.7727  1.0335  1.5336
 3817TIP3   OH232865   1.829   1.494  15.568  0.2881  0.2178  0.2378
 3817TIP3    H132866   1.894   1.499  15.638  1.0261 -0.8986 -0.3457
 3817TIP3    H232867   1.774   1.419  15.590 -0.8889  1.2320  0.7922
 3818TIP3   OH232868   2.755   4.863  13.317 -0.2180  0.1176 -0.2929
 3818TIP3    H132869   2.723   4.777  13.291 -1.1898  0.6083 -0.7492
 3818TIP3    H232870   2.842   4.869  13.276 -0.3372 -0.4644 -0.6419
 3819TIP3   OH232871   2.039   3.153   2.500  0.0340  0.4641 -0.5718
 3819TIP3    H132872   2.056   3.182   2.589 -1.1435 -2.7135  0.7712
 3819TIP3    H232873   2.091   3.212   2.445  0.8233  2.4421  2.1849
 3820TIP3   OH232874   1.630   5.351   4.815 -0.2662 -0.4533 -0.6451
 3820TIP3    H132875   1.652   5.349   4.721  0.1973  0.7549 -0.5693
 3820TIP3    H232876   1.699   5.300   4.857  0.0655 -0.1867 -0.8618
 3821TIP3   OH232877   0.492   6.695  15.425 -0.0874  0.1962 -0.4594
 3821TIP3    H132878   0.453   6.610  15.400  2.5994 -1.1490 -0.2097
 3821TIP3    H232879   0.460   6.756  15.358 -1.2938 -1.2154 -1.2031
 3822TIP3   OH232880   0.216   6.286  16.654  0.3278  0.2564  0.1787
 3822TIP3    H132881   0.203   6.237  16.573  0.8259  0.4869 -0.0417
 3822TIP3    H232882   0.219   6.378  16.627  1.7277  0.2624  0.3008
 3823TIP3   OH232883   5.871   2.829  13.329  0.3845 -0.1123 -0.1206
 3823TIP3    H132884   5.913   2.755  13.372 -0.3216 -0.6621 -0.3593
 3823TIP3    H232885   5.783   2.797  13.308  0.2156  0.6567 -0.5949
 3824TIP3   OH232886   1.709   5.315   5.704  0.2716  0.0842  0.0688
 3824TIP3    H132887   1.782   5.292   5.762 -1.2322  1.2124  2.4615
 3824TIP3    H232888   1.691   5.407   5.723 -0.4685  0.3937 -1.9829
 3825TIP3   OH232889   2.967   4.137   3.817 -0.1648 -0.1445  0.0914
 3825TIP3    H132890   2.995   4.144   3.726 -0.0183 -0.2385  0.1306
 3825TIP3    H232891   2.990   4.048   3.843  0.6138  0.1704  0.5003
 3826TIP3   OH232892   1.864   1.990  15.926 -0.3977  0.3284 -0.1579
 3826TIP3    H132893   1.851   2.027  15.839 -0.2666  2.4373  0.6800
 3826TIP3    H232894   1.918   1.913  15.912 -0.6007  0.4886 -1.9669
 3827TIP3   OH232895   0.969   4.342  11.765  0.2001 -0.1413 -0.1826
 3827TIP3    H132896   0.969   4.260  11.716  0.0096  0.7104 -1.6310
 3827TIP3    H232897   0.994   4.316  11.854  0.1711 -1.7594 -0.6212
 3828TIP3   OH232898   2.289   1.148   1.580  0.1338  0.0306  0.0796
 3828TIP3    H132899   2.228   1.142   1.506  1.6357 -0.0222 -1.1799
 3828TIP3    H232900   2.236   1.122   1.656 -1.1931 -0.8470 -1.1011
 3829TIP3   OH232901   4.549   0.958   4.061  0.1860 -0.2331  0.4196
 3829TIP3    H132902   4.603   0.939   3.985 -1.0333  2.2086 -1.0885
 3829TIP3    H232903   4.611   0.976   4.131  1.3300  0.4992 -0.7672
 3830TIP3   OH232904   2.163   3.206  14.891 -0.4401  0.7042  0.1428
 3830TIP3    H132905   2.225   3.167  14.954 -0.3219  1.0601  0.2471
 3830TIP3    H232906   2.126   3.280  14.937 -0.4356  0.9010 -0.1706
 3831TIP3   OH232907   1.048   5.708  14.226  0.3798  0.1296 -0.1420
 3831TIP3    H132908   1.122   5.667  14.181  0.5310 -0.3572  0.5379
 3831TIP3    H232909   1.030   5.786  14.175  1.7946  0.6046  0.0509
 3832TIP3   OH232910   5.126   3.403  12.343 -0.3932  0.1963 -0.6903
 3832TIP3    H132911   5.134   3.452  12.261 -2.1902  0.5832 -0.6546
 3832TIP3    H232912   5.034   3.376  12.345 -0.8184  1.7394  2.0798
 3833TIP3   OH232913   5.767   0.949  12.841  0.3113 -0.3082 -0.0878
 3833TIP3    H132914   5.734   1.025  12.889  0.8220  0.5887 -1.1065
 3833TIP3    H232915   5.721   0.874  12.879 -2.5363  0.8379 -1.1050
 3834TIP3   OH232916   5.601   3.681   3.142 -0.0164 -0.0183 -0.0121
 3834TIP3    H132917   5.547   3.755   3.170  0.7357  0.0234  1.3563
 3834TIP3    H232918   5.539   3.620   3.102 -0.8154  0.8190 -0.0623
 3835TIP3   OH232919   6.362   0.222   2.830  0.0369 -0.3131 -0.0428
 3835TIP3    H132920   6.304   0.279   2.882  0.6968  1.5680 -1.3156
 3835TIP3    H232921   6.386   0.151   2.890 -0.1926  1.1504  1.8398
 3836TIP3   OH232922   0.936   0.746  14.994 -0.1293  0.0916 -0.7267
 3836TIP3    H132923   0.973   0.744  15.083  2.1648 -0.4254 -1.6565
 3836TIP3    H232924   0.924   0.839  14.976 -0.7684  0.1956  0.1784
 3837TIP3   OH232925   5.762   4.519  11.311  0.7119  0.3904 -0.1124
 3837TIP3    H132926   5.803   4.473  11.238 -0.3262 -1.5997  0.5231
 3837TIP3    H232927   5.821   4.505  11.385  0.2400 -0.1553  0.1563
 3838TIP3   OH232928   2.555   2.272  12.311 -0.0798 -0.1308 -0.2469
 3838TIP3    H132929   2.533   2.196  12.365  1.8185  1.4364  2.8662
 3838TIP3    H232930   2.608   2.236  12.240 -0.6868 -1.9484  0.1912
 3839TIP3   OH232931   6.050   0.649   5.484 -0.0672 -0.1043 -0.4370
 3839TIP3    H132932   6.128   0.610   5.444 -0.7590 -2.0701  0.0687
 3839TIP3    H232933   5.983   0.581   5.476 -1.4237  1.1523  0.1196
 3840TIP3   OH232934   1.184   4.527  12.264 -0.0993  0.6079  0.3671
 3840TIP3    H132935   1.105   4.520  12.210 -0.3798 -2.1577  1.0648
 3840TIP3    H232936   1.247   4.572  12.209 -1.1071 -0.1602 -1.4547
 3841TIP3   OH232937   1.430   5.141   5.384  0.7449  0.4912 -0.0531
 3841TIP3    H132938   1.445   5.130   5.478  1.2439  0.8713 -0.0849
 3841TIP3    H232939   1.494   5.207   5.357  0.3009  0.7131 -0.5736
 3842TIP3   OH232940   1.911   3.221  15.180  0.3739  0.3476 -1.0498
 3842TIP3    H132941   1.858   3.168  15.121 -0.1350  1.4009 -1.5567
 3842TIP3    H232942   1.901   3.180  15.266 -2.5346  1.4066 -0.8167
 3843TIP3   OH232943   5.759   4.286   0.912 -0.2033  0.5603  0.7616
 3843TIP3    H132944   5.673   4.256   0.884  0.2370  0.8025 -0.9735
 3843TIP3    H232945   5.743   4.373   0.949 -0.5505  1.2599 -0.9354
 3844TIP3   OH232946   1.095   5.401  11.601  0.2081 -0.2203 -0.1659
 3844TIP3    H132947   1.081   5.347  11.524 -2.3656  1.5484 -1.0086
 3844TIP3    H232948   1.030   5.372  11.664  0.7567 -0.0876  0.4701
 3845TIP3   OH232949   3.955   0.204  13.584  0.0157  0.3370 -0.4739
 3845TIP3    H132950   4.027   0.196  13.646 -1.3470  1.3787  1.2670
 3845TIP3    H232951   3.985   0.271  13.521  1.5381 -0.9863 -1.1941
 3846TIP3   OH232952   4.834   3.175   4.321  0.2970 -0.0731 -0.0137
 3846TIP3    H132953   4.782   3.138   4.393  0.5371 -0.5030 -0.0598
 3846TIP3    H232954   4.884   3.246   4.362 -0.2287  0.2608  0.0565
 3847TIP3   OH232955   5.891   1.390  12.902  0.5657  0.5294 -0.0375
 3847TIP3    H132956   5.952   1.463  12.898 -0.6803  1.5310 -2.3106
 3847TIP3    H232957   5.925   1.328  12.838  0.9051 -0.3173  0.9540
 3848TIP3   OH232958   5.015   3.563   2.811  0.0681 -0.0843 -0.3793
 3848TIP3    H132959   4.954   3.631   2.840 -1.4954 -1.9532  0.8903
 3848TIP3    H232960   5.050   3.527   2.892 -0.0975 -1.6440 -0.9899
 3849TIP3   OH232961   2.675   0.873   0.069 -0.2597  0.9615  0.4582
 3849TIP3    H132962   2.651   0.792   0.113  1.3378 -0.9116 -1.9954
 3849TIP3    H232963   2.597   0.896   0.018  0.0588 -0.3167 -0.6308
 3850TIP3   OH232964   5.641   1.888   1.995  0.1916 -0.2546  0.0708
 3850TIP3    H132965   5.664   1.949   1.925 -0.6866  0.3365  0.2935
 3850TIP3    H232966   5.679   1.804   1.967  1.1489  0.3127 -0.3743
 3851TIP3   OH232967   0.370   5.645  13.532 -0.7662  0.6887 -0.7484
 3851TIP3    H132968   0.465   5.645  13.524 -0.7006 -1.2039 -0.3017
 3851TIP3    H232969   0.341   5.716  13.475  0.9667  2.0499  0.0192
 3852TIP3   OH232970   1.839   5.587  11.846 -0.2309 -0.5927 -0.3441
 3852TIP3    H132971   1.785   5.533  11.904 -1.1593 -1.7109 -2.2069
 3852TIP3    H232972   1.776   5.638  11.796  0.5391 -0.2132 -0.9336
 3853TIP3   OH232973   1.857   5.030   4.706 -0.1537 -0.2370  0.3649
 3853TIP3    H132974   1.915   4.973   4.756  0.0365  0.7452  1.2523
 3853TIP3    H232975   1.885   5.119   4.727 -0.9342  0.2109 -0.4501
 3854TIP3   OH232976   0.934   0.460   4.213  0.0913  0.0401 -0.0263
 3854TIP3    H132977   0.945   0.515   4.291 -0.7706  0.3492 -0.1206
 3854TIP3    H232978   0.875   0.510   4.157 -1.0278 -1.1647  0.0571
 3855TIP3   OH232979   5.251   3.362   2.098  0.1348 -0.0070  0.1998
 3855TIP3    H132980   5.305   3.346   2.175  0.1363 -1.5945 -0.1194
 3855TIP3    H232981   5.161   3.360   2.131  0.1181 -1.0819  0.1018
 3856TIP3   OH232982   0.351   2.365   1.780  0.3553  0.3599  0.3613
 3856TIP3    H132983   0.423   2.323   1.828  1.2082  0.0605 -1.1447
 3856TIP3    H232984   0.367   2.459   1.791 -0.8365  0.3212  2.6748
 3857TIP3   OH232985   0.556   5.971  13.379  0.1917 -0.3253  0.6937
 3857TIP3    H132986   0.561   6.019  13.297  0.3470  0.3040  1.0658
 3857TIP3    H232987   0.463   5.974  13.403  0.3273  0.5144  1.1360
 3858TIP3   OH232988   3.474   1.157   0.187  0.7047 -0.1838  0.2092
 3858TIP3    H132989   3.487   1.164   0.281  1.0710  1.1156  0.0742
 3858TIP3    H232990   3.385   1.191   0.173  0.4459 -0.8756  0.1383
 3859TIP3   OH232991   4.753   1.016  13.502 -0.3901  0.6458 -0.1289
 3859TIP3    H132992   4.839   1.034  13.540 -0.8305  0.2498  1.0846
 3859TIP3    H232993   4.717   1.103  13.483 -1.8392  1.1594  4.2238
 3860TIP3   OH232994   6.395   2.880   1.510  0.3838 -0.7374 -0.5884
 3860TIP3    H132995   6.439   2.878   1.595 -0.6459 -0.0009 -0.0388
 3860TIP3    H232996   6.467   2.888   1.447  1.1765 -1.6422  0.1685
 3861TIP3   OH232997   0.302   6.069  13.525  0.6417  0.0088  0.0665
 3861TIP3    H132998   0.285   6.143  13.583 -0.5219  0.3107 -0.6538
 3861TIP3    H232999   0.246   5.999  13.558 -0.5751  0.4020 -1.1128
 3862TIP3   OH233000   3.658   0.527   0.886 -0.1221  0.0540  0.0576
 3862TIP3    H133001   3.579   0.577   0.908 -0.8344 -1.2228  0.4630
 3862TIP3    H233002   3.730   0.589   0.900 -1.1710  1.9710 -2.6238
 3863TIP3   OH233003   3.213   2.964   3.533  0.4647 -0.1777  0.0785
 3863TIP3    H133004   3.185   3.027   3.466 -0.0589  1.0201  1.3880
 3863TIP3    H233005   3.196   2.878   3.494 -0.8701  0.5036 -0.9075
 3864TIP3   OH233006   5.578   0.503  15.916 -0.1870  0.2402  0.2778
 3864TIP3    H133007   5.632   0.426  15.900  1.2618  1.0510  1.1417
 3864TIP3    H233008   5.546   0.528  15.829  0.9281 -0.1822 -0.2675
 3865TIP3   OH233009   2.584   2.828   4.301  0.7159 -0.2255 -0.0523
 3865TIP3    H133010   2.538   2.748   4.327  0.8823  0.1727  1.5107
 3865TIP3    H233011   2.669   2.822   4.345  0.2254  1.4249  1.1860
 3866TIP3   OH233012   0.145   4.887   0.215 -0.2553  0.1822 -0.1122
 3866TIP3    H133013   0.129   4.903   0.308 -0.5629 -0.9571  0.0379
 3866TIP3    H233014   0.057   4.877   0.177 -0.1081 -0.1435 -0.3716
 3867TIP3   OH233015   6.767   1.100  11.511 -0.2396 -0.0817 -0.0518
 3867TIP3    H133016   6.812   1.039  11.453 -0.4051 -1.3607  1.1365
 3867TIP3    H233017   6.679   1.062  11.522 -0.3580  0.3864  0.6627
 3868TIP3   OH233018   1.908   0.473  13.273  0.7491 -0.3158  0.3481
 3868TIP3    H133019   1.905   0.534  13.199  0.5987 -0.4733  0.2254
 3868TIP3    H233020   1.828   0.491  13.322  0.4755 -0.7329  0.0584
 3869TIP3   OH233021   4.307   0.301  12.019 -0.2433 -0.4694  0.2512
 3869TIP3    H133022   4.299   0.208  12.000 -0.7856 -0.1417 -1.1644
 3869TIP3    H233023   4.240   0.319  12.085 -0.6701 -0.9318 -0.0543
 3870TIP3   OH233024   6.140   0.686  14.720  0.0093  0.2764  0.1766
 3870TIP3    H133025   6.198   0.636  14.663  0.8951 -0.0617  1.3473
 3870TIP3    H233026   6.086   0.737  14.660  0.9545 -0.0228 -0.9622
 3871TIP3   OH233027   2.562   3.125   3.188  0.2959 -0.5307  0.0988
 3871TIP3    H133028   2.596   3.203   3.231  1.9373 -1.0424 -0.2326
 3871TIP3    H233029   2.637   3.089   3.142 -1.0511 -0.9177 -1.8242
 3872TIP3   OH233030   6.402   4.716   4.879 -0.1794  0.1128  0.2697
 3872TIP3    H133031   6.339   4.656   4.920  1.0266 -0.4618  1.2889
 3872TIP3    H233032   6.486   4.672   4.888  0.3759  0.8667 -1.1391
 3873TIP3   OH233033   5.313   2.099  12.016  0.7796 -0.1772  0.4937
 3873TIP3    H133034   5.360   2.172  11.975  0.4984 -0.3193 -0.0990
 3873TIP3    H233035   5.268   2.056  11.943 -1.6642  0.9964  1.2728
 3874TIP3   OH233036   6.190   3.433  13.284  0.3163 -0.2114  0.0554
 3874TIP3    H133037   6.197   3.373  13.358 -1.7291  0.0153  0.4507
 3874TIP3    H233038   6.239   3.389  13.214  0.0938 -1.6446  0.7731
 3875TIP3   OH233039   6.545   3.180  11.138 -0.0119 -0.3045  0.0742
 3875TIP3    H133040   6.547   3.126  11.058  0.0788 -0.1051 -0.0576
 3875TIP3    H233041   6.634   3.173  11.173  0.3665  0.8506 -0.6628
 3876TIP3   OH233042   4.992   3.256  14.394 -0.5403  0.1812  0.5610
 3876TIP3    H133043   4.998   3.177  14.448  0.9063  0.8664  1.4415
 3876TIP3    H233044   5.004   3.224  14.304  0.3246 -0.5695  0.9334
 3877TIP3   OH233045   5.264   4.534   3.366 -0.2444  0.2434 -0.1330
 3877TIP3    H133046   5.305   4.594   3.428 -0.8236 -0.3091  0.8062
 3877TIP3    H233047   5.171   4.552   3.373 -0.3821 -0.4114 -0.2113
 3878TIP3   OH233048   0.464   3.403   4.029 -0.6364  0.3130  0.4330
 3878TIP3    H133049   0.427   3.453   3.956 -1.4170 -0.0666  0.5602
 3878TIP3    H233050   0.449   3.312   4.005 -1.1367  0.1926  1.1833
 3879TIP3   OH233051   5.389   2.275  15.396  0.8869 -0.1051 -0.3191
 3879TIP3    H133052   5.475   2.316  15.407  0.3042  0.8261  0.8990
 3879TIP3    H233053   5.329   2.333  15.443 -0.3407 -0.9876 -0.7872
 3880TIP3   OH233054   5.681   2.621   1.375 -0.4325 -0.2525 -0.0147
 3880TIP3    H133055   5.599   2.661   1.346 -1.3875 -2.1075  0.0684
 3880TIP3    H233056   5.671   2.528   1.355  1.2647 -0.6553  0.8968
 3881TIP3   OH233057   4.690   3.793  16.255 -0.6366  0.4814  0.7573
 3881TIP3    H133058   4.608   3.836  16.229  0.1948  1.6543  0.0790
 3881TIP3    H233059   4.754   3.820  16.190  0.2290 -0.7294  1.0775
 3882TIP3   OH233060   3.143   6.603  15.834  0.0339  0.5645  0.1430
 3882TIP3    H133061   3.195   6.536  15.789  0.3389  0.3864  0.7713
 3882TIP3    H233062   3.204   6.675  15.849 -0.3733  1.1180 -0.8156
 3883TIP3   OH233063   5.296   3.384   3.395  0.0396  0.0670  0.1102
 3883TIP3    H133064   5.289   3.479   3.394 -0.0321  0.0604 -0.1205
 3883TIP3    H233065   5.364   3.364   3.330 -1.5618 -0.1616 -1.5506
 3884TIP3   OH233066   3.844   4.001  13.838 -0.2122 -0.0867  0.3868
 3884TIP3    H133067   3.926   3.954  13.853 -0.8106 -1.2829 -0.0412
 3884TIP3    H233068   3.804   4.008  13.925  0.1321  0.1273  0.5317
 3885TIP3   OH233069   1.363   1.481  16.456  0.2317 -0.6677 -0.3862
 3885TIP3    H133070   1.289   1.422  16.440 -1.0129  0.4971  0.9886
 3885TIP3    H233071   1.386   1.467  16.548  1.5476 -0.8243 -0.7355
 3886TIP3   OH233072   5.639   2.774  15.815  0.3871 -0.5036  0.3878
 3886TIP3    H133073   5.551   2.810  15.802  0.7571  0.7207  1.1191
 3886TIP3    H233074   5.655   2.722  15.737 -0.2318  0.8489 -0.6801
 3887TIP3   OH233075   5.528   0.796   4.966  0.1560 -0.0477  0.3891
 3887TIP3    H133076   5.507   0.889   4.962 -0.9735 -0.3080  0.0568
 3887TIP3    H233077   5.525   0.767   4.875 -0.7759 -0.6798  0.6118
 3888TIP3   OH233078   2.910   5.331   3.916  0.2279 -0.1793  0.2668
 3888TIP3    H133079   2.818   5.304   3.919  0.8321 -2.2391  0.7297
 3888TIP3    H233080   2.926   5.353   3.824 -1.0788  1.5110  0.4179
 3889TIP3   OH233081   6.521   5.315   3.873  0.2536 -0.1116 -0.2852
 3889TIP3    H133082   6.517   5.368   3.953  1.5152 -0.7708  0.2320
 3889TIP3    H233083   6.435   5.273   3.868 -0.6653  1.7546 -0.5546
 3890TIP3   OH233084   4.989   4.665   1.969  0.3341 -0.5017 -0.0594
 3890TIP3    H133085   4.915   4.612   1.999  0.3874 -0.5691 -0.0464
 3890TIP3    H233086   4.949   4.747   1.939  0.4169  0.0975  1.4601
 3891TIP3   OH233087   6.035   1.103   4.420  0.3899  0.6668 -0.2963
 3891TIP3    H133088   5.995   1.150   4.493  1.9202  1.1292  0.2582
 3891TIP3    H233089   5.981   1.125   4.344  0.3647  2.3088  0.1917
 3892TIP3   OH233090   1.911   2.101   2.763  0.0757  0.5512 -0.0475
 3892TIP3    H133091   1.900   2.153   2.684 -0.6246 -0.1595 -0.4237
 3892TIP3    H233092   1.872   2.154   2.833  0.0462  0.8585 -0.2998
 3893TIP3   OH233093   6.491   2.840  10.986 -0.3057 -0.0724 -0.3083
 3893TIP3    H133094   6.530   2.864  11.070 -1.2767 -0.3052  0.2170
 3893TIP3    H233095   6.564   2.843  10.924  0.7848 -1.5828  0.8550
 3894TIP3   OH233096   3.244   0.857  11.496 -0.1875 -0.1962  0.2102
 3894TIP3    H133097   3.274   0.932  11.444  1.4787 -1.3504 -0.5613
 3894TIP3    H233098   3.277   0.873  11.584  1.8752 -0.9245 -0.3903
 3895TIP3   OH233099   4.414   1.362  17.077 -0.1612 -0.1201  0.4864
 3895TIP3    H133100   4.390   1.454  17.068 -0.3209 -0.0123  1.9446
 3895TIP3    H233101   4.504   1.358  17.043 -0.0492  0.6165  0.6821
 3896TIP3   OH233102   0.380   3.530   2.208 -0.0661  0.1493 -0.3348
 3896TIP3    H133103   0.384   3.618   2.171  0.5979  0.4623  0.4544
 3896TIP3    H233104   0.345   3.543   2.297 -0.0777 -0.3940 -0.2599
 3897TIP3   OH233105   2.821   2.067   2.298 -0.5670 -0.4254  0.3603
 3897TIP3    H133106   2.777   2.087   2.380 -1.2980  1.6411 -0.4992
 3897TIP3    H233107   2.900   2.121   2.298 -0.5076 -0.5051 -0.2241
 3898TIP3   OH233108   3.741   0.499   4.348  0.1728 -0.2509 -0.1256
 3898TIP3    H133109   3.667   0.461   4.300  1.0611 -1.1556 -0.8154
 3898TIP3    H233110   3.809   0.432   4.341  1.1006  0.6458  0.3748
 3899TIP3   OH233111   2.123   2.447  15.876 -0.5683 -0.3262  0.4572
 3899TIP3    H133112   2.166   2.422  15.795  2.7877 -0.9540  2.3382
 3899TIP3    H233113   2.034   2.411  15.868  0.4466 -2.4652 -1.9336
 3900TIP3   OH233114   0.322   3.095   2.743 -0.4274  0.0245  0.5086
 3900TIP3    H133115   0.354   3.130   2.660  0.4857  1.0561  1.2861
 3900TIP3    H233116   0.256   3.159   2.772  0.4415  0.5501  1.3776
 3901TIP3   OH233117   6.004   2.419   1.656  0.3226  0.0416  0.3356
 3901TIP3    H133118   5.952   2.353   1.611  1.7645 -0.8766  0.0046
 3901TIP3    H233119   5.965   2.502   1.629 -2.1831 -0.6721  1.5962
 3902TIP3   OH233120   6.309   2.307  15.957  0.0936 -0.4936 -0.2712
 3902TIP3    H133121   6.285   2.395  15.986 -1.1481 -0.5816 -1.0084
 3902TIP3    H233122   6.378   2.322  15.892  1.6360 -0.2102  1.3848
 3903TIP3   OH233123   3.326   2.309   3.729 -0.4960 -0.5355  0.3985
 3903TIP3    H133124   3.254   2.286   3.788 -0.8371  0.1305  0.2405
 3903TIP3    H233125   3.404   2.307   3.786 -0.9425  0.9658  1.0748
 3904TIP3   OH233126   1.518   1.671   0.760  0.2424  0.3167 -0.3776
 3904TIP3    H133127   1.502   1.714   0.844 -2.7350 -0.4353 -0.4693
 3904TIP3    H233128   1.613   1.663   0.754  0.5283  0.7200  2.7483
 3905TIP3   OH233129   5.198   1.329   5.351  0.3680 -1.5157 -0.6145
 3905TIP3    H133130   5.214   1.404   5.294 -0.3934 -0.9688 -0.1132
 3905TIP3    H233131   5.212   1.253   5.295 -1.1491 -0.9838 -1.7646
 3906TIP3   OH233132   3.504   1.880  13.645 -0.3625  0.3658  0.2244
 3906TIP3    H133133   3.510   1.890  13.550  0.8237 -0.0770  0.2454
 3906TIP3    H233134   3.487   1.969  13.677  1.7908  0.9846 -0.2274
 3907TIP3   OH233135   6.111   1.409  12.336  0.5434 -0.0426 -0.2744
 3907TIP3    H133136   6.069   1.478  12.387 -1.4064 -1.6093  0.2970
 3907TIP3    H233137   6.161   1.359  12.401  1.3374  0.3640 -0.5664
 3908TIP3   OH233138   1.391   6.700   0.913  0.1371 -0.2218 -0.2853
 3908TIP3    H133139   1.394   6.782   0.863  0.4267  0.0571  0.1873
 3908TIP3    H233140   1.344   6.723   0.993 -0.1782 -0.6300 -0.3504
 3909TIP3   OH233141   5.700   1.685   4.286 -0.0424  0.0791 -0.5628
 3909TIP3    H133142   5.670   1.594   4.286  0.2995 -0.0660  1.9807
 3909TIP3    H233143   5.786   1.682   4.328 -0.0543  1.5960 -0.3978
 3910TIP3   OH233144   5.452   5.578  17.235  0.2098 -0.0174  0.4350
 3910TIP3    H133145   5.420   5.669  17.233  0.7326  0.1384 -2.0944
 3910TIP3    H233146   5.419   5.543  17.318 -3.0359  1.3788 -0.2121
 3911TIP3   OH233147   1.150   5.317   0.289  0.4781  0.2656 -0.1521
 3911TIP3    H133148   1.129   5.264   0.366 -3.2122  0.7590 -0.7481
 3911TIP3    H233149   1.082   5.295   0.225  2.6220  0.9420 -2.7928
 3912TIP3   OH233150   1.656   6.560   4.050  0.3418  0.1040  0.1824
 3912TIP3    H133151   1.605   6.482   4.071  1.1958 -0.4050  0.4004
 3912TIP3    H233152   1.592   6.630   4.045 -0.3902 -0.5446  0.3516
 3913TIP3   OH233153   2.266   2.472  12.051 -0.3640  0.0866  0.5607
 3913TIP3    H133154   2.276   2.544  12.113  0.9724 -0.3985  0.9086
 3913TIP3    H233155   2.330   2.407  12.078 -0.5734 -0.6339 -0.6239
 3914TIP3   OH233156   2.809   1.426  15.642  0.6285 -0.5341  0.2435
 3914TIP3    H133157   2.800   1.373  15.563 -0.9520 -0.5021  0.3793
 3914TIP3    H233158   2.738   1.397  15.699  0.9931  0.3064  1.1578
 3915TIP3   OH233159   6.355   0.008  12.780 -0.2275 -0.1998  0.4935
 3915TIP3    H133160   6.382  -0.084  12.781  1.3585  0.2747  3.4795
 3915TIP3    H233161   6.436   0.058  12.768 -1.1610  0.8231 -1.8771
 3916TIP3   OH233162   6.256   4.379   6.358  0.6146  0.2878  0.2304
 3916TIP3    H133163   6.228   4.470   6.372 -1.6124 -0.3630  0.0988
 3916TIP3    H233164   6.209   4.351   6.280  0.7631 -1.2174  0.6710
 3917TIP3   OH233165   3.606   0.149   3.571  0.2516 -0.3490  0.2851
 3917TIP3    H133166   3.619   0.217   3.506 -0.2212 -0.7384 -0.2235
 3917TIP3    H233167   3.511   0.148   3.587  0.4007 -0.0196  1.2318
 3918TIP3   OH233168   5.065   6.670   4.143  0.3787 -0.4069  0.0133
 3918TIP3    H133169   5.032   6.699   4.228  3.5545  2.8094  0.3186
 3918TIP3    H233170   4.994   6.686   4.082  0.0901  3.0471  1.1568
 3919TIP3   OH233171   4.947   5.630   0.995 -0.1088 -0.0017 -0.5498
 3919TIP3    H133172   5.019   5.579   1.031 -0.1942 -0.2240 -0.6954
 3919TIP3    H233173   4.909   5.574   0.927 -0.0763  0.3324 -0.8465
 3920TIP3   OH233174   0.952   5.372  16.573 -0.0942 -0.1818 -0.2355
 3920TIP3    H133175   1.029   5.315  16.578  0.9351  0.9591 -2.2772
 3920TIP3    H233176   0.945   5.409  16.661  0.9858 -1.1984  0.3029
 3921TIP3   OH233177   2.335   3.266  15.438  0.6361 -0.7383 -0.0637
 3921TIP3    H133178   2.316   3.228  15.352  0.6144 -0.7373 -0.0593
 3921TIP3    H233179   2.277   3.341  15.445  1.2446 -0.2322 -0.4029
 3922TIP3   OH233180   2.671   3.720  16.586 -0.3382  0.1358 -0.9153
 3922TIP3    H133181   2.676   3.625  16.587  0.4734  0.1556 -1.9806
 3922TIP3    H233182   2.660   3.743  16.494 -1.0062  1.0574 -0.6208
 3923TIP3   OH233183   6.610   3.709   4.381  0.2423  0.3002 -0.1737
 3923TIP3    H133184   6.626   3.786   4.326 -2.9677  1.5188  0.4806
 3923TIP3    H233185   6.560   3.650   4.324 -1.7132  0.8945  0.8801
 3924TIP3   OH233186   0.321   0.603  12.531  0.0172  0.1999 -0.3231
 3924TIP3    H133187   0.362   0.518  12.513 -0.8582 -0.7980  2.1410
 3924TIP3    H233188   0.261   0.617  12.459  2.2384  0.1098 -2.2540
 3925TIP3   OH233189   2.088   4.098  16.996 -0.1230 -0.7220  0.0466
 3925TIP3    H133190   2.116   4.179  17.038  0.1336 -0.7462 -0.0786
 3925TIP3    H233191   2.006   4.075  17.039  0.2147 -0.8250  0.6405
 3926TIP3   OH233192   5.169   2.328  11.514 -0.1046  0.4016 -0.2849
 3926TIP3    H133193   5.137   2.406  11.558 -1.9987  0.0661 -1.0145
 3926TIP3    H233194   5.145   2.256  11.573 -1.5478  0.0657 -1.2680
 3927TIP3   OH233195   1.611   3.788  16.061 -0.1816 -0.0132  0.2709
 3927TIP3    H133196   1.618   3.883  16.057 -0.1955 -0.0105  0.3156
 3927TIP3    H233197   1.523   3.769  16.028 -0.8740  0.1108  2.0168
 3928TIP3   OH233198   4.570   4.991  14.402 -0.2868 -0.0438 -0.5909
 3928TIP3    H133199   4.642   4.980  14.464 -0.9968  0.0848  0.2798
 3928TIP3    H233200   4.608   5.038  14.328  0.7418 -0.8104 -0.5657
 3929TIP3   OH233201   0.918   5.439   2.174  1.0089 -0.3887 -0.5894
 3929TIP3    H133202   1.013   5.428   2.173  0.9325 -1.0249 -0.6053
 3929TIP3    H233203   0.906   5.534   2.163  1.5992 -0.4646 -2.0939
 3930TIP3   OH233204   2.972   5.024   0.775 -0.0667 -0.2413  0.0513
 3930TIP3    H133205   3.037   5.076   0.824 -1.1498  2.6091 -1.4455
 3930TIP3    H233206   2.910   4.995   0.842  0.5918  0.3320  0.9309
 3931TIP3   OH233207   3.161   2.706   2.618  0.7978  0.0002 -0.5823
 3931TIP3    H133208   3.168   2.743   2.707  1.4209 -1.0533 -0.1893
 3931TIP3    H233209   3.197   2.618   2.626 -0.9895 -0.8308 -1.4389
 3932TIP3   OH233210   6.063   4.393   1.397  0.0392 -0.0934  0.2000
 3932TIP3    H133211   6.119   4.392   1.320 -0.7186  0.5056 -0.3565
 3932TIP3    H233212   6.042   4.486   1.411 -1.2888 -0.3680  0.0648
 3933TIP3   OH233213   6.101   6.157  13.719  0.3496 -0.2579 -0.3892
 3933TIP3    H133214   6.078   6.113  13.801 -1.4156  2.9160  0.8942
 3933TIP3    H233215   6.020   6.154  13.667  0.6683  0.1382 -0.9138
 3934TIP3   OH233216   2.182   3.116   1.680  0.0621  0.1705  0.2190
 3934TIP3    H133217   2.181   3.212   1.672  1.2677  0.2152  0.5299
 3934TIP3    H233218   2.089   3.092   1.682 -0.2698  1.1674 -1.6806
 3935TIP3   OH233219   0.525   2.227  14.903  0.5060  0.3431 -0.4295
 3935TIP3    H133220   0.482   2.308  14.933  0.2562 -0.0062  0.1557
 3935TIP3    H233221   0.588   2.257  14.838  0.6603  1.0487  0.0396
 3936TIP3   OH233222   3.749   0.924  12.805 -0.2052  0.2025  0.1067
 3936TIP3    H133223   3.722   0.850  12.859 -0.4783  0.1908 -0.0484
 3936TIP3    H233224   3.830   0.954  12.845 -0.8904  0.7704  1.0752
 3937TIP3   OH233225   1.105   6.342   2.484  0.3660  0.0071 -0.1186
 3937TIP3    H133226   1.136   6.431   2.469 -0.1075  0.0273 -1.0434
 3937TIP3    H233227   1.025   6.353   2.536 -0.0677  0.1691 -0.8104
 3938TIP3   OH233228   0.639   5.502   2.578 -0.2583  0.8383  0.4053
 3938TIP3    H133229   0.667   5.592   2.566  1.7916  0.2240  0.4062
 3938TIP3    H233230   0.717   5.449   2.558 -2.2544 -1.1013 -2.6458
 3939TIP3   OH233231   1.268   6.191   5.751 -0.0349 -0.2267  0.1616
 3939TIP3    H133232   1.223   6.214   5.832 -1.9472 -2.4639 -0.2030
 3939TIP3    H233233   1.349   6.149   5.780  0.1805  0.6820  0.8920
 3940TIP3   OH233234   5.801   6.715  11.071 -0.4669  0.1569 -0.0648
 3940TIP3    H133235   5.825   6.633  11.027  1.9193 -0.0471  1.4989
 3940TIP3    H233236   5.869   6.777  11.044 -0.3785  0.7073  1.3725
 3941TIP3   OH233237   1.204   6.073  13.881  0.2689 -0.3242  0.1848
 3941TIP3    H133238   1.256   6.008  13.927 -0.1716 -1.3081 -0.6787
 3941TIP3    H233239   1.147   6.022  13.823 -0.0706  0.8263 -0.5205
 3942TIP3   OH233240   5.311   3.796  15.337 -0.0009  0.5954  0.3352
 3942TIP3    H133241   5.294   3.805  15.431 -2.9216  1.0187 -0.1903
 3942TIP3    H233242   5.224   3.799  15.296  1.0583 -1.6549 -2.2260
 3943TIP3   OH233243   2.324   6.375   6.017  0.1331 -0.3573  0.1693
 3943TIP3    H133244   2.353   6.293   6.058 -1.6509  0.0137  2.2227
 3943TIP3    H233245   2.394   6.396   5.955  1.0988 -2.9025  0.3238
 3944TIP3   OH233246   4.962   3.647  15.662  0.8777 -0.0371 -0.2293
 3944TIP3    H133247   5.001   3.633  15.748 -0.2424  1.4396  0.5537
 3944TIP3    H233248   4.870   3.623  15.674  0.6109  0.6433 -0.8575
 3945TIP3   OH233249   1.164   2.953   4.760  0.3800 -0.1807 -0.6017
 3945TIP3    H133250   1.111   2.926   4.685  0.8806 -1.4636 -0.5062
 3945TIP3    H233251   1.219   3.024   4.726  1.2038 -1.3028 -1.6981
 3946TIP3   OH233252   2.093   2.805   0.241  0.0012  0.8446 -0.0756
 3946TIP3    H133253   2.045   2.725   0.219  1.5927 -0.1237 -0.1510
 3946TIP3    H233254   2.145   2.824   0.163  1.8225  0.2871  0.9741
 3947TIP3   OH233255   2.693   0.481  11.225 -0.2594  0.0245 -0.0228
 3947TIP3    H133256   2.764   0.421  11.201 -0.5802 -0.2021 -0.4145
 3947TIP3    H233257   2.733   0.541  11.288 -0.4900 -1.9335  2.0631
 3948TIP3   OH233258   2.177   0.188   1.739  0.5340  0.1933 -0.7719
 3948TIP3    H133259   2.190   0.189   1.834  0.6338  0.1623 -0.7853
 3948TIP3    H233260   2.144   0.276   1.719  0.0161  0.0283 -0.6380
 3949TIP3   OH233261   6.393   1.070  14.396  0.4047  0.1907  0.6302
 3949TIP3    H133262   6.407   1.156  14.436 -0.7939 -0.1345  1.7544
 3949TIP3    H233263   6.472   1.021  14.419  0.3130  0.4257  1.4680
 3950TIP3   OH233264   5.442   4.466   1.769  0.0944 -0.6203 -0.4752
 3950TIP3    H133265   5.523   4.426   1.738 -0.7116 -0.8208 -2.3683
 3950TIP3    H233266   5.413   4.522   1.697 -0.6769  0.6239  0.7646
 3951TIP3   OH233267   1.961   3.785  12.796 -1.2204  0.1494 -0.2758
 3951TIP3    H133268   1.933   3.860  12.849 -3.9612 -1.0677  0.0965
 3951TIP3    H233269   1.978   3.716  12.859 -0.1201  0.0223 -0.7066
 3952TIP3   OH233270   1.282   6.312  13.196 -0.0743 -0.3113 -0.0325
 3952TIP3    H133271   1.205   6.299  13.141 -0.5612  0.3635  0.4811
 3952TIP3    H233272   1.248   6.306  13.286 -0.0713  2.8535  0.2405
 3953TIP3   OH233273   0.244   4.115  13.185 -0.0940 -0.3715  0.1829
 3953TIP3    H133274   0.210   4.110  13.096 -0.2549  0.3336  0.2004
 3953TIP3    H233275   0.168   4.097  13.241 -0.3531  0.7380  0.2102
 3954TIP3   OH233276   5.464   1.320   0.253 -0.1024  0.2739 -1.4481
 3954TIP3    H133277   5.397   1.385   0.234  0.3974  0.7644 -1.5503
 3954TIP3    H233278   5.533   1.338   0.190  0.4037  0.1763 -0.9261
 3955TIP3   OH233279   4.479   1.164  15.781 -0.2113  0.2097 -0.3339
 3955TIP3    H133280   4.493   1.173  15.687  0.1367  1.9604 -0.1208
 3955TIP3    H233281   4.443   1.249  15.809  0.4570 -0.0079  1.2554
 3956TIP3   OH233282   0.018   3.508  11.630  0.3959  0.2845 -0.6332
 3956TIP3    H133283   0.010   3.417  11.598 -1.4281  0.9302 -2.1074
 3956TIP3    H233284  -0.009   3.503  11.722 -0.2768 -0.5853 -0.8585
 3957TIP3   OH233285   3.250   3.516   2.073  0.0703 -0.6969 -0.4764
 3957TIP3    H133286   3.246   3.570   2.152 -0.5593  0.0403 -1.0012
 3957TIP3    H233287   3.340   3.484   2.070  0.6282  0.8278 -0.4723
 3958TIP3   OH233288   1.648   0.545   3.416  0.2048  0.2926 -0.4584
 3958TIP3    H133289   1.694   0.476   3.369  3.0473  0.7976  1.4736
 3958TIP3    H233290   1.625   0.505   3.500  0.0904  1.0838 -0.1141
 3959TIP3   OH233291   2.386   6.141  14.730  0.3718  0.0105  0.0093
 3959TIP3    H133292   2.307   6.157  14.782  0.2137 -1.2920  0.1811
 3959TIP3    H233293   2.365   6.174  14.643 -0.6614 -1.0568 -0.1561
 3960TIP3   OH233294   5.300   4.410  11.806  0.6049  0.0591 -0.0807
 3960TIP3    H133295   5.337   4.498  11.815 -2.7304  1.3737  1.7269
 3960TIP3    H233296   5.244   4.414  11.729 -1.8232  0.4387  1.6429
 3961TIP3   OH233297   6.467   3.773  12.854  0.1850 -0.5416 -0.3523
 3961TIP3    H133298   6.377   3.753  12.828 -0.4387  0.3454  1.0459
 3961TIP3    H233299   6.484   3.860  12.818 -0.5005  0.4657  1.6654
 3962TIP3   OH233300   2.988   3.147  13.355 -0.4134  0.0444 -0.2968
 3962TIP3    H133301   2.990   3.081  13.424 -2.0885  0.0523 -0.2091
 3962TIP3    H233302   3.035   3.108  13.282  1.1125 -0.0802  0.7393
 3963TIP3   OH233303   2.200   1.043   1.829  0.4251  0.5253 -0.1209
 3963TIP3    H133304   2.143   0.965   1.833  0.1789  0.6015 -1.6397
 3963TIP3    H233305   2.287   1.008   1.813  0.3681  0.5421 -0.4723
 3964TIP3   OH233306   4.388   5.908  16.053  0.7318 -0.0536 -0.0665
 3964TIP3    H133307   4.384   6.003  16.047  1.2169  0.0602  1.3917
 3964TIP3    H233308   4.365   5.878  15.965 -1.3259  1.3533 -0.0413
 3965TIP3   OH233309   1.082   1.783  15.124  0.5777 -0.1021 -0.8130
 3965TIP3    H133310   1.116   1.870  15.143  0.5342 -0.0902 -0.7907
 3965TIP3    H233311   1.018   1.766  15.193  1.5568 -0.6895 -0.0377
 3966TIP3   OH233312   4.645   0.820  15.066 -0.0670 -0.2964  0.4175
 3966TIP3    H133313   4.644   0.731  15.101  0.8568  0.7421  3.2132
 3966TIP3    H233314   4.737   0.846  15.067 -0.2709  0.5451 -0.8103
 3967TIP3   OH233315   5.369   5.994   6.231 -0.5648 -0.0465  0.3062
 3967TIP3    H133316   5.368   6.050   6.309  1.6381 -0.2881  0.5243
 3967TIP3    H233317   5.458   6.001   6.197 -0.5938 -2.4824 -0.3634
 3968TIP3   OH233318   0.404   5.795   4.046  0.0764 -0.1580  0.3088
 3968TIP3    H133319   0.344   5.750   4.107  0.5888  0.2373  1.1117
 3968TIP3    H233320   0.380   5.887   4.054  1.6189  0.1510  1.5739
 3969TIP3   OH233321   2.511   6.785   1.373  0.1876  0.2964  0.7085
 3969TIP3    H133322   2.442   6.845   1.404  0.4059  0.2199  1.3565
 3969TIP3    H233323   2.516   6.800   1.279 -1.2459 -0.2494  0.5407
 3970TIP3   OH233324   4.811   4.060  13.886 -0.4651 -0.2866  0.9543
 3970TIP3    H133325   4.811   4.126  13.956  1.8109  0.3776  0.3620
 3970TIP3    H233326   4.728   4.075  13.840 -1.1662  0.4508  2.3958
 3971TIP3   OH233327   1.697   5.195  13.016 -0.4708  0.0450  0.1717
 3971TIP3    H133328   1.681   5.160  12.928  0.7919 -1.8786  0.6935
 3971TIP3    H233329   1.792   5.193  13.025 -0.7244 -3.6634  3.1235
 3972TIP3   OH233330   0.144   1.154  16.156 -0.2364 -0.3333 -0.5796
 3972TIP3    H133331   0.100   1.201  16.085  0.8982  1.4043 -0.1644
 3972TIP3    H233332   0.227   1.126  16.118  0.7976  1.4349  0.2944
 3973TIP3   OH233333   4.759   4.595  15.909 -0.1508 -0.5946  0.4796
 3973TIP3    H133334   4.828   4.543  15.868  1.0260  1.7944 -0.6643
 3973TIP3    H233335   4.799   4.682  15.922 -2.2801  0.2412  1.6940
 3974TIP3   OH233336   2.832   2.027   0.501 -0.3619 -0.6083  0.1698
 3974TIP3    H133337   2.779   2.005   0.424 -1.6808 -1.7770  1.3914
 3974TIP3    H233338   2.774   2.078   0.556  0.4717 -0.0722  0.5528
 3975TIP3   OH233339   1.847   1.266   0.357 -0.8569  1.0301 -0.3575
 3975TIP3    H133340   1.818   1.300   0.442 -0.5189 -0.1767  0.2406
 3975TIP3    H233341   1.846   1.171   0.367 -0.8356  0.8775 -1.7172
 3976TIP3   OH233342   6.045   1.367   1.470  0.0636 -0.1279 -0.1308
 3976TIP3    H133343   5.979   1.405   1.411  0.2002  0.3472  0.0166
 3976TIP3    H233344   6.098   1.311   1.414 -0.7357 -0.8530 -0.1666
 3977TIP3   OH233345   0.773   1.527   5.458  0.9041 -0.0469 -0.0646
 3977TIP3    H133346   0.818   1.459   5.508  0.5447 -0.8628 -0.8429
 3977TIP3    H233347   0.702   1.482   5.413 -0.5577  1.1830  0.9411
 3978TIP3   OH233348   1.368   4.903   0.522  0.8381 -0.9080  0.5559
 3978TIP3    H133349   1.361   4.876   0.614 -1.5614 -0.2195  0.6168
 3978TIP3    H233350   1.329   4.990   0.520 -0.5586 -1.5419 -1.3847
 3979TIP3   OH233351   1.852   5.412  11.317  0.1396 -0.0015  0.0617
 3979TIP3    H133352   1.811   5.378  11.397 -0.5508 -1.5852 -0.9395
 3979TIP3    H233353   1.943   5.428  11.342 -0.6296  1.8255  1.8252
 3980TIP3   OH233354   3.730   2.749  13.348  0.2237  0.1083  0.0006
 3980TIP3    H133355   3.676   2.734  13.270 -0.1892  0.4174  0.2190
 3980TIP3    H233356   3.692   2.693  13.415  1.8605 -1.7244 -0.5718
 3981TIP3   OH233357   2.667   2.592   0.581 -0.1946  0.0992 -0.0267
 3981TIP3    H133358   2.606   2.582   0.654 -3.4094 -0.4133 -2.6277
 3981TIP3    H233359   2.699   2.503   0.564  2.3764  0.5540  2.1560
 3982TIP3   OH233360   3.139   3.344   5.492  0.1457  0.2306  0.2553
 3982TIP3    H133361   3.116   3.354   5.584  0.7564  0.9346  0.3360
 3982TIP3    H233362   3.235   3.348   5.490  0.1565 -0.1658 -0.3638
 3983TIP3   OH233363   5.917   5.655   4.957 -0.6208 -0.1743  0.3469
 3983TIP3    H133364   5.899   5.685   5.046  1.0972  0.7096  0.4215
 3983TIP3    H233365   5.871   5.718   4.901 -0.2213  0.3304  0.5777
 3984TIP3   OH233366   2.060   4.806   5.736  0.1424  0.0566  0.4220
 3984TIP3    H133367   2.154   4.813   5.754 -0.0387  0.1872  1.3731
 3984TIP3    H233368   2.033   4.727   5.784 -0.3711  0.4490  0.7905
 3985TIP3   OH233369   2.185   5.886   3.102  0.0184  0.4054 -0.3514
 3985TIP3    H133370   2.158   5.801   3.135 -0.7984  1.3954  1.5817
 3985TIP3    H233371   2.243   5.865   3.028  1.4822 -1.8503  1.3626
 3986TIP3   OH233372   5.873   1.205  12.008  0.8625 -0.0047 -0.3180
 3986TIP3    H133373   5.854   1.136  11.944  1.1776  0.3923 -0.8482
 3986TIP3    H233374   5.923   1.270  11.958  0.0058  0.9092  0.0095
 3987TIP3   OH233375   3.812   0.746   1.910 -0.2790 -0.5966 -0.1198
 3987TIP3    H133376   3.796   0.775   1.820  0.1626 -0.5794 -0.1937
 3987TIP3    H233377   3.734   0.772   1.958 -1.0308 -1.6291 -0.7417
 3988TIP3   OH233378   3.714   1.028  14.025  0.1067  0.6824  0.1565
 3988TIP3    H133379   3.620   1.007  14.024  0.2068  0.1544 -2.3067
 3988TIP3    H233380   3.718   1.117  13.988  0.6892 -0.0017 -1.4934
 3989TIP3   OH233381   6.304   4.287   4.955 -0.2189 -0.3202  0.0066
 3989TIP3    H133382   6.277   4.377   4.939  0.9278 -0.0564 -0.4731
 3989TIP3    H233383   6.231   4.234   4.926  0.0658  0.3499 -1.9774
 3990TIP3   OH233384   3.981   3.598   3.733 -0.0798 -0.2580  0.2744
 3990TIP3    H133385   3.964   3.673   3.791 -1.1522 -0.5091  0.3062
 3990TIP3    H233386   4.021   3.533   3.790  2.8478  1.0504 -0.2130
 3991TIP3   OH233387   3.270   6.317   3.087 -0.3114  0.3921 -0.0688
 3991TIP3    H133388   3.279   6.404   3.048  0.0646  1.2646  1.8957
 3991TIP3    H233389   3.357   6.296   3.120 -0.6717 -0.2253  0.5041
 3992TIP3   OH233390   5.336   2.342   3.708  0.1202  0.4054  0.0439
 3992TIP3    H133391   5.423   2.381   3.700  0.6252 -0.8002 -0.5477
 3992TIP3    H233392   5.353   2.252   3.738 -0.8680 -0.0996 -0.8909
 3993TIP3   OH233393   5.241   6.512   0.607  0.3466 -0.4878 -0.2829
 3993TIP3    H133394   5.246   6.535   0.514 -1.4534  0.5476 -0.1343
 3993TIP3    H233395   5.208   6.591   0.650 -0.2228 -1.4273  1.0487
 3994TIP3   OH233396   6.346   5.148  12.625 -0.1067  0.3031  0.5421
 3994TIP3    H133397   6.383   5.226  12.584  0.4304 -0.7336 -0.9900
 3994TIP3    H233398   6.264   5.179  12.665 -0.0900  1.5762 -0.3707
 3995TIP3   OH233399   0.232   4.243  16.423 -0.5005 -0.1523  0.3851
 3995TIP3    H133400   0.248   4.248  16.517 -0.4567 -0.5870  0.4025
 3995TIP3    H233401   0.275   4.161  16.396  1.4318  1.0925 -0.4035
 3996TIP3   OH233402   1.504   1.925  13.404  0.1452  0.3509 -0.3481
 3996TIP3    H133403   1.511   1.841  13.358  0.5047  1.8441 -3.1604
 3996TIP3    H233404   1.593   1.961  13.400 -0.3880  1.6368 -0.7163
 3997TIP3   OH233405   0.041   3.997  12.330  0.3460 -0.4035 -0.4639
 3997TIP3    H133406   0.094   4.040  12.397 -0.1015 -0.4652 -0.0686
 3997TIP3    H233407   0.099   3.990  12.255  0.4281  0.8959 -0.5321
 3998TIP3   OH233408   5.527   5.791  14.749 -0.4962 -0.2201 -0.1562
 3998TIP3    H133409   5.443   5.746  14.741 -0.5600  0.0787 -1.3093
 3998TIP3    H233410   5.505   5.884  14.742 -0.1729 -0.0870  0.5148
 3999TIP3   OH233411   1.202   6.104   0.827 -0.2099  0.3539  0.7570
 3999TIP3    H133412   1.178   6.176   0.884 -1.1919  1.1774 -0.6603
 3999TIP3    H233413   1.262   6.143   0.763 -0.0074 -0.2869  0.5480
 4000TIP3   OH233414   6.647   2.886  11.465  0.1589  0.4631  0.7293
 4000TIP3    H133415   6.666   2.822  11.396  0.2633  2.3545 -1.0704
 4000TIP3    H233416   6.635   2.834  11.544  4.0170 -1.5123  0.1185
 4001TIP3   OH233417   5.037   1.145  15.285 -0.6867  0.0371 -0.1399
 4001TIP3    H133418   5.115   1.092  15.297 -0.3003  0.8670  1.0651
 4001TIP3    H233419   5.048   1.185  15.198  0.2719  0.2219  0.0643
 4002TIP3   OH233420   0.674   0.304   1.702 -0.3212  0.6953  0.2013
 4002TIP3    H133421   0.759   0.329   1.737 -0.8062  0.8990  1.2284
 4002TIP3    H233422   0.614   0.312   1.775 -0.5322 -3.3778  0.5773
 4003TIP3   OH233423   5.886   3.301   5.899 -0.3467 -0.1825 -0.2920
 4003TIP3    H133424   5.926   3.327   5.982  2.1910  1.2642 -1.9183
 4003TIP3    H233425   5.951   3.243   5.859 -0.6817  0.7292 -2.1704
 4004TIP3   OH233426   5.356   3.599   5.152 -0.0297  0.1650 -0.1356
 4004TIP3    H133427   5.331   3.533   5.087  0.0206  0.0461 -0.0360
 4004TIP3    H233428   5.322   3.681   5.118 -1.5434 -0.1663  0.5540
 4005TIP3   OH233429   2.283   2.469  13.218  0.1639  0.3641  0.0950
 4005TIP3    H133430   2.296   2.374  13.220 -2.8475 -0.0963  0.3443
 4005TIP3    H233431   2.368   2.504  13.194  0.8147 -2.5316 -2.2040
 4006TIP3   OH233432   3.262   0.046  15.884 -0.2145 -0.8525  0.6093
 4006TIP3    H133433   3.333   0.110  15.877 -1.3773  0.2976 -0.9364
 4006TIP3    H233434   3.240   0.045  15.977  1.4485 -0.8158  1.0183
 4007TIP3   OH233435   1.636   3.965  14.956  0.3099 -0.8426 -0.2055
 4007TIP3    H133436   1.651   3.947  14.863  2.2828 -1.2215  0.1602
 4007TIP3    H233437   1.671   4.053  14.970  0.4834 -0.9909  0.2932
 4008TIP3   OH233438   1.036   3.893  15.034 -0.9169 -0.0027 -0.2023
 4008TIP3    H133439   1.118   3.845  15.023 -0.1220  1.7527 -2.2621
 4008TIP3    H233440   0.970   3.826  15.046  0.8784 -1.4485  2.1323
 4009TIP3   OH233441   0.630   3.788   6.276  0.5522  0.4766  0.4231
 4009TIP3    H133442   0.580   3.719   6.232  0.6203  1.4777 -1.2571
 4009TIP3    H233443   0.564   3.837   6.325  0.1411  0.7445 -0.3984
 4010TIP3   OH233444   1.751   0.790   5.671 -0.0374 -0.6557  0.2430
 4010TIP3    H133445   1.687   0.853   5.705  0.0481  0.5175 -1.6973
 4010TIP3    H233446   1.802   0.764   5.747  0.8257  2.6789  0.8780
 4011TIP3   OH233447   1.270   3.836   5.955  0.7520 -0.0215 -0.0283
 4011TIP3    H133448   1.211   3.786   6.013  1.0604  0.6075  0.8404
 4011TIP3    H233449   1.275   3.922   5.995  0.8405  0.4776 -1.1021
 4012TIP3   OH233450   0.755   4.853   3.410  0.2493 -0.2165 -0.6279
 4012TIP3    H133451   0.751   4.920   3.479  0.3830 -0.6433 -0.2006
 4012TIP3    H233452   0.664   4.827   3.397  0.1926  0.0814 -0.8276
 4013TIP3   OH233453   5.652   0.722  15.144  0.6122  0.3946  0.7742
 4013TIP3    H133454   5.708   0.698  15.217  1.3999  0.2908  0.1402
 4013TIP3    H233455   5.710   0.723  15.068 -0.7745 -2.6919 -0.4460
 4014TIP3   OH233456   5.339   5.114  14.259  0.3009 -0.0392  0.0796
 4014TIP3    H133457   5.313   5.151  14.174  0.0396 -2.1013 -0.7482
 4014TIP3    H233458   5.434   5.104  14.253  0.2530 -0.4106 -0.0556
 4015TIP3   OH233459   4.585   6.691   3.918 -0.2773  0.2682 -0.5416
 4015TIP3    H133460   4.544   6.774   3.892 -0.3510  0.8380  1.3220
 4015TIP3    H233461   4.555   6.676   4.007  2.2032 -0.1623  0.2685
 4016TIP3   OH233462   2.254   0.667  16.979 -0.0749  0.1735  0.7455
 4016TIP3    H133463   2.346   0.693  16.987  0.3465 -0.8955 -0.4568
 4016TIP3    H233464   2.226   0.652  17.069  1.1200 -0.1025  1.0854
 4017TIP3   OH233465   6.781   2.538  15.265  0.1296  0.4017  0.2404
 4017TIP3    H133466   6.685   2.545  15.260  0.1915  0.1696 -1.7589
 4017TIP3    H233467   6.798   2.444  15.265  0.4024  0.4388 -0.9766
 4018TIP3   OH233468   0.730   1.703  13.477 -0.5113 -0.3407 -0.2648
 4018TIP3    H133469   0.721   1.641  13.549 -2.2968 -0.4415 -0.5559
 4018TIP3    H233470   0.647   1.697  13.429 -0.2378  1.3869 -0.9982
 4019TIP3   OH233471   2.608   5.587   4.514  0.1189 -0.4928  0.4954
 4019TIP3    H133472   2.665   5.638   4.456  1.3648  0.0753  2.1947
 4019TIP3    H233473   2.621   5.626   4.600 -0.7456 -2.1674  1.3961
 4020TIP3   OH233474   5.644   3.329   3.460  0.2843 -0.4543 -0.2828
 4020TIP3    H133475   5.704   3.344   3.388  1.3510 -0.0827  0.6681
 4020TIP3    H233476   5.681   3.254   3.507  0.4933  0.3124  0.8030
 4021TIP3   OH233477   0.695   2.838  15.322 -0.8018  0.6129 -0.4464
 4021TIP3    H133478   0.631   2.811  15.256 -1.2229 -0.2970  0.3218
 4021TIP3    H233479   0.769   2.778  15.309 -0.2777  1.3703 -1.0332
 4022TIP3   OH233480   5.613   6.066  12.828  0.3309 -0.2662  0.7158
 4022TIP3    H133481   5.582   6.117  12.902 -2.7224  0.2092 -0.7695
 4022TIP3    H233482   5.666   6.126  12.777  1.7337 -0.3562  2.0360
 4023TIP3   OH233483   1.643   4.066  15.581 -0.0824  0.2288 -0.2651
 4023TIP3    H133484   1.705   3.993  15.581  0.1987  0.4675  0.4001
 4023TIP3    H233485   1.617   4.075  15.489 -1.2458 -1.6601 -0.1683
 4024TIP3   OH233486   1.081   3.048  11.600 -0.1206 -0.3139  0.5994
 4024TIP3    H133487   1.040   2.961  11.597  1.1170 -0.9208  0.9721
 4024TIP3    H233488   1.007   3.109  11.607 -0.9705 -1.3701  1.0539
 4025TIP3   OH233489   1.439   2.619  13.375  0.1080 -0.4501  0.5756
 4025TIP3    H133490   1.397   2.574  13.449 -0.8130  2.5935  1.9638
 4025TIP3    H233491   1.515   2.662  13.414  0.0758  0.5065 -0.4061
 4026TIP3   OH233492   3.178   1.804  16.969 -0.1027 -0.1199  0.2581
 4026TIP3    H133493   3.121   1.730  16.990 -1.0799  0.4833 -0.2398
 4026TIP3    H233494   3.192   1.796  16.874  0.3548 -0.0569  0.3233
 4027TIP3   OH233495   4.426   6.669  13.444 -0.4960  0.3358  0.2561
 4027TIP3    H133496   4.455   6.753  13.478 -1.8728  1.5384 -1.4833
 4027TIP3    H233497   4.478   6.656  13.364 -0.5498 -0.2863  0.3185
 4028TIP3   OH233498   1.376   6.482   0.088  0.1639  0.1620 -0.5550
 4028TIP3    H133499   1.404   6.574   0.091  0.5260  0.0765 -1.1827
 4028TIP3    H233500   1.458   6.433   0.094 -0.2237 -0.2051  3.2564
 4029TIP3   OH233501   1.913   0.489   5.999  0.0147 -0.2417 -0.2849
 4029TIP3    H133502   1.853   0.479   6.073  0.6276 -0.3545  0.2098
 4029TIP3    H233503   2.000   0.496   6.040  0.1366  2.1629 -0.8680
 4030TIP3   OH233504   6.110   6.231  15.903  0.0665  0.6758 -0.0874
 4030TIP3    H133505   6.084   6.204  15.991 -0.5690  0.5784 -0.3000
 4030TIP3    H233506   6.204   6.244  15.909  0.0218  0.7116  0.6177
 4031TIP3   OH233507   6.141   4.555   3.365  0.1668 -0.5490  0.1474
 4031TIP3    H133508   6.229   4.519   3.367  0.3695 -0.0207  1.1840
 4031TIP3    H233509   6.153   4.649   3.378 -0.5155 -0.4097 -0.1847
 4032TIP3   OH233510   0.959   3.261  15.789  0.7516 -0.1553 -0.4212
 4032TIP3    H133511   0.938   3.168  15.798 -2.8239  0.6511  0.4023
 4032TIP3    H233512   1.015   3.266  15.712  0.0928 -2.8738 -1.1181
 4033TIP3   OH233513   1.899   0.210   3.982  0.0271 -0.2754  0.1496
 4033TIP3    H133514   1.877   0.117   3.990  0.6387 -0.3497  1.0842
 4033TIP3    H233515   1.887   0.245   4.070 -1.6373  0.8690 -0.5233
 4034TIP3   OH233516   2.765   4.423  15.509  0.1479  0.1444  0.4759
 4034TIP3    H133517   2.702   4.432  15.580 -0.3791  1.5120 -0.1511
 4034TIP3    H233518   2.726   4.358  15.450  1.2530 -2.0708  2.1285
 4035TIP3   OH233519   0.542   4.785  15.939 -0.2405  0.0656 -0.2294
 4035TIP3    H133520   0.449   4.797  15.924 -0.4256  1.0219  1.5611
 4035TIP3    H233521   0.585   4.835  15.869 -1.0588 -0.9984 -1.4983
 4036TIP3   OH233522   3.846   6.146  11.500  0.0618  0.0796  0.1618
 4036TIP3    H133523   3.883   6.073  11.449 -0.0859  0.0097  0.1541
 4036TIP3    H233524   3.764   6.167  11.455 -0.4778 -0.5236  0.8443
 4037TIP3   OH233525   4.400   5.637   2.278  0.1212  0.6279 -0.3374
 4037TIP3    H133526   4.373   5.676   2.361  0.4229  2.3012 -1.0012
 4037TIP3    H233527   4.326   5.651   2.220 -0.0078 -0.3623 -0.4282
 4038TIP3   OH233528   0.372   5.547   1.055 -0.5910  0.2207 -0.4420
 4038TIP3    H133529   0.345   5.633   1.024 -0.4772  0.5914  0.4758
 4038TIP3    H233530   0.362   5.490   0.978 -3.2860  0.4759 -0.3582
 4039TIP3   OH233531   6.720   0.863  15.625 -0.0440  0.6378 -0.4300
 4039TIP3    H133532   6.697   0.780  15.666  3.3950 -0.2505 -0.0849
 4039TIP3    H233533   6.637   0.903  15.602 -1.8541 -1.6938  1.8002
 4040TIP3   OH233534   4.107   2.814  10.352 -1.0026  0.3667  0.2067
 4040TIP3    H133535   4.177   2.791  10.414 -2.7051 -0.4006  1.8771
 4040TIP3    H233536   4.130   2.767  10.272  0.4816  0.2472  0.6899
 4041TIP3   OH233537   5.695   3.884  12.809 -1.1281  0.0017 -0.5155
 4041TIP3    H133538   5.701   3.938  12.888 -1.8651 -0.1858 -0.3288
 4041TIP3    H233539   5.695   3.794  12.843  1.5036 -0.1886 -0.8905
 4042TIP3   OH233540   5.903   2.841   0.687 -0.1334  0.2016 -0.4778
 4042TIP3    H133541   5.807   2.835   0.681 -0.2309 -3.3895  2.5890
 4042TIP3    H233542   5.920   2.879   0.772  1.1904  1.1060 -1.1302
 4043TIP3   OH233543   5.096   3.688  12.266  0.0554  0.0290 -0.2744
 4043TIP3    H133544   5.070   3.740  12.190  0.0455 -1.0927 -1.0432
 4043TIP3    H233545   5.185   3.659  12.245  0.9007  1.5207  1.1105
 4044TIP3   OH233546   1.365   2.935  13.954 -0.7013 -0.1783 -0.0271
 4044TIP3    H133547   1.444   2.947  13.901 -0.0849 -2.5918  0.2967
 4044TIP3    H233548   1.297   2.983  13.907  0.1883 -0.9849 -2.1723
 4045TIP3   OH233549   2.470   5.330   0.414  0.0685  0.3187 -0.2556
 4045TIP3    H133550   2.495   5.300   0.502 -0.0586 -0.9058 -0.6328
 4045TIP3    H233551   2.544   5.384   0.386 -0.1514  1.2146  0.8389
 4046TIP3   OH233552   4.005   3.595   2.061 -0.2959 -0.1881  0.3945
 4046TIP3    H133553   3.913   3.570   2.057 -0.2294 -0.7822  2.0484
 4046TIP3    H233554   4.029   3.581   2.153  1.5289 -0.3931 -0.0988
 4047TIP3   OH233555   0.515   3.495   4.817 -0.3397 -0.0943  0.2529
 4047TIP3    H133556   0.606   3.476   4.839  0.6905  2.8881 -1.1185
 4047TIP3    H233557   0.513   3.494   4.722 -1.0472  2.4874  0.1859
 4048TIP3   OH233558   5.556   6.366   3.243 -0.4004  0.5056 -0.2169
 4048TIP3    H133559   5.605   6.287   3.221 -0.2411  1.0960 -2.0465
 4048TIP3    H233560   5.474   6.334   3.280 -0.7744 -0.5429 -1.9072
 4049TIP3   OH233561   4.313   2.921  13.195 -0.2617 -0.0154  0.2330
 4049TIP3    H133562   4.311   2.984  13.122 -0.8130 -0.4091 -0.1018
 4049TIP3    H233563   4.220   2.901  13.210 -0.3971  2.3214  3.0274
 4050TIP3   OH233564   6.446   4.012   1.633  0.2527 -0.2162  0.7458
 4050TIP3    H133565   6.400   4.012   1.549 -1.2181 -0.9860  1.5568
 4050TIP3    H233566   6.441   4.103   1.662 -1.0193 -0.3554  0.9777
 4051TIP3   OH233567   1.827   2.355  14.535  0.6439 -0.3081 -0.1314
 4051TIP3    H133568   1.916   2.345  14.567  0.6634 -0.7348 -0.3121
 4051TIP3    H233569   1.827   2.309  14.451  0.4530  0.3320 -0.4852
 4052TIP3   OH233570   6.124   1.112   1.004  0.0806  0.4874 -0.2247
 4052TIP3    H133571   6.126   1.024   1.042  0.8494  1.1556  1.3162
 4052TIP3    H233572   6.118   1.097   0.909 -1.2791 -1.2049  0.1057
 4053TIP3   OH233573   3.286   2.868  13.036 -0.0503  0.0967 -0.1607
 4053TIP3    H133574   3.291   2.851  12.942 -0.6744 -0.9779 -0.0085
 4053TIP3    H233575   3.377   2.878  13.063  0.3386 -2.3820 -0.3965
 4054TIP3   OH233576   2.063   2.098  15.601  0.3980  0.2753  0.1905
 4054TIP3    H133577   2.154   2.101  15.634  0.8390 -0.4199 -0.9595
 4054TIP3    H233578   2.057   2.014  15.556  0.0040  1.5171 -2.0961
 4055TIP3   OH233579   3.571   4.301  11.587 -0.3375  0.0816 -0.0819
 4055TIP3    H133580   3.578   4.214  11.548 -3.3623 -1.6421  2.9364
 4055TIP3    H233581   3.640   4.304  11.652  1.3147  0.9296 -1.8229
 4056TIP3   OH233582   6.538   4.809  13.665  0.2103  0.4825  0.5985
 4056TIP3    H133583   6.520   4.898  13.634 -0.3982  0.4086  0.7364
 4056TIP3    H233584   6.604   4.775  13.603 -0.5799  0.5313 -0.2805
 4057TIP3   OH233585   1.152   2.720  14.065  0.0785  0.2481  0.5800
 4057TIP3    H133586   1.078   2.779  14.050  1.0685  1.3119 -0.1524
 4057TIP3    H233587   1.230   2.773  14.048  0.9974 -1.2047  0.1127
 4058TIP3   OH233588   4.751   5.766   5.640  0.1434 -0.3709  0.1898
 4058TIP3    H133589   4.793   5.830   5.697  3.2010  0.3156 -2.6748
 4058TIP3    H233590   4.810   5.758   5.565 -3.2701 -1.8564 -2.4991
 4059TIP3   OH233591   0.612   2.880  12.594  0.6259  0.6216  0.2810
 4059TIP3    H133592   0.667   2.950  12.561  2.5632  0.0934  2.2676
 4059TIP3    H233593   0.672   2.809  12.613 -1.1777 -1.1779 -0.5981
 4060TIP3   OH233594   3.239   3.283   1.928  0.7143 -0.3863 -0.0409
 4060TIP3    H133595   3.248   3.360   1.984 -2.3902  0.0868 -0.1070
 4060TIP3    H233596   3.254   3.315   1.839  1.7429 -0.3613  0.1297
 4061TIP3   OH233597   5.631   6.619  16.009  0.4350  0.1661  0.6186
 4061TIP3    H133598   5.644   6.615  15.914 -0.0387 -0.2738  0.5666
 4061TIP3    H233599   5.591   6.535  16.031  2.5599 -0.6232  1.5440
 4062TIP3   OH233600   6.460   3.945   4.533  0.2603 -0.2243  0.4793
 4062TIP3    H133601   6.520   3.882   4.492  1.4003  0.8486  0.4819
 4062TIP3    H233602   6.510   3.983   4.605 -0.9541 -0.4261  1.4331
 4063TIP3   OH233603   5.156   6.428  16.829 -0.1935 -1.0053 -0.6279
 4063TIP3    H133604   5.079   6.394  16.784 -1.9003  1.1164  0.5703
 4063TIP3    H233605   5.186   6.500  16.773 -0.8783  0.0750  0.3688
 4064TIP3   OH233606   4.395   3.643  16.768  0.2154 -0.5497 -0.1838
 4064TIP3    H133607   4.392   3.550  16.788  1.1162 -0.2683  1.3038
 4064TIP3    H233608   4.451   3.650  16.691  1.6082 -1.0541  0.7804
 4065TIP3   OH233609   6.256   3.595  13.887 -0.2408 -0.0952  0.5621
 4065TIP3    H133610   6.209   3.517  13.858 -0.3484  0.2132 -0.0944
 4065TIP3    H233611   6.222   3.666  13.833  1.8921 -0.0966 -0.8491
 4066TIP3   OH233612   6.611   2.847   2.193  0.3688 -0.2659 -0.2831
 4066TIP3    H133613   6.583   2.788   2.264  0.0468 -1.0437 -1.0490
 4066TIP3    H233614   6.532   2.862   2.142  0.4568  0.8181 -0.1159
 4067TIP3   OH233615   4.704   3.924  11.469  0.4589 -0.7087 -0.4364
 4067TIP3    H133616   4.637   3.982  11.432  1.3772  0.8013  0.1872
 4067TIP3    H233617   4.752   3.892  11.393  0.7478  0.3828 -0.7313
 4068TIP3   OH233618   2.622   1.281  11.626 -0.4271  0.0081 -0.0150
 4068TIP3    H133619   2.604   1.197  11.669 -0.3191  0.0695  0.1505
 4068TIP3    H233620   2.622   1.345  11.697  1.3679 -0.1174  0.1274
 4069TIP3   OH233621   2.317   5.451  11.713  0.1153  0.5657  0.3078
 4069TIP3    H133622   2.272   5.515  11.658  1.6938 -0.7903 -2.6663
 4069TIP3    H233623   2.277   5.367  11.690  3.5509 -0.5765 -1.8704
 4070TIP3   OH233624   0.793   5.421   0.251  0.0820 -0.6062  0.2120
 4070TIP3    H133625   0.753   5.401   0.336  0.3617  1.9840  0.9894
 4070TIP3    H233626   0.871   5.472   0.273 -0.7559  1.5342 -1.6690
 4071TIP3   OH233627   6.160   4.435  16.182  0.5142 -0.3628  0.3251
 4071TIP3    H133628   6.206   4.356  16.154  0.7582 -0.0090 -0.2780
 4071TIP3    H233629   6.077   4.432  16.133 -0.4418 -1.3764  1.9535
 4072TIP3   OH233630   5.166   0.259   3.173  0.7299  1.1280 -0.3150
 4072TIP3    H133631   5.087   0.258   3.120  0.6298  0.8076 -0.1541
 4072TIP3    H233632   5.217   0.333   3.138  1.0826  0.3575 -1.4678
 4073TIP3   OH233633   5.616   6.288  14.601 -0.0696  0.6049  0.6026
 4073TIP3    H133634   5.627   6.341  14.522  0.4685  0.3360  0.4956
 4073TIP3    H233635   5.692   6.309  14.656  0.7385 -0.8502  0.0937
 4074TIP3   OH233636   6.167   5.828  14.138 -0.2831 -0.0996  0.0056
 4074TIP3    H133637   6.211   5.872  14.211  0.6582 -1.4715  0.3038
 4074TIP3    H233638   6.085   5.796  14.175 -0.9581  1.3447 -0.2042
 4075TIP3   OH233639   1.179   5.377   2.193  0.1726  0.2998 -0.1456
 4075TIP3    H133640   1.220   5.455   2.157  1.4738  0.0866  0.8237
 4075TIP3    H233641   1.247   5.310   2.188 -0.0899 -0.1038  1.3460
 4076TIP3   OH233642   6.212   1.234  11.883  0.0468  0.1165 -0.1980
 4076TIP3    H133643   6.184   1.160  11.936 -2.1875  0.6708 -0.5640
 4076TIP3    H233644   6.193   1.311  11.937 -1.6848  0.6549 -1.5167
 4077TIP3   OH233645   0.710   0.263  17.153 -0.4383 -0.1972 -0.3761
 4077TIP3    H133646   0.657   0.335  17.119  0.5744  0.1549 -1.1938
 4077TIP3    H233647   0.796   0.301  17.170 -0.6554 -0.5599  1.7679
 4078TIP3   OH233648   4.120   0.886  14.352 -0.2685  0.8248  0.1049
 4078TIP3    H133649   4.197   0.940  14.332  1.2584 -1.5935 -0.8093
 4078TIP3    H233650   4.122   0.875  14.447  0.5315  0.8004  0.0904
 4079TIP3   OH233651   2.593   4.160   5.752 -0.2038 -0.3239  0.0562
 4079TIP3    H133652   2.571   4.189   5.664  1.4373  0.9264  0.0408
 4079TIP3    H233653   2.629   4.072   5.740  1.4400  0.4350 -0.7103
 4080TIP3   OH233654   0.960   1.476  13.274  0.0983 -0.2435  0.4416
 4080TIP3    H133655   1.019   1.504  13.344  2.7642  1.6468 -2.4575
 4080TIP3    H233656   0.914   1.556  13.248 -0.2976 -0.7792 -0.5006
 4081TIP3   OH233657   1.403   2.634  15.056  0.0814 -0.5111  0.3956
 4081TIP3    H133658   1.479   2.600  15.009 -0.0913  0.6538 -0.7734
 4081TIP3    H233659   1.437   2.663  15.140  0.9385 -0.0179 -0.1108
 4082TIP3   OH233660   3.711   1.008  16.316  0.2510 -0.3491 -0.1140
 4082TIP3    H133661   3.651   0.954  16.265 -0.7615  1.2133 -0.6312
 4082TIP3    H233662   3.691   0.987  16.408 -1.5658  0.6347 -0.2623
 4083TIP3   OH233663   6.580   6.700  14.961 -0.0385  0.3054  0.3470
 4083TIP3    H133664   6.586   6.784  14.917  2.2182 -0.4619 -0.9418
 4083TIP3    H233665   6.594   6.635  14.892 -0.7566 -1.0921  1.4663
 4084TIP3   OH233666   5.290   6.623  12.400  1.1137  0.1546 -0.0963
 4084TIP3    H133667   5.230   6.644  12.329  0.0013 -1.3783  0.3741
 4084TIP3    H233668   5.377   6.632  12.360  0.5134 -0.5682 -1.6258
 4085TIP3   OH233669   5.107   4.359  15.230 -0.3012 -0.1750 -0.1082
 4085TIP3    H133670   5.155   4.297  15.285 -2.0769 -1.2768  0.2186
 4085TIP3    H233671   5.120   4.328  15.141  1.0966  0.5955 -0.1967
 4086TIP3   OH233672   4.706   5.019   4.229 -0.1916 -0.2260 -0.1606
 4086TIP3    H133673   4.687   4.967   4.307  1.6432 -0.4456  0.1692
 4086TIP3    H233674   4.713   5.109   4.262  1.2883 -0.4093  0.0775
 4087TIP3   OH233675   0.162   3.240   4.817 -0.2754  0.4278 -0.1135
 4087TIP3    H133676   0.098   3.176   4.784  0.7422 -2.8197  3.8422
 4087TIP3    H233677   0.244   3.191   4.822  0.8823  2.4667  1.6181
 4088TIP3   OH233678   1.836   2.677   3.712  0.4682 -0.0796 -0.2587
 4088TIP3    H133679   1.882   2.654   3.792  1.9881  0.3585 -0.9887
 4088TIP3    H233680   1.897   2.734   3.665 -0.3166 -0.5062 -1.8243
 4089TIP3   OH233681   5.700   0.935  16.436  0.4670  0.2366  0.6123
 4089TIP3    H133682   5.742   0.948  16.351  1.3918 -0.7061  0.9082
 4089TIP3    H233683   5.737   0.852  16.468 -1.4466 -0.4748  1.0025
 4090TIP3   OH233684   0.259   0.098  13.669 -0.4391 -0.6840  0.0468
 4090TIP3    H133685   0.322   0.150  13.718  0.7177 -2.3783  0.4124
 4090TIP3    H233686   0.195   0.070  13.734 -0.6454 -0.3400 -0.0089
 4091TIP3   OH233687   4.091   4.519   0.173 -0.2283 -0.4082  0.4999
 4091TIP3    H133688   4.019   4.486   0.227  0.0005 -0.5888  0.6944
 4091TIP3    H233689   4.092   4.462   0.096  0.2501 -0.9371  0.8954
 4092TIP3   OH233690   6.786   3.413  11.167  0.4935  0.4282  0.2915
 4092TIP3    H133691   6.876   3.382  11.179  0.2890 -0.3480 -0.1263
 4092TIP3    H233692   6.740   3.338  11.130  0.8202  2.2840 -4.2829
 4093TIP3   OH233693   1.309   5.510   6.132  0.8641  0.2912  0.8125
 4093TIP3    H133694   1.334   5.432   6.182  1.2641  0.7272  1.2946
 4093TIP3    H233695   1.276   5.571   6.197 -2.8177 -0.7567  0.0549
 4094TIP3   OH233696   4.407   2.133  14.890  0.2805 -0.8379  0.1575
 4094TIP3    H133697   4.387   2.177  14.973  0.4363  1.5213 -1.0330
 4094TIP3    H233698   4.497   2.103  14.900  0.3320 -0.4759  0.8041
 4095TIP3   OH233699   4.381   2.149  12.618 -0.4873 -0.3083  0.2999
 4095TIP3    H133700   4.299   2.199  12.623 -1.4009 -1.6315 -1.2978
 4095TIP3    H233701   4.426   2.184  12.541 -0.2486 -0.6603  0.2809
 4096TIP3   OH233702   3.115   6.359   5.655  0.5659  1.0191 -0.1515
 4096TIP3    H133703   3.066   6.439   5.636 -0.9826  0.0903 -0.1572
 4096TIP3    H233704   3.136   6.321   5.569 -3.5154 -1.4270 -0.1867
 4097TIP3   OH233705   2.958   0.556   6.406 -0.2586  0.3474 -0.8889
 4097TIP3    H133706   3.033   0.612   6.428  1.2721 -1.8756 -0.3681
 4097TIP3    H233707   2.997   0.477   6.370 -2.3611 -0.9532 -0.3705
 4098TIP3   OH233708   0.783   5.652  14.310  0.1529  0.2186  0.2769
 4098TIP3    H133709   0.802   5.652  14.404 -0.1522 -3.2348  0.3908
 4098TIP3    H233710   0.866   5.675  14.268  0.3295  1.6092  1.3410
 4099TIP3   OH233711   4.690   2.099   1.254  0.0959 -0.5849  0.0723
 4099TIP3    H133712   4.730   2.026   1.300  1.1181  0.3855  0.7252
 4099TIP3    H233713   4.596   2.083   1.261  0.2751 -0.9307  1.6799
 4100TIP3   OH233714   4.330   0.870   6.393 -0.5285  0.3671  0.4320
 4100TIP3    H133715   4.314   0.867   6.487 -2.5225 -0.6047  0.0806
 4100TIP3    H233716   4.246   0.849   6.353 -0.0498  2.0797 -1.6030
 4101TIP3   OH233717   4.362   6.474  15.905  0.3411 -0.6473 -0.1058
 4101TIP3    H133718   4.347   6.527  15.983  0.9864  1.4799 -1.4077
 4101TIP3    H233719   4.377   6.386  15.940 -2.7554 -0.4500  1.9369
 4102TIP3   OH233720   5.246   0.058  10.643  0.2255  0.4046 -0.4561
 4102TIP3    H133721   5.191  -0.018  10.626  1.0605  0.3928 -3.3793
 4102TIP3    H233722   5.185   0.131  10.652 -0.4020 -0.0680 -0.8976
 4103TIP3   OH233723   5.116   1.930   1.709  0.1949  0.1508 -0.1712
 4103TIP3    H133724   5.185   1.868   1.735  0.7160  0.7483 -0.1024
 4103TIP3    H233725   5.068   1.947   1.790  0.8645  0.8301  0.0954
 4104TIP3   OH233726   4.557   4.807  10.706  0.7742  0.3829 -0.4149
 4104TIP3    H133727   4.471   4.767  10.715  1.7200 -1.3389  1.2983
 4104TIP3    H233728   4.590   4.775  10.622  0.3497 -0.2013 -0.3626
 4105TIP3   OH233729   4.466   6.639  14.058 -0.3372  0.1556  0.5354
 4105TIP3    H133730   4.552   6.655  14.020 -0.9821  1.7976 -0.2516
 4105TIP3    H233731   4.466   6.688  14.141  0.9224 -3.1001  2.5737
 4106TIP3   OH233732   4.315   4.277  13.929  0.3110 -0.3562  0.0991
 4106TIP3    H133733   4.302   4.300  14.021  1.7651 -0.7732  0.4235
 4106TIP3    H233734   4.294   4.356  13.881  1.7411  0.5801  0.9653
 4107TIP3   OH233735   0.487   5.567   4.795 -0.7412  0.3535  0.2370
 4107TIP3    H133736   0.480   5.611   4.880  0.1926 -0.5817  0.8106
 4107TIP3    H233737   0.502   5.475   4.817 -0.0017  0.1814 -0.9537
 4108TIP3   OH233738   2.532   2.695  14.865 -0.2889  0.3134  0.0138
 4108TIP3    H133739   2.620   2.729  14.880 -0.2358  0.2949 -0.2641
 4108TIP3    H233740   2.525   2.620  14.925  0.2489 -0.3152 -0.6954
 4109TIP3   OH233741   3.929   6.486  15.510  0.7985  0.0131  0.2344
 4109TIP3    H133742   3.844   6.448  15.488 -0.0493  0.7987  2.0365
 4109TIP3    H233743   3.989   6.452  15.444 -1.3232  1.1040 -2.3421
 4110TIP3   OH233744   5.560   3.275   0.292  0.2981  0.1878 -0.0043
 4110TIP3    H133745   5.560   3.344   0.359 -0.8764  0.0023  0.1974
 4110TIP3    H233746   5.520   3.317   0.215 -0.6160 -0.3104  0.1845
 4111TIP3   OH233747   3.725   5.292  13.348 -0.2047  0.4316  0.3332
 4111TIP3    H133748   3.679   5.337  13.418 -1.4828 -0.1591 -0.1111
 4111TIP3    H233749   3.696   5.336  13.268  0.2264  0.2399  0.0687
 4112TIP3   OH233750   4.513   1.355  14.528  0.4372  0.1282 -0.2546
 4112TIP3    H133751   4.574   1.319  14.463 -0.6710  0.6651 -1.6028
 4112TIP3    H233752   4.531   1.449  14.529 -0.3436  0.2829 -0.6281
 4113TIP3   OH233753   1.768   1.723  14.054 -0.2322 -0.2779 -0.0586
 4113TIP3    H133754   1.724   1.807  14.037 -1.1691 -1.0451 -1.5338
 4113TIP3    H233755   1.857   1.736  14.021 -0.2464  0.2710  0.1041
 4114TIP3   OH233756   1.432   2.936  14.235 -0.4910 -0.1299  0.3276
 4114TIP3    H133757   1.413   3.029  14.249 -0.9167 -0.3144  0.9940
 4114TIP3    H233758   1.407   2.920  14.143  0.8752  0.7230 -0.2062
 4115TIP3   OH233759   2.756   0.371   0.294  1.0824 -0.3592  0.0750
 4115TIP3    H133760   2.843   0.376   0.335  0.2029  0.0256  1.9289
 4115TIP3    H233761   2.722   0.286   0.322 -0.0347  0.4482  1.1898
 4116TIP3   OH233762   2.042   5.906   6.479  0.6278 -0.0483 -0.3054
 4116TIP3    H133763   2.127   5.910   6.524 -0.1659  1.3213  1.1105
 4116TIP3    H233764   2.052   5.834   6.417  3.0534  0.4952 -0.6209
 4117TIP3   OH233765   2.478   0.483  13.642  0.6548 -0.4252 -0.2048
 4117TIP3    H133766   2.406   0.545  13.657 -1.1428 -2.4859  0.0150
 4117TIP3    H233767   2.513   0.506  13.556 -0.8881  0.0250 -0.7262
 4118TIP3   OH233768   1.142   4.873  12.099 -0.8085  0.1130  0.5643
 4118TIP3    H133769   1.184   4.787  12.091 -0.3562  0.5261 -1.9559
 4118TIP3    H233770   1.190   4.929  12.039 -2.7806  1.4585  0.1824
 4119TIP3   OH233771   1.940   3.907   0.423 -0.2050 -0.3927 -0.0384
 4119TIP3    H133772   1.994   3.877   0.350 -0.4007 -0.9173  0.0332
 4119TIP3    H233773   1.990   3.979   0.462 -0.5811  0.6016 -1.3394
 4120TIP3   OH233774   5.810   3.197   0.525 -0.5116  0.2354  0.4974
 4120TIP3    H133775   5.892   3.164   0.489 -1.4470 -1.2318 -0.3254
 4120TIP3    H233776   5.750   3.202   0.450 -0.7194  2.8326  0.7933
 4121TIP3   OH233777   2.904   6.598  12.173 -0.0430  0.0413 -0.6245
 4121TIP3    H133778   2.989   6.641  12.163  0.0915 -0.6322 -2.5261
 4121TIP3    H233779   2.899   6.537  12.100 -1.9928 -0.2278 -0.2994
 4122TIP3   OH233780   3.444   0.520  11.054 -0.1446 -0.5471 -0.3128
 4122TIP3    H133781   3.410   0.491  11.138 -0.8618 -0.4341 -0.5558
 4122TIP3    H233782   3.396   0.469  10.989  2.0354 -2.3025 -0.5982
 4123TIP3   OH233783   0.877   4.032   2.455 -0.0769 -0.3315  0.1900
 4123TIP3    H133784   0.865   4.044   2.550  1.5257 -0.9452  0.4839
 4123TIP3    H233785   0.794   4.060   2.417 -0.3591  0.9648  1.6995
 4124TIP3   OH233786   6.009   3.586  12.670  0.0534  0.7865  0.2616
 4124TIP3    H133787   5.922   3.622  12.650 -0.6539 -1.4422 -0.8064
 4124TIP3    H233788   6.004   3.557  12.761 -0.4916  0.1821  0.0379
 4125TIP3   OH233789   4.678   1.389  11.834 -0.2227 -0.5388 -0.0130
 4125TIP3    H133790   4.690   1.425  11.922  0.3194 -2.2096  0.6175
 4125TIP3    H233791   4.601   1.435  11.800  1.4907  2.4792  0.0549
 4126TIP3   OH233792   3.192   2.544   1.856 -0.1879 -0.1067  0.1756
 4126TIP3    H133793   3.121   2.599   1.887 -0.7075  0.2066 -1.5072
 4126TIP3    H233794   3.239   2.599   1.793  1.1481 -0.5417  0.7651
 4127TIP3   OH233795   1.834   5.912   0.149 -0.4489 -0.1237  0.3694
 4127TIP3    H133796   1.867   5.919   0.059  2.0123  1.5690  1.3384
 4127TIP3    H233797   1.886   5.842   0.188 -1.5757 -0.9158  0.4527
 4128TIP3   OH233798   0.516   0.395  16.279 -0.1729  0.3081  0.1740
 4128TIP3    H133799   0.593   0.382  16.224 -0.2005  1.7175 -0.2173
 4128TIP3    H233800   0.456   0.325  16.253 -0.0723  0.7880 -1.4101
 4129TIP3   OH233801   3.530   0.380  14.300  0.3210 -0.4726 -0.3171
 4129TIP3    H133802   3.539   0.285  14.288  2.0034 -0.4325  0.5345
 4129TIP3    H233803   3.543   0.417  14.213 -0.6359 -1.0272 -0.7097
 4130TIP3   OH233804   3.013   5.179   2.147  0.0684  0.3754 -0.2604
 4130TIP3    H133805   2.928   5.162   2.187 -0.8480 -0.6121 -2.5735
 4130TIP3    H233806   2.994   5.233   2.071  1.6296  0.8838 -0.3128
 4131TIP3   OH233807   5.689   0.624   4.604 -0.4179 -0.4097  0.2876
 4131TIP3    H133808   5.670   0.562   4.533 -2.3887 -0.0110  0.4414
 4131TIP3    H233809   5.769   0.669   4.575 -1.5896  0.2655 -2.0517
 4132TIP3   OH233810   2.355   1.983  15.345 -0.4916 -0.6021 -0.4588
 4132TIP3    H133811   2.407   2.009  15.269  0.8242  0.6871  0.8444
 4132TIP3    H233812   2.270   2.026  15.332 -0.1009  0.0299 -0.9405
 4133TIP3   OH233813   3.544   4.276   1.126 -0.3704 -0.4095 -0.6048
 4133TIP3    H133814   3.616   4.215   1.116 -0.4063 -0.5708  0.1113
 4133TIP3    H233815   3.531   4.283   1.221 -0.6702  0.3435 -0.6950
 4134TIP3   OH233816   1.079   0.861  12.794  0.1092 -0.0591  0.4503
 4134TIP3    H133817   1.104   0.770  12.774 -1.1418 -0.1059 -1.0544
 4134TIP3    H233818   1.086   0.867  12.889 -0.4052 -1.9377  0.6420
 4135TIP3   OH233819   5.710   0.103   4.002  0.6397  0.7579 -0.2618
 4135TIP3    H133820   5.642   0.040   4.027  0.3921  0.9602 -0.4255
 4135TIP3    H233821   5.767   0.054   3.943  1.3029  0.2347  0.8073
 4136TIP3   OH233822   4.948   0.445  12.623  0.2947 -0.3712 -0.0077
 4136TIP3    H133823   5.037   0.410  12.630 -0.0601 -1.3271 -0.2270
 4136TIP3    H233824   4.916   0.448  12.713  0.1169 -1.1674 -0.0417
 4137TIP3   OH233825   1.555   4.167   5.361 -0.7766 -0.4035  0.0147
 4137TIP3    H133826   1.634   4.201   5.402  0.6344 -1.4446 -1.7780
 4137TIP3    H233827   1.539   4.083   5.403 -0.0192 -0.9130 -0.7050
 4138TIP3   OH233828   4.971   1.349  13.024 -0.3235 -0.9440  0.4164
 4138TIP3    H133829   5.037   1.281  13.038  0.8234  0.1321  0.3608
 4138TIP3    H233830   4.944   1.337  12.933  1.2315 -0.1810 -0.1663
 4139TIP3   OH233831   2.678   1.328  13.476 -0.3680 -0.2136 -0.4212
 4139TIP3    H133832   2.650   1.373  13.556 -1.3066  0.6799 -1.2296
 4139TIP3    H233833   2.773   1.327  13.481 -0.4736 -1.5726  1.4604
 4140TIP3   OH233834   5.097   6.168  12.170 -0.0306 -0.4078  0.1768
 4140TIP3    H133835   5.161   6.098  12.182  0.6292  0.0292 -0.7157
 4140TIP3    H233836   5.124   6.212  12.089 -1.0594  0.2087  0.1538
 4141TIP3   OH233837   1.874   3.081  13.863 -0.3522  0.3020  0.4379
 4141TIP3    H133838   1.934   3.150  13.835 -0.0017  0.2564  1.0574
 4141TIP3    H233839   1.924   3.030  13.927 -0.5769 -0.5762 -0.0772
 4142TIP3   OH233840   4.205   4.506  13.805 -0.2756  0.7587  0.1436
 4142TIP3    H133841   4.123   4.510  13.854  0.1945 -0.7454  1.1102
 4142TIP3    H233842   4.180   4.482  13.716 -0.7895 -1.1551  0.7823
 4143TIP3   OH233843   5.336   1.762  11.822 -0.0338 -0.3673  0.1922
 4143TIP3    H133844   5.297   1.695  11.765  0.1226 -0.5232  0.2681
 4143TIP3    H233845   5.347   1.717  11.906  0.0282 -0.2301  0.2560
 4144TIP3   OH233846   2.111   6.528  11.678  0.3453 -0.4110 -0.6370
 4144TIP3    H133847   2.123   6.611  11.724  0.6068 -0.4611 -0.6135
 4144TIP3    H233848   2.109   6.462  11.748 -1.0167 -0.3170 -0.5570
 4145TIP3   OH233849   5.698   3.520   3.814  0.1745 -0.2731 -0.0905
 4145TIP3    H133850   5.625   3.544   3.757  1.1691  0.7754 -0.9706
 4145TIP3    H233851   5.763   3.482   3.754  0.8229 -0.1172  0.5032
 4146TIP3   OH233852   3.584   4.961  15.237  0.2988 -0.3843  0.9283
 4146TIP3    H133853   3.554   4.971  15.147  4.3625 -0.4396 -0.5325
 4146TIP3    H233854   3.523   4.898  15.275 -2.3413  0.6889 -1.2878
 4147TIP3   OH233855   6.272   6.016   5.829  0.5691  0.3643 -0.4675
 4147TIP3    H133856   6.299   5.934   5.786  1.0215  0.7319 -0.8844
 4147TIP3    H233857   6.351   6.071   5.827  0.5523  0.4493  0.6775
 4148TIP3   OH233858   3.050   3.918   5.681  0.0670 -0.3408  0.3904
 4148TIP3    H133859   3.062   3.921   5.586  1.8169 -2.2991  0.5155
 4148TIP3    H233860   3.057   4.010   5.708  2.7126 -0.0482 -1.0425
 4149TIP3   OH233861   0.918   0.222  12.753 -0.5843  0.0316 -0.1790
 4149TIP3    H133862   0.917   0.159  12.826 -0.3556  0.7521  0.4472
 4149TIP3    H233863   0.948   0.171  12.678  1.1240 -0.2434  0.6748
 4150TIP3   OH233864   4.558   0.859  11.669 -0.0904  0.0044 -0.6411
 4150TIP3    H133865   4.622   0.834  11.735  1.4616  1.2719 -1.6230
 4150TIP3    H233866   4.527   0.776  11.633  1.4511 -0.6235 -0.5681
 4151TIP3   OH233867   3.385   2.620   4.408 -0.0686  0.2090  0.3151
 4151TIP3    H133868   3.432   2.681   4.464  0.2568 -2.6322  3.2620
 4151TIP3    H233869   3.292   2.643   4.420  0.0590  0.2374  1.2985
 4152TIP3   OH233870   4.680   0.679  12.738  0.6028  0.1493 -0.2769
 4152TIP3    H133871   4.636   0.645  12.660 -1.3507  1.2056  0.3470
 4152TIP3    H233872   4.712   0.766  12.713 -1.6758  1.2769  0.6521
 4153TIP3   OH233873   3.148   6.526   3.363  0.7146  0.3229  1.3355
 4153TIP3    H133874   3.125   6.588   3.294  1.3648  0.8761  1.6159
 4153TIP3    H233875   3.075   6.464   3.365  0.8761  0.0805 -0.1182
 4154TIP3   OH233876   5.192   1.306  11.981  0.0254  0.5616 -0.5161
 4154TIP3    H133877   5.251   1.231  11.974  0.3883  0.9555 -1.9191
 4154TIP3    H233878   5.218   1.364  11.909 -2.4478  0.4840 -1.5311
 4155TIP3   OH233879   3.105   0.745   2.617  0.0250  0.1254  0.1295
 4155TIP3    H133880   3.073   0.806   2.685 -1.3647 -0.2553 -0.1670
 4155TIP3    H233881   3.054   0.665   2.631 -0.9023  0.3293 -1.9131
 4156TIP3   OH233882   3.495   0.369   4.280  0.4495  0.3403 -0.4743
 4156TIP3    H133883   3.431   0.344   4.214  1.0673  0.2447 -1.0363
 4156TIP3    H233884   3.442   0.404   4.353 -0.1816  1.2676 -1.3650
 4157TIP3   OH233885   1.886   0.241  13.130 -0.2358 -0.7462  0.8778
 4157TIP3    H133886   1.974   0.204  13.133 -0.2361 -0.7770  0.5341
 4157TIP3    H233887   1.894   0.328  13.169  0.5055  0.3792 -1.6960
 4158TIP3   OH233888   5.934   1.479   2.964  0.3447  0.0416 -0.5168
 4158TIP3    H133889   5.941   1.528   3.046  0.3703 -0.0625 -0.4572
 4158TIP3    H233890   5.903   1.392   2.990 -0.8932  0.4021 -0.7515
 4159TIP3   OH233891   1.197   1.325   4.910 -0.1129  0.2897 -0.3190
 4159TIP3    H133892   1.165   1.306   4.822 -1.7200 -0.3826  0.3732
 4159TIP3    H233893   1.284   1.362   4.897  0.6541 -2.0026 -2.0758
 4160TIP3   OH233894   3.414   6.350   3.803  0.1299 -0.0684  0.6482
 4160TIP3    H133895   3.329   6.308   3.802  0.4566 -0.7547  1.0735
 4160TIP3    H233896   3.423   6.384   3.893 -0.5514  1.7891  0.0364
 4161TIP3   OH233897   1.489   3.259  14.567 -0.3157 -0.7282  0.4715
 4161TIP3    H133898   1.487   3.205  14.646  1.2799 -0.5235  0.6508
 4161TIP3    H233899   1.442   3.339  14.592 -0.5675 -1.0215  0.9482
 4162TIP3   OH233900   1.182   1.636   2.190  0.4835  0.3055  0.8995
 4162TIP3    H133901   1.272   1.624   2.161  0.2402  0.6601 -0.0088
 4162TIP3    H233902   1.138   1.680   2.117 -1.2512 -2.8067 -0.0360
 4163TIP3   OH233903   2.921   5.119  13.531  0.2938 -0.3711 -0.8637
 4163TIP3    H133904   2.876   5.162  13.603  0.4472 -0.8532 -0.4775
 4163TIP3    H233905   2.872   5.145  13.453 -0.1791 -0.2604 -0.5299
 4164TIP3   OH233906   6.392   6.636  12.434  0.2424 -0.3999  0.7450
 4164TIP3    H133907   6.382   6.616  12.341 -1.0976 -1.9063  1.1921
 4164TIP3    H233908   6.331   6.709  12.449  1.4854  0.7836  0.1710
 4165TIP3   OH233909   2.198   4.898   3.367  0.1673 -0.5552  0.0909
 4165TIP3    H133910   2.159   4.969   3.418 -0.3402 -1.0160  0.3378
 4165TIP3    H233911   2.265   4.862   3.425  0.8662  0.1218 -0.2690
 4166TIP3   OH233912   6.696   0.438  13.173  0.3962  0.0670 -0.2176
 4166TIP3    H133913   6.660   0.351  13.190  0.8489 -0.1204 -0.1904
 4166TIP3    H233914   6.763   0.449  13.240 -1.1841  1.3619  1.1787
 4167TIP3   OH233915   2.685   5.480  11.447 -0.0663  0.0641  0.1116
 4167TIP3    H133916   2.779   5.489  11.438 -0.0503 -1.0547 -1.0472
 4167TIP3    H233917   2.669   5.483  11.541  0.6671  4.2729  0.2136
 4168TIP3   OH233918   3.005   3.806   0.695 -0.0431 -0.0086 -0.0993
 4168TIP3    H133919   3.040   3.891   0.721 -1.3385  0.6980 -0.6086
 4168TIP3    H233920   3.010   3.752   0.774  0.8042  0.5361  0.2187
 4169TIP3   OH233921   5.464   0.895  15.008 -0.0428  0.1964  0.0109
 4169TIP3    H133922   5.514   0.969  14.973 -0.2285  0.0066 -0.6658
 4169TIP3    H233923   5.530   0.834  15.041  0.3413 -1.2052 -3.1430
 4170TIP3   OH233924   0.401   6.413   5.105 -0.2975  0.1649  0.1970
 4170TIP3    H133925   0.449   6.454   5.033  0.0103 -0.4133  0.0685
 4170TIP3    H233926   0.324   6.468   5.118 -0.0106  0.6402 -0.1357
 4171TIP3   OH233927   1.229   0.301   5.012 -0.4757  0.2274  0.0976
 4171TIP3    H133928   1.320   0.320   5.036  0.4945 -0.8086 -2.5875
 4171TIP3    H233929   1.190   0.265   5.091  2.0374 -1.2854  0.6868
 4172TIP3   OH233930   5.050   6.576  17.076 -0.8338  0.4812  0.2896
 4172TIP3    H133931   5.002   6.626  17.011 -0.3598  0.4327 -0.0999
 4172TIP3    H233932   5.107   6.519  17.026 -1.2842 -0.3748  0.7322
 4173TIP3   OH233933   2.014   2.888   0.592 -0.0794  0.5270  0.2874
 4173TIP3    H133934   2.060   2.911   0.512  0.8090  0.7654  0.8503
 4173TIP3    H233935   1.984   2.972   0.628  0.4532  0.5253  0.7468
 4174TIP3   OH233936   2.595   4.169  13.412 -0.3282 -0.0896 -0.5968
 4174TIP3    H133937   2.672   4.123  13.446  0.4262  2.0695  0.7846
 4174TIP3    H233938   2.618   4.262  13.422 -2.0312  0.5777 -2.7128
 4175TIP3   OH233939   0.461   0.885  13.030 -0.3852 -0.1844  0.3146
 4175TIP3    H133940   0.367   0.902  13.019 -0.1146  1.3308  0.2043
 4175TIP3    H233941   0.502   0.933  12.958  0.5991  0.7466  1.4592
 4176TIP3   OH233942   1.372   1.790  14.697 -0.3637 -0.1503 -0.6150
 4176TIP3    H133943   1.365   1.868  14.752 -0.5335  0.4949 -1.5326
 4176TIP3    H233944   1.316   1.809  14.621 -0.6268 -1.2778 -0.7153
 4177TIP3   OH233945   2.499   3.706  12.522 -0.2911  0.2571 -0.1563
 4177TIP3    H133946   2.516   3.619  12.485  0.1210  0.4163 -0.3497
 4177TIP3    H233947   2.489   3.763  12.446 -1.6454  0.1815 -0.0396
 4178TIP3   OH233948   6.754   3.166   5.685  0.1374  0.0059  0.0014
 4178TIP3    H133949   6.757   3.218   5.765 -0.2987  0.5284 -0.3227
 4178TIP3    H233950   6.676   3.197   5.639  0.2607 -0.4523 -0.5187
 4179TIP3   OH233951   5.203   3.587   4.064  0.1490  0.0839  0.1350
 4179TIP3    H133952   5.265   3.624   4.126  0.8517  0.8937 -1.0442
 4179TIP3    H233953   5.129   3.559   4.118  1.5310 -0.9208  1.5547
 4180TIP3   OH233954   6.172   0.912   1.401 -0.3437  0.2102  0.3870
 4180TIP3    H133955   6.241   0.978   1.403 -0.8431  0.7127  1.2618
 4180TIP3    H233956   6.123   0.925   1.482 -0.0522 -1.6663  0.9033
 4181TIP3   OH233957   0.123   5.306   1.222  0.5776  0.0286  0.0427
 4181TIP3    H133958   0.129   5.399   1.245 -1.0036  0.7762 -2.3171
 4181TIP3    H233959   0.058   5.270   1.283 -1.4499  1.3156 -1.2972
 4182TIP3   OH233960   0.790   3.855  12.437  0.4005 -0.1402  0.0058
 4182TIP3    H133961   0.885   3.845  12.443  0.5562  1.0784 -0.3393
 4182TIP3    H233962   0.777   3.945  12.407 -0.9143  0.4802  2.3273
 4183TIP3   OH233963   1.147   1.530   6.321 -0.3340  0.6921 -0.8855
 4183TIP3    H133964   1.199   1.554   6.398 -0.5681 -0.2151 -0.4461
 4183TIP3    H233965   1.132   1.614   6.276 -2.2852  1.5866  1.3411
 4184TIP3   OH233966   6.418   2.589   3.053 -0.8067 -0.0394  0.0044
 4184TIP3    H133967   6.346   2.532   3.028 -0.8610  0.6252 -1.3806
 4184TIP3    H233968   6.384   2.678   3.042 -0.1946  0.2780  0.5799
 4185TIP3   OH233969   3.131   3.691  13.496  0.5545 -0.3930 -0.1891
 4185TIP3    H133970   3.212   3.724  13.535  0.5144  2.6093 -2.4183
 4185TIP3    H233971   3.142   3.707  13.402 -2.3399 -0.5917 -0.6059
 4186TIP3   OH233972   5.794   5.588   2.745  0.0900  0.2913  0.5614
 4186TIP3    H133973   5.723   5.543   2.699 -0.4628  0.4881  1.2202
 4186TIP3    H233974   5.849   5.517   2.778 -1.0055  0.0858  1.9563
 4187TIP3   OH233975   1.835   2.287   5.870 -0.0282 -0.0228  0.5065
 4187TIP3    H133976   1.776   2.229   5.919  2.2459 -2.6530  0.2305
 4187TIP3    H233977   1.888   2.228   5.817  0.7884  2.4993 -1.5891
 4188TIP3   OH233978   0.024   5.281   3.036 -0.3489 -0.0743  0.7863
 4188TIP3    H133979   0.037   5.278   3.131 -0.6398 -0.0748  0.8285
 4188TIP3    H233980  -0.016   5.366   3.019  0.1670  0.1310  0.6021
 4189TIP3   OH233981   4.078   4.714   0.697 -0.3986 -0.4532 -0.7801
 4189TIP3    H133982   3.998   4.727   0.749  0.0196  2.9695 -0.8660
 4189TIP3    H233983   4.145   4.692   0.762 -0.7510 -0.1812 -0.3167
 4190TIP3   OH233984   6.001   0.284   0.614 -0.7051  0.2321  0.2601
 4190TIP3    H133985   6.000   0.379   0.627  0.7693  0.3601 -0.3565
 4190TIP3    H233986   6.091   0.265   0.587 -1.3119 -1.1733 -0.8510
 4191TIP3   OH233987   3.360   5.316   0.643  0.0441  0.3638  0.1656
 4191TIP3    H133988   3.446   5.341   0.678  0.5670  0.6665 -1.3033
 4191TIP3    H233989   3.353   5.222   0.661  0.7054  0.3317  0.2688
 4192TIP3   OH233990   6.188   4.867  13.007  0.4105 -0.2062  0.3061
 4192TIP3    H133991   6.122   4.899  12.946 -0.8617 -2.5035  0.4382
 4192TIP3    H233992   6.253   4.937  13.011 -1.0288  1.2539 -1.3264
 4193TIP3   OH233993   3.816   5.435  11.614 -0.0033 -0.3029 -0.1134
 4193TIP3    H133994   3.834   5.518  11.660 -1.2513  1.4024 -2.5790
 4193TIP3    H233995   3.889   5.425  11.553 -0.7309 -0.0918 -1.0321
 4194TIP3   OH233996   3.566   1.400  13.287  0.7952 -0.1274 -0.1716
 4194TIP3    H133997   3.574   1.393  13.192  1.9300  1.2471 -0.1960
 4194TIP3    H233998   3.648   1.364  13.321  1.9282  2.6063  0.1148
 4195TIP3   OH233999   6.466   6.721   4.604 -0.2257  0.4073  0.3262
 4195TIP3    H134000   6.514   6.753   4.680 -0.2734  1.0120  0.1078
 4195TIP3    H234001   6.378   6.756   4.614 -0.1806  0.6557 -0.1046
 4196TIP3   OH234002   1.810   4.300   5.193  0.0998 -0.2951 -0.8789
 4196TIP3    H134003   1.755   4.254   5.257 -0.8829 -0.8306 -2.0709
 4196TIP3    H234004   1.866   4.357   5.245 -0.0240 -1.4292  0.5084
 4197TIP3   OH234005   5.603   3.058   3.573  0.1010 -0.6643  0.3726
 4197TIP3    H134006   5.674   2.999   3.548  0.3929 -0.6623  1.2140
 4197TIP3    H234007   5.525   3.018   3.534  0.7008 -0.0877 -1.4821
 4198TIP3   OH234008   1.417   0.127  16.012  0.5809  0.0308  0.0088
 4198TIP3    H134009   1.359   0.059  16.047  1.3478  0.6046  2.5314
 4198TIP3    H234010   1.368   0.164  15.939 -0.3434 -2.4414 -0.6971
 4199TIP3   OH234011   4.852   4.024   2.216  0.0088 -0.7972  0.4855
 4199TIP3    H134012   4.888   4.049   2.302  0.6232 -2.5314  0.7582
 4199TIP3    H234013   4.888   4.089   2.156 -0.5083  0.5094  1.5329
 4200TIP3   OH234014   2.923   0.158  14.582 -0.0018  0.1673 -0.0286
 4200TIP3    H134015   2.907   0.119  14.668 -0.9831  1.2475  0.2903
 4200TIP3    H234016   2.931   0.252  14.600  0.9522  0.2781 -0.9746
 4201TIP3   OH234017   5.530   6.691   0.534  0.1677 -0.3845  0.0106
 4201TIP3    H134018   5.520   6.724   0.445  2.0800  0.2176 -0.0113
 4201TIP3    H234019   5.494   6.603   0.532  0.2604 -0.3915 -1.3788
 4202TIP3   OH234020   6.635   4.594   1.978 -0.0560  0.6057  0.1016
 4202TIP3    H134021   6.700   4.594   2.048  0.1341 -1.5923 -0.0184
 4202TIP3    H234022   6.684   4.621   1.900  1.3595 -3.1601 -0.4527
 4203TIP3   OH234023   5.038   5.363  11.348  0.6587  0.2523 -0.0810
 4203TIP3    H134024   5.017   5.300  11.280 -1.3370 -0.0932  0.8478
 4203TIP3    H234025   5.122   5.401  11.320  0.5542 -0.8841 -1.9855
 4204TIP3   OH234026   3.948   1.001  12.320 -0.2246 -0.5333 -0.9161
 4204TIP3    H134027   3.859   1.031  12.338  0.0629 -0.6318  0.7333
 4204TIP3    H234028   3.978   1.058  12.248 -0.4652  1.7039  0.7058
 4205TIP3   OH234029   4.450   1.060   4.795  0.8904  0.4139  0.1514
 4205TIP3    H134030   4.410   1.088   4.877  1.3042 -0.9339  0.8262
 4205TIP3    H234031   4.533   1.107   4.792  0.8403  0.5268  0.4580
 4206TIP3   OH234032   3.742   1.451  15.450 -0.1506  0.3141 -0.0222
 4206TIP3    H134033   3.716   1.386  15.384  1.1432  0.7838 -1.0169
 4206TIP3    H234034   3.660   1.491  15.478 -0.8466 -0.8925 -0.3095
 4207TIP3   OH234035   5.331   5.959  15.441  0.2063  0.8151  0.2243
 4207TIP3    H134036   5.246   5.915  15.439  0.4773  0.3397 -1.2495
 4207TIP3    H234037   5.330   6.008  15.524 -1.3228  0.4807  0.4270
 4208TIP3   OH234038   2.238   2.059   5.895 -0.3420 -0.0928 -0.0812
 4208TIP3    H134039   2.222   2.112   5.817 -0.6500 -0.6061 -0.3758
 4208TIP3    H234040   2.281   2.118   5.956 -1.0135  0.5853 -0.2624
 4209TIP3   OH234041   4.145   4.037   5.730 -0.5038 -0.2353  0.2734
 4209TIP3    H134042   4.171   4.068   5.817 -0.2448 -1.1911  0.5510
 4209TIP3    H234043   4.134   3.942   5.741  0.0210 -0.4405 -0.8543
 4210TIP3   OH234044   4.222   1.750   1.307  0.1235  0.5822  0.3406
 4210TIP3    H134045   4.147   1.695   1.283  1.4212 -0.6322 -0.9767
 4210TIP3    H234046   4.241   1.801   1.228  0.9182  0.6324  0.5640
 4211TIP3   OH234047   0.469   2.245   2.981  0.9652  0.0218 -0.5147
 4211TIP3    H134048   0.437   2.195   2.906 -0.8262  1.7968 -0.9945
 4211TIP3    H234049   0.409   2.223   3.052  2.3477 -1.2600  0.2787
 4212TIP3   OH234050   1.582   3.116  10.762  0.3443 -0.9286 -0.1583
 4212TIP3    H134051   1.509   3.176  10.775  0.2878 -0.6563 -1.6836
 4212TIP3    H234052   1.548   3.049  10.702  0.5020 -2.3155  1.2533
 4213TIP3   OH234053   3.633   0.309  15.285  0.5524  0.1790 -0.1025
 4213TIP3    H134054   3.673   0.270  15.207  2.2433  2.1172 -0.2183
 4213TIP3    H234055   3.617   0.400  15.261  1.8178  0.9896  2.0815
 4214TIP3   OH234056   5.840   6.286   0.523 -0.0975  0.0421 -0.0070
 4214TIP3    H134057   5.934   6.274   0.536 -0.0348  0.3925 -0.1462
 4214TIP3    H234058   5.818   6.231   0.448 -0.2058 -0.9043  0.7013
 4215TIP3   OH234059   1.556   5.688   3.136 -0.3331  0.2001  0.5908
 4215TIP3    H134060   1.573   5.617   3.074 -1.1211  0.3870  0.1459
 4215TIP3    H234061   1.467   5.671   3.166 -0.3063  0.6639  0.9313
 4216TIP3   OH234062   4.428   5.671   0.254  0.1326 -0.3902 -1.3052
 4216TIP3    H134063   4.409   5.703   0.342  1.6128 -0.0336 -1.1001
 4216TIP3    H234064   4.344   5.639   0.221 -0.1524 -1.8618  0.7838
 4217TIP3   OH234065   0.802   1.382   1.121  0.2676  0.2690 -0.4947
 4217TIP3    H134066   0.817   1.386   1.026 -0.7219  0.9225 -0.6403
 4217TIP3    H234067   0.712   1.352   1.129  0.1492  0.8033  0.2201
 4218TIP3   OH234068   0.598   3.718   5.845 -0.0200  0.7380  0.7596
 4218TIP3    H134069   0.601   3.677   5.931  0.6359  1.4134  1.0683
 4218TIP3    H234070   0.605   3.645   5.783  0.6334  0.3394  1.2926
 4219TIP3   OH234071   6.237   6.722   0.757 -0.2813 -0.0434  0.4205
 4219TIP3    H134072   6.329   6.732   0.780 -0.1120 -0.3137 -0.1441
 4219TIP3    H234073   6.192   6.790   0.808 -0.0425 -1.2721  2.2993
 4220TIP3   OH234074   5.874   5.151   6.228  0.1432  0.1639 -0.8056
 4220TIP3    H134075   5.867   5.226   6.287 -1.5737  0.3177 -1.1738
 4220TIP3    H234076   5.925   5.087   6.277 -0.8192  0.4849  0.6519
 4221TIP3   OH234077   5.895   2.154  11.604 -0.6672  0.0024 -0.3938
 4221TIP3    H134078   5.808   2.173  11.638 -0.6122  0.0161 -0.2558
 4221TIP3    H234079   5.929   2.085  11.663 -0.8452 -0.4804 -0.8508
 4222TIP3   OH234080   5.730   5.980  17.142 -0.3099  0.1009 -0.4766
 4222TIP3    H134081   5.693   6.000  17.227  1.8128  0.8678  0.2940
 4222TIP3    H234082   5.733   5.884  17.139 -2.5453  0.0204 -0.6650
 4223TIP3   OH234083   3.545   6.449  12.112  0.0836  0.6111 -0.0874
 4223TIP3    H134084   3.535   6.538  12.079 -1.3151  0.4725 -0.0810
 4223TIP3    H234085   3.472   6.438  12.173  0.1239 -0.5996 -0.2481
 4224TIP3   OH234086   1.073   4.578   3.452 -0.0974 -0.5186  0.1370
 4224TIP3    H134087   1.105   4.662   3.484 -2.4687  0.2094  0.6515
 4224TIP3    H234088   0.990   4.564   3.497 -0.2712 -2.6329 -0.7473
 4225TIP3   OH234089   5.765   2.547  11.397 -0.1942 -0.2608 -0.5152
 4225TIP3    H134090   5.802   2.508  11.476  0.6183  1.5149  0.0055
 4225TIP3    H234091   5.828   2.616  11.373 -1.4176  0.4888 -1.6022
 4226TIP3   OH234092   0.516   4.728  14.781 -0.4032  0.0085 -0.5306
 4226TIP3    H134093   0.428   4.761  14.800 -0.1370  0.5675 -0.2668
 4226TIP3    H234094   0.511   4.699  14.689 -0.2511  2.0668 -1.2084
 4227TIP3   OH234095   0.459   3.638   2.921 -0.4812  0.3815 -0.2783
 4227TIP3    H134096   0.485   3.547   2.909 -0.7328  0.0323  1.6561
 4227TIP3    H234097   0.364   3.637   2.914 -0.3834  0.7351 -1.7003
 4228TIP3   OH234098   1.883   1.075  14.220  0.2731  0.3070 -0.2386
 4228TIP3    H134099   1.865   0.983  14.242  1.4225  0.1072 -0.0728
 4228TIP3    H234100   1.882   1.078  14.125 -3.0255  0.8181 -0.2488
 4229TIP3   OH234101   0.389   5.621   0.628 -0.2192  0.1418 -0.3990
 4229TIP3    H134102   0.335   5.579   0.561  0.9659  0.4035 -1.5424
 4229TIP3    H234103   0.451   5.553   0.655 -1.1403 -0.1852  0.9724
 4230TIP3   OH234104   5.985   6.711   1.731  0.0764  0.3704 -0.5408
 4230TIP3    H134105   5.929   6.675   1.662  0.8867  0.0746 -1.0672
 4230TIP3    H234106   5.939   6.693   1.812  0.2692 -1.5548 -0.8108
 4231TIP3   OH234107   5.916   5.597  12.924  0.3276 -0.4732  0.1075
 4231TIP3    H134108   5.834   5.632  12.889  0.6506 -0.5117 -0.6934
 4231TIP3    H234109   5.975   5.592  12.849  1.4474  0.6520  0.8696
 4232TIP3   OH234110   1.692   1.538  11.443  0.7449 -0.1579  0.4770
 4232TIP3    H134111   1.671   1.631  11.441  0.7381 -0.1595  0.4765
 4232TIP3    H234112   1.787   1.534  11.430  0.6332 -0.1966 -0.3824
 4233TIP3   OH234113   3.977   2.932  12.062 -0.1447  0.2827  0.2973
 4233TIP3    H134114   3.975   2.921  11.967  0.7726  0.3338  0.2689
 4233TIP3    H234115   3.911   2.998  12.080 -1.4504 -0.8879 -0.1401
 4234TIP3   OH234116   5.970   0.393   2.820 -0.0330 -0.1956  1.2099
 4234TIP3    H134117   5.979   0.378   2.725 -0.9032  1.2211  0.8802
 4234TIP3    H234118   5.939   0.310   2.855 -1.0032 -0.3491  0.0385
 4235TIP3   OH234119   3.111   3.728   0.121 -0.8415  0.3086  0.2705
 4235TIP3    H134120   3.101   3.755   0.212  0.0706  0.5450  0.2999
 4235TIP3    H234121   3.203   3.740   0.102 -1.0325  0.2748 -0.6987
 4236TIP3   OH234122   5.002   4.493  15.548  0.5323  0.1325  0.2359
 4236TIP3    H134123   4.934   4.561  15.549  0.9036  0.5133 -0.3022
 4236TIP3    H234124   5.022   4.480  15.456  1.7633  0.6006  0.4240
 4237TIP3   OH234125   0.752   1.559   4.975 -0.0439 -0.2005  0.2865
 4237TIP3    H134126   0.794   1.536   5.058  1.0993 -1.3762 -0.5927
 4237TIP3    H234127   0.744   1.654   4.977 -0.9807 -0.2966  2.1849
 4238TIP3   OH234128   3.178   4.560  14.176  0.4539 -0.1969 -0.1790
 4238TIP3    H134129   3.129   4.484  14.144  0.7570 -0.1377 -0.7851
 4238TIP3    H234130   3.112   4.627  14.190  0.2885 -0.3109 -0.4151
 4239TIP3   OH234131   6.395   0.042   4.879  0.2286  0.2241 -0.0075
 4239TIP3    H134132   6.375   0.002   4.964  1.6248  0.6614  0.5248
 4239TIP3    H234133   6.437   0.125   4.900 -0.5701  0.9417 -1.1308
 4240TIP3   OH234134   4.611   1.048  14.898 -0.1478  0.3392  0.2347
 4240TIP3    H134135   4.650   1.126  14.937  0.4429 -0.2833  0.8993
 4240TIP3    H234136   4.614   0.982  14.967  0.1609 -0.5370 -0.6007
 4241TIP3   OH234137   1.484   3.383   3.439 -0.0806 -0.1188 -0.8951
 4241TIP3    H134138   1.506   3.314   3.501  0.0597 -1.0293 -1.9479
 4241TIP3    H234139   1.397   3.360   3.407  0.2357 -0.1703 -1.7376
 4242TIP3   OH234140   3.794   1.566  14.021 -0.3631  0.0291  0.4070
 4242TIP3    H134141   3.712   1.594  13.980 -0.3725 -0.4194  0.1065
 4242TIP3    H234142   3.859   1.630  13.993 -0.2627 -0.5594 -0.7392
 4243TIP3   OH234143   2.052   6.261   0.631  0.0377  0.5712 -0.3205
 4243TIP3    H134144   2.039   6.329   0.697  0.6924 -0.0655  0.4736
 4243TIP3    H234145   1.965   6.245   0.596 -0.3324  0.8484  0.4596
 4244TIP3   OH234146   0.231   0.856  15.147 -0.6231 -0.6716  0.3061
 4244TIP3    H134147   0.262   0.767  15.164 -1.0262 -0.6438  1.2276
 4244TIP3    H234148   0.245   0.869  15.053  0.1750 -1.4212  0.3111
 4245TIP3   OH234149   3.679   3.667   6.750  0.1692  0.0356  0.2192
 4245TIP3    H134150   3.621   3.729   6.795  0.3591 -1.0812  2.1004
 4245TIP3    H234151   3.760   3.715   6.735 -0.0503  0.5620  0.7201
 4246TIP3   OH234152   2.868   5.130   5.742 -0.6549  0.6523 -0.1998
 4246TIP3    H134153   2.811   5.170   5.807 -0.6352 -0.5108  0.5517
 4246TIP3    H234154   2.816   5.131   5.661 -0.8982  1.5682 -0.0366
 4247TIP3   OH234155   6.552   0.127   6.291  0.3736 -0.4639  0.7211
 4247TIP3    H134156   6.605   0.170   6.223 -0.8373  0.7452  0.5230
 4247TIP3    H234157   6.612   0.118   6.365  0.7799  1.2682  0.6388
 4248TIP3   OH234158   6.607   6.571  14.483  0.0812  0.6002  0.3416
 4248TIP3    H134159   6.518   6.606  14.479 -0.5168 -1.0428 -1.6489
 4248TIP3    H234160   6.663   6.643  14.455 -0.6384  1.5234  1.2179
 4249TIP3   OH234161   1.026   1.905  10.738 -0.4459  0.2721 -1.1605
 4249TIP3    H134162   0.960   1.971  10.758 -0.5804  0.6593 -2.8857
 4249TIP3    H234163   0.991   1.824  10.775 -0.4527  1.0509  0.6307
 4250TIP3   OH234164   4.853   1.845   5.731  0.1445 -0.0680  0.1626
 4250TIP3    H134165   4.758   1.850   5.729  0.0771 -1.3590  0.2923
 4250TIP3    H234166   4.873   1.755   5.754  1.4031 -0.2198 -1.4010
 4251TIP3   OH234167   5.093   3.862   1.288  0.4918 -0.0168  0.0128
 4251TIP3    H134168   5.037   3.915   1.345 -1.1459  0.1859 -1.7156
 4251TIP3    H234169   5.144   3.925   1.238 -0.6821 -0.0789 -1.2830
 4252TIP3   OH234170   5.167   4.589   5.999  0.5419  0.5809  0.2402
 4252TIP3    H134171   5.148   4.553   5.913 -2.5989  1.6102  0.4576
 4252TIP3    H234172   5.161   4.513   6.058  0.7188  0.2446 -0.1712
 4253TIP3   OH234173   5.282   4.421   0.852 -0.2701 -0.5309 -0.4653
 4253TIP3    H134174   5.339   4.358   0.807  1.1797  0.7941 -0.5169
 4253TIP3    H234175   5.229   4.366   0.910  0.4836 -1.8826 -1.0076
 4254TIP3   OH234176   5.188   5.125  15.650  0.6436 -0.1656 -0.1834
 4254TIP3    H134177   5.254   5.056  15.651  1.1749  0.3396  0.0556
 4254TIP3    H234178   5.143   5.116  15.734  0.3505 -0.5669 -0.3853
 4255TIP3   OH234179   5.541   5.932  12.300 -0.5571 -0.3410  0.3414
 4255TIP3    H134180   5.601   5.995  12.261  0.1583 -1.2052  0.0506
 4255TIP3    H234181   5.454   5.960  12.269 -0.2921  0.7522  0.5645
 4256TIP3   OH234182   5.457   6.538  13.540  0.1243  0.3057  0.0124
 4256TIP3    H134183   5.399   6.475  13.583  1.8130 -1.9988 -0.9262
 4256TIP3    H234184   5.545   6.513  13.571  0.8340  2.1798 -0.4450
 4257TIP3   OH234185   4.281   2.830   2.419 -0.2449  0.0044  0.1984
 4257TIP3    H134186   4.295   2.916   2.458  0.7052  0.0086 -0.1236
 4257TIP3    H234187   4.341   2.828   2.345 -2.6570  0.3316 -1.8087
 4258TIP3   OH234188   4.171   0.043   4.200  0.0751 -0.9657 -0.1045
 4258TIP3    H134189   4.170  -0.027   4.265  0.8249  0.1973  1.1766
 4258TIP3    H234190   4.150  -0.001   4.118  0.7645 -2.7304  0.6387
 4259TIP3   OH234191   1.664   5.733  10.827  0.2239  0.1812  0.2296
 4259TIP3    H134192   1.757   5.740  10.845  0.0895 -0.2793  1.1467
 4259TIP3    H234193   1.652   5.644  10.796  0.3687  0.8102 -1.6444
 4260TIP3   OH234194   4.159   3.711  13.637 -0.4487  0.3615  0.1389
 4260TIP3    H134195   4.251   3.696  13.615 -0.1518  1.0057  0.8818
 4260TIP3    H234196   4.146   3.805  13.622 -1.0203  0.2476 -0.0871
 4261TIP3   OH234197   6.465   1.642  12.484 -0.9295  0.0257  0.1893
 4261TIP3    H134198   6.481   1.553  12.514  1.0340  0.2289 -0.1607
 4261TIP3    H234199   6.527   1.696  12.534 -1.0459  0.9912 -0.6837
 4262TIP3   OH234200   0.814   4.425   3.011  0.4495 -0.2348  0.0196
 4262TIP3    H134201   0.782   4.480   3.083 -0.1069  1.6889 -1.6371
 4262TIP3    H234202   0.906   4.410   3.031  0.3213  0.3618  1.0813
 4263TIP3   OH234203   2.544   2.850  11.733 -0.1867  0.2023 -0.5306
 4263TIP3    H134204   2.503   2.852  11.820 -0.5074  0.0742 -0.6806
 4263TIP3    H234205   2.628   2.895  11.746  0.0711 -0.4165  0.0091
 4264TIP3   OH234206   0.675   2.811   1.526 -0.0261  0.0019  0.2851
 4264TIP3    H134207   0.745   2.747   1.537 -0.0479 -0.0003  0.4149
 4264TIP3    H234208   0.637   2.821   1.613  0.7110  1.0302  0.5076
 4265TIP3   OH234209   4.405   5.942   6.360 -0.1101  0.4195  0.2998
 4265TIP3    H134210   4.490   5.984   6.348 -0.3528  1.5966  2.5061
 4265TIP3    H234211   4.361   5.995   6.426 -2.5631 -0.1965 -0.8005
 4266TIP3   OH234212   5.717   3.661   2.351 -0.1780 -0.0083  0.1003
 4266TIP3    H134213   5.649   3.677   2.416  0.8561  0.4625  1.0727
 4266TIP3    H234214   5.729   3.566   2.353 -1.3723 -0.1968 -0.6753
 4267TIP3   OH234215   3.472   3.143   1.076  0.1104  0.0517 -0.2996
 4267TIP3    H134216   3.459   3.117   1.167  2.8461 -1.2684 -0.2388
 4267TIP3    H234217   3.542   3.087   1.044 -1.2661  0.0027 -3.4648
 4268TIP3   OH234218   2.146   2.725  12.901 -0.2565  0.0336  0.4033
 4268TIP3    H134219   2.072   2.753  12.848  1.3737  0.6375 -1.6143
 4268TIP3    H234220   2.136   2.773  12.983 -2.2131 -0.0748  0.2455
 4269TIP3   OH234221   5.898   6.297  16.551 -0.0137 -0.7132  0.1006
 4269TIP3    H134222   5.931   6.381  16.519 -0.8319 -0.0785  0.8978
 4269TIP3    H234223   5.957   6.274  16.622 -0.2291 -0.4519  0.3637
 4270TIP3   OH234224   6.021   0.229  13.691  0.0205  0.1737 -0.4585
 4270TIP3    H134225   6.083   0.265  13.754  0.7182  0.6298 -1.3881
 4270TIP3    H234226   5.958   0.299  13.677 -0.6576 -0.2611  0.4258
 4271TIP3   OH234227   1.597   4.026   4.448 -0.3812 -0.0394 -0.5247
 4271TIP3    H134228   1.649   4.005   4.370 -0.9941  0.5069 -1.0916
 4271TIP3    H234229   1.520   4.070   4.413  0.0007  1.4854  0.4874
 4272TIP3   OH234230   3.664   4.780  17.224  0.1729  0.2832  0.4326
 4272TIP3    H134231   3.748   4.797  17.267 -0.0669  0.2931  0.8997
 4272TIP3    H234232   3.688   4.751  17.136  0.6318  1.3600  0.1919
 4273TIP3   OH234233   3.686   2.272   4.948  0.7433  0.0081 -0.0714
 4273TIP3    H134234   3.626   2.302   4.879  0.0486 -1.3466 -0.0740
 4273TIP3    H234235   3.723   2.191   4.913  2.2949  0.6270  0.1020
 4274TIP3   OH234236   5.344   3.845   2.776  0.5367 -0.1389  0.1382
 4274TIP3    H134237   5.331   3.827   2.870  0.6784 -1.1070 -0.0316
 4274TIP3    H234238   5.437   3.829   2.761  0.6804  0.7916 -0.0058
 4275TIP3   OH234239   4.119   3.563  17.144  0.0356 -0.2235  0.0287
 4275TIP3    H134240   4.106   3.619  17.067  0.5641  0.7630  0.6517
 4275TIP3    H234241   4.159   3.620  17.209 -1.6938 -0.6736  1.5378
 4276TIP3   OH234242   2.892   1.855  15.956  0.4322 -0.5357 -0.0735
 4276TIP3    H134243   2.849   1.795  16.017 -0.8197  0.0206 -0.3894
 4276TIP3    H234244   2.837   1.854  15.878  1.2413 -0.1512 -0.6645
 4277TIP3   OH234245   1.572   1.840   2.769 -0.5397 -0.0152 -0.2831
 4277TIP3    H134246   1.517   1.912   2.739 -2.7850 -1.0339  1.2378
 4277TIP3    H234247   1.542   1.765   2.718 -0.9828 -0.6913  0.9511
 4278TIP3   OH234248   3.035   4.268  15.624  0.1986  0.5623 -0.4632
 4278TIP3    H134249   2.981   4.270  15.545  0.7103 -1.3295 -0.8716
 4278TIP3    H234250   3.101   4.336  15.610  0.9429 -0.4975 -2.1428
 4279TIP3   OH234251   1.716   4.609   3.717 -0.2963 -0.2769 -0.0802
 4279TIP3    H134252   1.750   4.669   3.784  0.0307 -1.4674  0.8367
 4279TIP3    H234253   1.623   4.600   3.738 -0.3638 -0.0220 -0.2701
 4280TIP3   OH234254   6.039   5.878   2.404 -0.1030  0.3060 -0.3060
 4280TIP3    H134255   6.047   5.804   2.464  0.2237  1.5261  1.2050
 4280TIP3    H234256   5.945   5.881   2.383  0.1422 -1.5944 -1.8093
 4281TIP3   OH234257   1.456   5.340   2.842 -0.5730 -0.5878 -0.0097
 4281TIP3    H134258   1.551   5.333   2.855 -0.6449 -0.3220  0.6877
 4281TIP3    H234259   1.443   5.427   2.806 -0.6203 -0.3571  0.5645
 4282TIP3   OH234260   5.718   2.895  16.200 -1.1518 -0.5957  0.1272
 4282TIP3    H134261   5.729   2.926  16.291  1.8755  0.3474 -0.4892
 4282TIP3    H234262   5.724   2.975  16.147  0.6611 -1.4996 -1.0944
 4283TIP3   OH234263   4.041   1.999  15.619 -0.1431 -0.2657  0.2302
 4283TIP3    H134264   4.114   1.971  15.563  0.8026  0.4053  1.0983
 4283TIP3    H234265   4.078   2.001  15.707 -1.6467 -1.4283  0.9253
 4284TIP3   OH234266   6.068   0.981   2.061  0.5160 -0.0834  0.0338
 4284TIP3    H134267   6.133   1.032   2.014  0.4321  0.6322  0.6912
 4284TIP3    H234268   6.037   0.916   1.997  0.4087  0.8726 -0.8923
 4285TIP3   OH234269   6.195   6.438   4.705  0.0650  0.0865  0.0121
 4285TIP3    H134270   6.181   6.532   4.718  1.8825  0.5695 -1.2694
 4285TIP3    H234271   6.271   6.433   4.647  1.1618 -2.2112  1.5389
 4286TIP3   OH234272   2.464   5.203   5.351  0.0813  0.3469  0.1708
 4286TIP3    H134273   2.443   5.220   5.443  0.4377  0.6938  0.1885
 4286TIP3    H234274   2.519   5.277   5.325  0.0184  0.2247 -0.3088
 4287TIP3   OH234275   6.334   3.946  15.691 -0.2331 -0.1903  0.2592
 4287TIP3    H134276   6.385   3.865  15.687  1.0911  0.6454 -0.0712
 4287TIP3    H234277   6.338   3.982  15.603  1.1722  1.4202  0.9530
 4288TIP3   OH234278   0.903   1.962   1.121  0.6110 -0.2003  0.7847
 4288TIP3    H134279   0.972   1.921   1.069  0.7755  0.4863  0.4570
 4288TIP3    H234280   0.821   1.936   1.079  0.6330 -1.6123  1.5989
 4289TIP3   OH234281   3.329   2.507  16.647  0.1155  0.9167 -0.3093
 4289TIP3    H134282   3.237   2.507  16.673  0.5223 -0.4838  1.1654
 4289TIP3    H234283   3.328   2.476  16.557 -0.8690  1.2011 -0.4079
 4290TIP3   OH234284   0.181   1.076  10.732 -0.6295  0.6000  0.0940
 4290TIP3    H134285   0.131   1.148  10.694 -2.0249  0.0601  0.8460
 4290TIP3    H234286   0.129   0.998  10.713  0.2723 -0.0706  0.3178
 4291TIP3   OH234287   4.186   0.324   2.810  0.2399  0.2774  0.7047
 4291TIP3    H134288   4.201   0.267   2.734  0.4471  1.0337  0.1689
 4291TIP3    H234289   4.118   0.385   2.780  0.8228  1.0198  0.8993
 4292TIP3   OH234290   4.329   5.072  13.354 -0.3499  0.8004 -0.1495
 4292TIP3    H134291   4.263   5.007  13.379  1.3651 -1.5633 -1.5713
 4292TIP3    H234292   4.352   5.115  13.437 -3.2451  1.3441  0.4534
 4293TIP3   OH234293   3.537   5.073   5.127 -0.2787 -0.0398  0.2359
 4293TIP3    H134294   3.598   5.091   5.055  0.7258 -0.7283  0.9100
 4293TIP3    H234295   3.592   5.045   5.199 -1.4700 -1.7886  0.5105
 4294TIP3   OH234296   0.348   6.154   2.835 -0.7051  0.0037  0.1632
 4294TIP3    H134297   0.261   6.130   2.866 -1.4013  1.3907 -0.6591
 4294TIP3    H234298   0.334   6.192   2.748  0.9602 -1.6625 -0.8738
 4295TIP3   OH234299   3.211   1.782  15.480 -0.1424  0.1554  0.0058
 4295TIP3    H134300   3.237   1.690  15.481  2.2835  0.7950 -1.1922
 4295TIP3    H234301   3.290   1.829  15.506 -1.0403  1.9721 -0.4885
 4296TIP3   OH234302   1.432   5.440   5.608  0.1979 -0.2492  0.2217
 4296TIP3    H134303   1.465   5.442   5.698 -1.2631 -0.3835  0.7791
 4296TIP3    H234304   1.510   5.444   5.553  1.0612  0.5689  1.4968
 4297TIP3   OH234305   1.531   5.110   5.650 -0.5892 -0.8269 -0.0708
 4297TIP3    H134306   1.540   5.055   5.728  0.2087  0.1933  0.5675
 4297TIP3    H234307   1.588   5.185   5.666 -1.0280 -0.2077 -1.2929
 4298TIP3   OH234308   3.423   2.587   3.483  0.2211 -0.6661  0.1378
 4298TIP3    H134309   3.369   2.526   3.533 -1.0723  0.0453 -0.3694
 4298TIP3    H234310   3.509   2.583   3.524 -0.4739 -1.0904  1.5643
 4299TIP3   OH234311   2.830   5.317   2.862 -0.6062 -0.1160  0.5534
 4299TIP3    H134312   2.871   5.247   2.811  0.3185  1.2547 -0.6389
 4299TIP3    H234313   2.857   5.300   2.952 -0.8840 -1.6206  0.3708
 4300TIP3   OH234314   2.640   3.166  11.754 -0.2652  0.3892  0.2747
 4300TIP3    H134315   2.638   3.177  11.849 -1.1048  0.4767  0.2446
 4300TIP3    H234316   2.565   3.216  11.722  1.0194  1.8047 -0.5803
 4301TIP3   OH234317   5.709   1.739  15.505 -0.1389 -0.2893 -0.2994
 4301TIP3    H134318   5.618   1.766  15.515  0.4667  0.8633  2.5867
 4301TIP3    H234319   5.746   1.802  15.443 -0.8687  0.2773 -0.1612
 4302TIP3   OH234320   5.535   1.876   1.071  0.3726 -0.2103 -0.5792
 4302TIP3    H134321   5.442   1.892   1.082  0.4901 -0.4424  0.8036
 4302TIP3    H234322   5.563   1.939   1.004 -0.8354 -0.3978 -1.2706
 4303TIP3   OH234323   5.422   6.624  14.462  0.4278 -0.2675 -0.0233
 4303TIP3    H134324   5.387   6.618  14.373 -1.8151 -4.1374  0.9847
 4303TIP3    H234325   5.508   6.581  14.457  0.2110 -0.6710 -0.2547
 4304TIP3   OH234326   4.827   4.522   0.622  0.4727  0.2599 -0.7408
 4304TIP3    H134327   4.911   4.487   0.591  0.3557  1.6636 -2.7594
 4304TIP3    H234328   4.771   4.445   0.629  1.1179 -0.3655 -2.1190
 4305TIP3   OH234329   5.603   0.905   2.159  0.0617 -0.0332 -0.5956
 4305TIP3    H134330   5.541   0.944   2.221  2.3813 -0.3061  1.9833
 4305TIP3    H234331   5.616   0.972   2.092 -3.1675 -0.0734 -1.3258
 4306TIP3   OH234332   0.024   1.278  14.360 -0.3599  0.0736  0.3025
 4306TIP3    H134333   0.028   1.235  14.275  0.4570  1.6347 -0.4486
 4306TIP3    H234334   0.051   1.210  14.422  0.4373 -0.6514 -0.8247
 4307TIP3   OH234335   3.284   1.678  13.481  0.0269 -0.1775  0.2626
 4307TIP3    H134336   3.303   1.595  13.525 -0.5897 -0.2517  0.3785
 4307TIP3    H234337   3.303   1.660  13.388  0.3499 -0.3075  0.3522
 4308TIP3   OH234338   0.256   6.396  14.997  0.5795 -0.6539  0.2799
 4308TIP3    H134339   0.204   6.460  14.949 -0.3090 -2.2056 -0.8876
 4308TIP3    H234340   0.233   6.411  15.089  2.5893  2.5851  0.3253
 4309TIP3   OH234341   1.298   6.019  14.749 -0.4051  0.1196 -0.3227
 4309TIP3    H134342   1.329   6.109  14.757  1.3378 -0.4137 -0.9298
 4309TIP3    H234343   1.303   6.000  14.656  0.2854 -0.9595 -0.0765
 4310TIP3   OH234344   5.128   5.423  10.824  0.4351  0.0860 -0.2842
 4310TIP3    H134345   5.060   5.358  10.807  1.5974 -1.1283 -0.3647
 4310TIP3    H234346   5.082   5.507  10.821 -0.9928 -0.6915 -0.6717
 4311TIP3   OH234347   6.527   5.845  11.133  0.7452 -0.7451 -0.9962
 4311TIP3    H134348   6.585   5.826  11.059 -0.9313  0.8233 -2.7403
 4311TIP3    H234349   6.449   5.883  11.094  0.2164  1.0308  1.6531
 4312TIP3   OH234350   5.149   2.167   3.023  0.0462  0.4134  0.0673
 4312TIP3    H134351   5.144   2.100   3.091 -3.0030 -0.5441 -1.0383
 4312TIP3    H234352   5.217   2.227   3.054  0.4355 -1.3204  2.7481
 4313TIP3   OH234353   1.351   3.128   4.671 -0.7669  0.1147 -0.0214
 4313TIP3    H134354   1.409   3.199   4.642 -0.1863 -0.5596 -0.5148
 4313TIP3    H234355   1.319   3.088   4.590  3.0691 -3.5884  0.1342
 4314TIP3   OH234356   5.624   6.275  13.768  0.2705 -0.1574 -0.3801
 4314TIP3    H134357   5.636   6.345  13.704  0.6843  0.4506  0.3498
 4314TIP3    H234358   5.707   6.227  13.767  0.6793  0.5065  0.4603
 4315TIP3   OH234359   4.536   2.550  12.706 -0.0009  0.1653 -0.8563
 4315TIP3    H134360   4.456   2.602  12.706 -0.4684 -0.5401 -0.8295
 4315TIP3    H234361   4.576   2.566  12.791 -0.4625 -0.0009 -0.6070
 4316TIP3   OH234362   3.191   2.207  16.937 -0.0664  0.0775 -0.1932
 4316TIP3    H134363   3.208   2.236  17.027  0.0462 -0.5064 -0.0277
 4316TIP3    H234364   3.116   2.259  16.909  0.8928  1.4181 -0.3124
 4317TIP3   OH234365   4.831   2.867   3.726 -0.0047  0.2065  0.2974
 4317TIP3    H134366   4.877   2.932   3.672 -1.4730  0.3910 -0.7803
 4317TIP3    H234367   4.865   2.783   3.696 -1.0088  0.2934 -1.1351
 4318TIP3   OH234368   2.103   3.663  16.558 -0.1950  0.3689  0.0604
 4318TIP3    H134369   2.150   3.623  16.485 -1.5340 -3.2996  1.1123
 4318TIP3    H234370   2.035   3.716  16.516  0.5050  0.1928 -1.3479
 4319TIP3   OH234371   5.925   4.840   5.271  0.3737 -0.1566  0.2198
 4319TIP3    H134372   5.865   4.818   5.200  2.1775  0.7139 -1.5971
 4319TIP3    H234373   5.870   4.884   5.336 -0.8496  1.2228 -1.7106
 4320TIP3   OH234374   1.933   0.030  15.700 -0.1053 -0.5768  0.2011
 4320TIP3    H134375   1.968   0.061  15.617 -2.1472  0.6088 -0.2607
 4320TIP3    H234376   1.888  -0.052  15.678 -0.7292 -0.2127  0.1055
 4321TIP3   OH234377   0.411   0.363   5.113  0.2501 -1.1338 -0.3501
 4321TIP3    H134378   0.379   0.448   5.143  1.4059 -0.9986  0.5172
 4321TIP3    H234379   0.368   0.350   5.028  1.6345  1.2430 -1.4619
 4322TIP3   OH234380   6.496   3.966  11.535  0.0684  0.3886 -0.1869
 4322TIP3    H134381   6.469   3.980  11.444  0.7548  1.6173 -0.2198
 4322TIP3    H234382   6.588   3.942  11.529  0.1563  0.6294  0.1959
 4323TIP3   OH234383   2.046   1.522   1.249  0.5662 -0.0400 -0.9060
 4323TIP3    H134384   1.982   1.517   1.319  0.4032 -0.2303 -1.0680
 4323TIP3    H234385   2.051   1.615   1.227  0.9178  0.0706 -0.3678
 4324TIP3   OH234386   0.051   2.317  16.118  0.8079 -0.1332 -0.5847
 4324TIP3    H134387  -0.024   2.371  16.142  1.4130 -0.4188  2.0851
 4324TIP3    H234388   0.121   2.380  16.101  0.3645  0.0774 -1.6501
 4325TIP3   OH234389   2.858   1.227  15.435  0.4272 -0.4600  0.8335
 4325TIP3    H134390   2.928   1.240  15.371 -1.4758  0.9140 -1.0454
 4325TIP3    H234391   2.789   1.183  15.386 -1.5103  1.6016  1.6027
 4326TIP3   OH234392   1.625   4.252  13.732  0.4012 -0.1256  0.9410
 4326TIP3    H134393   1.546   4.302  13.748  0.1348 -0.0560 -0.4699
 4326TIP3    H234394   1.694   4.318  13.723  0.0569  0.0191 -0.8796
 4327TIP3   OH234395   6.437   6.028   2.966  0.3063 -0.1558  0.3343
 4327TIP3    H134396   6.398   5.944   2.991  0.0655 -0.6582 -1.6199
 4327TIP3    H234397   6.371   6.068   2.909  0.4740  1.3079  1.1590
 4328TIP3   OH234398   3.983   0.540  13.844  0.1181 -0.5078 -0.0258
 4328TIP3    H134399   3.971   0.604  13.915  1.0520 -2.2922  1.8045
 4328TIP3    H234400   4.077   0.521  13.844 -0.1288 -1.8187 -0.5569
 4329TIP3   OH234401   6.027   0.548  11.471 -0.5801 -0.7231  0.2470
 4329TIP3    H134402   6.075   0.610  11.526 -1.7208 -0.3052  0.7894
 4329TIP3    H234403   6.026   0.467  11.522 -1.3621 -0.4254  0.7282
 4330TIP3   OH234404   0.670   5.318  16.300 -0.7068 -0.1012  0.2409
 4330TIP3    H134405   0.678   5.361  16.215 -0.9147  0.0066  0.2768
 4330TIP3    H234406   0.696   5.227  16.283 -0.6050 -0.0447  0.0936
 4331TIP3   OH234407   3.315   3.673  14.606 -0.1109 -0.3010 -0.3125
 4331TIP3    H134408   3.304   3.692  14.513  1.4003  1.1905 -0.2065
 4331TIP3    H234409   3.231   3.698  14.645 -0.6035 -0.5281 -1.2154
 4332TIP3   OH234410   2.554   3.033  13.675  0.2890 -0.2921 -0.5370
 4332TIP3    H134411   2.596   3.119  13.684  1.3185 -0.7094 -1.3340
 4332TIP3    H234412   2.621   2.970  13.700 -0.6313 -0.8576  0.5650
 4333TIP3   OH234413   4.646   0.257   2.886  0.1823  1.0942  0.1443
 4333TIP3    H134414   4.626   0.318   2.957  1.8224  0.2011  1.4210
 4333TIP3    H234415   4.742   0.249   2.887  0.1674  0.3200 -1.5424
 4334TIP3   OH234416   4.114   2.378   4.597  0.2667 -0.2316  0.0914
 4334TIP3    H134417   4.067   2.371   4.514 -2.9586  1.3060  1.7050
 4334TIP3    H234418   4.099   2.467   4.626 -0.9482 -1.5004  3.6402
 4335TIP3   OH234419   2.842   1.144  11.865  0.3038  0.1855  0.5804
 4335TIP3    H134420   2.752   1.116  11.848  0.2840  0.1011  0.8273
 4335TIP3    H234421   2.844   1.237  11.842  0.5636 -0.1911 -1.0071
 4336TIP3   OH234422   6.367   4.009  13.838  0.3017 -0.0872 -0.1708
 4336TIP3    H134423   6.449   3.976  13.801  1.2846  1.4300  0.5815
 4336TIP3    H234424   6.381   4.104  13.844 -0.8340 -0.0196  1.5987
 4337TIP3   OH234425   2.863   1.653   0.024  0.5422 -0.5966 -0.3637
 4337TIP3    H134426   2.844   1.658  -0.070  0.1300 -0.1511 -0.2565
 4337TIP3    H234427   2.792   1.600   0.060 -0.4197  0.9358  0.0133
 4338TIP3   OH234428   5.363   0.781  17.147  0.1162  0.2651  0.3502
 4338TIP3    H134429   5.275   0.750  17.167  0.2679  0.0641  0.7054
 4338TIP3    H234430   5.399   0.807  17.231  0.7944 -0.6851  0.3541
 4339TIP3   OH234431   0.287   1.961  16.025  0.2022 -0.5828 -0.4939
 4339TIP3    H134432   0.354   2.016  15.984 -0.8223  1.7885  0.8663
 4339TIP3    H234433   0.320   1.945  16.114 -0.5226 -0.2410 -0.1489
 4340TIP3   OH234434   6.671   0.842  11.166  0.3459 -0.1894  0.1898
 4340TIP3    H134435   6.613   0.863  11.092 -2.3783 -1.4819  1.8892
 4340TIP3    H234436   6.744   0.794  11.126 -0.2677  0.5266 -1.8609
 4341TIP3   OH234437   0.988   0.257  16.616  0.9121  0.1396  0.6609
 4341TIP3    H134438   1.022   0.167  16.612 -0.0929 -0.2167 -0.2544
 4341TIP3    H234439   0.933   0.257  16.694  0.5781 -0.1722  0.4330
 4342TIP3   OH234440   4.252   0.022   5.841 -0.0773  0.1309  0.3653
 4342TIP3    H134441   4.346   0.005   5.827 -0.3419  1.5140 -3.6588
 4342TIP3    H234442   4.210  -0.014   5.763 -2.6216  2.0267  0.8363
 4343TIP3   OH234443   4.881   3.981   1.795  0.0208  0.0295  0.2250
 4343TIP3    H134444   4.909   3.958   1.884  0.4918  0.9354  0.3163
 4343TIP3    H234445   4.810   4.045   1.809 -1.0949 -1.1387 -0.0254
 4344TIP3   OH234446   1.860   3.272  10.618 -0.0181  0.4956  0.3682
 4344TIP3    H134447   1.907   3.355  10.623  0.8579  0.0071  0.3014
 4344TIP3    H234448   1.928   3.206  10.616 -0.6856 -0.1798 -0.7432
 4345TIP3   OH234449   1.619   6.260  15.962  0.4934  0.5429  0.2650
 4345TIP3    H134450   1.584   6.259  16.051 -2.9628 -0.5420 -1.0371
 4345TIP3    H234451   1.650   6.171  15.946 -0.9929  0.1264 -0.3781
 4346TIP3   OH234452   5.044   1.016   1.241 -0.3697  0.6301 -0.3141
 4346TIP3    H134453   5.038   0.971   1.157  0.3960  1.7874 -0.9971
 4346TIP3    H234454   5.133   1.052   1.242 -0.6542  1.3126  0.6452
 4347TIP3   OH234455   1.840   5.326   1.078  0.2615  0.1832  0.1671
 4347TIP3    H134456   1.779   5.309   1.006 -1.0949  1.5478  0.9623
 4347TIP3    H234457   1.915   5.367   1.036  0.5715 -1.3221 -0.8000
 4348TIP3   OH234458   6.778   0.400   2.669 -0.4443  0.3003 -0.3287
 4348TIP3    H134459   6.710   0.352   2.715  0.2567 -0.4223 -0.0202
 4348TIP3    H234460   6.777   0.488   2.707 -1.5257  0.4380 -0.6725
 4349TIP3   OH234461   5.439   2.767  14.802  0.1098 -0.5228  0.4863
 4349TIP3    H134462   5.431   2.672  14.793 -0.6115 -0.4448  0.2612
 4349TIP3    H234463   5.497   2.779  14.877  3.1829 -1.1693 -1.6743
 4350TIP3   OH234464   4.522   3.858   1.490 -0.0481 -0.2299 -0.6234
 4350TIP3    H134465   4.522   3.764   1.471  1.4604 -0.3304 -0.2079
 4350TIP3    H234466   4.553   3.863   1.581  0.5446  0.7033 -0.8745
 4351TIP3   OH234467   4.653   0.437   4.365  0.0053 -0.2753  0.0165
 4351TIP3    H134468   4.590   0.503   4.397  1.2653  0.9958 -0.0598
 4351TIP3    H234469   4.705   0.415   4.442  0.7875  0.2073 -0.3697
 4352TIP3   OH234470   2.525   3.719   0.399 -0.0924 -0.2443 -0.0965
 4352TIP3    H134471   2.450   3.769   0.430 -1.0897 -1.6397 -0.2083
 4352TIP3    H234472   2.553   3.669   0.476  1.3549  1.0105  0.2139
 4353TIP3   OH234473   2.920   0.242  16.205 -0.0748 -0.0032  0.3288
 4353TIP3    H134474   2.876   0.158  16.214  0.0632 -0.1138 -0.0321
 4353TIP3    H234475   2.877   0.283  16.130  0.4753 -0.1357 -0.0585
 4354TIP3   OH234476   3.202   5.905  12.179  0.4700 -0.0322  0.2809
 4354TIP3    H134477   3.195   5.985  12.128  0.4039 -0.7454 -0.8344
 4354TIP3    H234478   3.202   5.835  12.115  0.6544 -0.9304  1.2414
 4355TIP3   OH234479   0.224   3.064  13.085  0.0785 -0.1753 -0.9527
 4355TIP3    H134480   0.314   3.089  13.107 -0.4217  1.1498 -0.3848
 4355TIP3    H234481   0.217   3.082  12.991  0.6491 -1.0666 -1.1786
 4356TIP3   OH234482   6.255   5.615   4.961 -0.0410 -0.0541  0.5749
 4356TIP3    H134483   6.231   5.684   4.899 -0.7108  0.0583  0.9599
 4356TIP3    H234484   6.229   5.533   4.917  0.1221 -0.0214  0.4150
 4357TIP3   OH234485   3.727   6.311  12.262  0.2988 -0.1028  0.2478
 4357TIP3    H134486   3.815   6.336  12.232  0.2361 -0.3588 -0.1499
 4357TIP3    H234487   3.668   6.357  12.202  0.1979 -3.0445 -1.9781
 4358TIP3   OH234488   4.646   2.576  12.936 -0.5975 -0.0740  0.5308
 4358TIP3    H134489   4.603   2.554  13.018 -0.6241 -1.0035  0.2774
 4358TIP3    H234490   4.726   2.523  12.936 -0.1692  0.5646  0.3463
 4359TIP3   OH234491   3.669   0.744   1.635 -0.3129 -0.2429  0.2814
 4359TIP3    H134492   3.723   0.767   1.560 -0.1845  0.7365  0.6721
 4359TIP3    H234493   3.586   0.716   1.597  0.0038 -0.4538 -0.2563
 4360TIP3   OH234494   1.628   0.771   1.857  0.5403 -0.4982  0.1088
 4360TIP3    H134495   1.584   0.686   1.853 -0.6929  0.0601  1.6836
 4360TIP3    H234496   1.579   0.821   1.921  2.3202  0.8114  0.4907
 4361TIP3   OH234497   4.248   6.343  12.480 -0.5018 -0.3090  0.3464
 4361TIP3    H134498   4.275   6.283  12.410 -0.7308 -0.3898  0.3258
 4361TIP3    H234499   4.178   6.395  12.440 -0.4117 -0.1355  0.4140
 4362TIP3   OH234500   4.720   0.975  13.134  0.0088 -0.0113 -0.5116
 4362TIP3    H134501   4.625   0.980  13.148  0.0291  1.5746 -0.8561
 4362TIP3    H234502   4.753   1.062  13.157  1.3817 -0.5451 -0.4077
 4363TIP3   OH234503   4.198   2.611   2.785  0.4833  0.1861  0.1941
 4363TIP3    H134504   4.208   2.656   2.702 -3.5330 -2.3071 -1.7922
 4363TIP3    H234505   4.123   2.654   2.827 -0.0076 -1.1149  0.6914
 4364TIP3   OH234506   6.731   0.261   1.879  0.7793  0.1419  1.0561
 4364TIP3    H134507   6.804   0.316   1.907  1.5751 -0.9072  1.0920
 4364TIP3    H234508   6.762   0.218   1.799 -0.7011  1.5197 -0.2935
 4365TIP3   OH234509   3.621   6.692   0.040  0.4025 -0.3378 -0.3329
 4365TIP3    H134510   3.643   6.713   0.131 -2.5804  0.2514  0.3135
 4365TIP3    H234511   3.666   6.758  -0.012  2.2533 -0.7643  0.6741
 4366TIP3   OH234512   5.464   3.536   3.643  0.0250  0.1135  0.3648
 4366TIP3    H134513   5.438   3.534   3.551  1.2305  1.0607 -0.0028
 4366TIP3    H234514   5.386   3.571   3.688 -0.6303 -0.5190 -0.2665
 4367TIP3   OH234515   1.851   2.224  15.153 -0.8179 -0.3362  0.1690
 4367TIP3    H134516   1.774   2.250  15.103 -0.2628 -1.6269 -1.4164
 4367TIP3    H234517   1.890   2.306  15.183 -1.3483  0.4456 -1.2583
 4368TIP3   OH234518   2.952   0.870  14.388 -0.0459 -0.1700 -0.2998
 4368TIP3    H134519   2.995   0.793  14.351 -1.1254 -0.9288  0.0236
 4368TIP3    H234520   2.923   0.843  14.475 -0.1299  0.7059 -0.0472
 4369TIP3   OH234521   6.605   1.585   2.377  0.0438 -0.5249  0.0443
 4369TIP3    H134522   6.518   1.577   2.415 -0.0309 -2.2505 -0.4637
 4369TIP3    H234523   6.621   1.680   2.374 -0.9619 -0.2547  2.0213
 4370TIP3   OH234524   4.384   5.780  14.087  0.2952  0.9486 -0.5908
 4370TIP3    H134525   4.406   5.854  14.031 -0.1906  0.5272 -1.3317
 4370TIP3    H234526   4.311   5.812  14.141 -0.3623  0.7952 -1.3755
 4371TIP3   OH234527   5.153   3.628   4.468  0.1886  0.0342 -0.1367
 4371TIP3    H134528   5.228   3.571   4.448  1.0898  1.0880  0.2180
 4371TIP3    H234529   5.153   3.637   4.563  0.0598  0.6362 -0.1898
 4372TIP3   OH234530   6.394   1.085   1.369 -0.1288  0.3607  0.0996
 4372TIP3    H134531   6.472   1.110   1.320 -0.4076 -0.1689 -0.6132
 4372TIP3    H234532   6.424   1.082   1.460  1.2022 -1.8594 -0.3701
 4373TIP3   OH234533   5.852   0.872   4.986 -0.2373  0.1440  0.5776
 4373TIP3    H134534   5.773   0.832   5.021 -1.2446  0.6477 -1.0161
 4373TIP3    H234535   5.869   0.947   5.043 -1.3482  0.4572  0.5102
 4374TIP3   OH234536   4.690   4.655  11.210 -0.8460  0.4410  0.1530
 4374TIP3    H134537   4.687   4.750  11.201  0.5204  0.3440 -1.5931
 4374TIP3    H234538   4.708   4.623  11.122  2.1441 -1.2530  1.2854
 4375TIP3   OH234539   5.540   1.675  11.205 -0.3879  0.3104 -0.3074
 4375TIP3    H134540   5.540   1.588  11.165  1.0888 -0.8374  2.0185
 4375TIP3    H234541   5.612   1.721  11.163 -1.5897  0.6525 -2.0138
 4376TIP3   OH234542   0.670   6.718  16.158 -0.4954 -0.3452 -0.0284
 4376TIP3    H134543   0.765   6.705  16.161 -0.0878  2.5840  1.0494
 4376TIP3    H234544   0.645   6.697  16.068  1.0985 -1.4573 -0.2314
 4377TIP3   OH234545   3.840   0.090   5.710  0.1131  0.1070  0.0302
 4377TIP3    H134546   3.896   0.143   5.653  0.9920 -0.4730  0.3409
 4377TIP3    H234547   3.793   0.033   5.650  1.0061 -0.4728 -0.1318
 4378TIP3   OH234548   6.723   3.247  11.561  0.4049 -0.3627  0.1043
 4378TIP3    H134549   6.811   3.214  11.583  0.5756  0.3496  0.5144
 4378TIP3    H234550   6.664   3.199  11.619  0.4993 -1.0129 -0.3347
 4379TIP3   OH234551   0.714   6.346  11.170 -0.1397 -0.0402  0.0507
 4379TIP3    H134552   0.689   6.356  11.078 -0.1909 -0.8299 -0.0262
 4379TIP3    H234553   0.757   6.260  11.174  0.6134  0.3539  0.6042
 4380TIP3   OH234554   4.168   2.493  16.888  0.3715 -0.0875  0.4526
 4380TIP3    H134555   4.208   2.511  16.803  2.0838 -3.2185  0.5221
 4380TIP3    H234556   4.240   2.502  16.951  0.3765 -2.9851  0.9087
 4381TIP3   OH234557   4.814   1.320  13.995  0.5278  0.0705  0.4811
 4381TIP3    H134558   4.899   1.365  13.992  1.5579 -1.8500 -0.2648
 4381TIP3    H234559   4.827   1.249  14.057 -0.2877 -0.7185 -0.2515
 4382TIP3   OH234560   5.039   4.652  11.623  0.5394 -0.1668 -0.0379
 4382TIP3    H134561   4.989   4.671  11.543  0.4165  2.1353  0.5557
 4382TIP3    H234562   5.029   4.558  11.635 -1.3566 -0.1956 -1.4722
 4383TIP3   OH234563   6.673   0.103   5.949  0.2883 -0.3635  0.1819
 4383TIP3    H134564   6.712   0.092   5.862  0.1183 -0.0014  0.0572
 4383TIP3    H234565   6.718   0.039   6.004  0.2128 -0.7830 -0.2342
 4384TIP3   OH234566   3.863   0.951  10.965 -0.2370  0.2749  0.2562
 4384TIP3    H134567   3.877   0.857  10.953 -0.7903  0.3568 -1.0916
 4384TIP3    H234568   3.814   0.958  11.047  1.7035 -0.4581  1.5172
 4385TIP3   OH234569   4.680   1.638   4.555  0.3625  0.3300 -0.2989
 4385TIP3    H134570   4.755   1.597   4.513  0.6043  0.0876  0.3776
 4385TIP3    H234571   4.692   1.623   4.648  0.0700  1.2866 -0.0947
 4386TIP3   OH234572   4.386   1.346  15.329 -0.0076  0.4503  0.1988
 4386TIP3    H134573   4.379   1.278  15.262  1.1143 -0.4485  0.9503
 4386TIP3    H234574   4.443   1.413  15.290  2.4090 -1.0682  0.9870
 4387TIP3   OH234575   5.712   4.856  16.675  0.2320  0.5317 -0.0924
 4387TIP3    H134576   5.774   4.799  16.720  1.2842 -0.4161 -2.6755
 4387TIP3    H234577   5.648   4.880  16.742  2.2479 -0.1080  2.1084
 4388TIP3   OH234578   4.014   4.439   6.019 -0.1880 -0.1264  0.0209
 4388TIP3    H134579   4.013   4.344   6.034 -0.3977 -0.0444  0.5411
 4388TIP3    H234580   4.010   4.477   6.107 -0.4663  0.3665 -0.2042
 4389TIP3   OH234581   3.329   4.100  14.299  0.4727  0.0602  0.0322
 4389TIP3    H134582   3.240   4.102  14.333  0.7250 -1.6383  0.8444
 4389TIP3    H234583   3.323   4.051  14.217  0.4780  0.9481 -0.5060
 4390TIP3   OH234584   5.853   5.037  13.092 -0.2518  0.4905 -0.4817
 4390TIP3    H134585   5.948   5.050  13.094  0.1678 -1.8969 -2.1199
 4390TIP3    H234586   5.825   5.072  13.007 -1.4866  4.6232  1.5000
 4391TIP3   OH234587   0.840   2.920   3.230 -0.8037 -0.0008  0.2866
 4391TIP3    H134588   0.841   2.982   3.303  0.0612  1.5845 -1.0359
 4391TIP3    H234589   0.766   2.948   3.176 -0.0682  0.2162 -0.6050
 4392TIP3   OH234590   3.508   1.425  14.395  0.3639 -0.3757 -0.0262
 4392TIP3    H134591   3.562   1.347  14.384 -0.4250 -1.2355  1.8823
 4392TIP3    H234592   3.524   1.453  14.485  1.2320  2.1558 -0.9170
 4393TIP3   OH234593   5.060   1.352   3.746 -0.7307  0.0051 -0.2674
 4393TIP3    H134594   4.965   1.361   3.738 -0.6603  1.0366 -0.1265
 4393TIP3    H234595   5.086   1.425   3.802 -0.1430 -1.7535  1.7981
 4394TIP3   OH234596   3.275   0.088   4.299 -0.4499  0.5469 -0.8772
 4394TIP3    H134597   3.196   0.058   4.253 -2.4105  1.1245  1.9808
 4394TIP3    H234598   3.243   0.122   4.382  3.1030 -1.3583  1.3808
 4395TIP3   OH234599   2.578   6.310  12.181 -0.1549  0.1777 -0.3770
 4395TIP3    H134600   2.623   6.299  12.265 -1.9969  0.7793  0.7187
 4395TIP3    H234601   2.593   6.228  12.135 -1.1398 -1.1208  1.5472
 4396TIP3   OH234602   3.325   1.789   1.884  0.5350 -0.0931 -0.6994
 4396TIP3    H134603   3.386   1.717   1.871 -0.3383 -1.0193  0.1743
 4396TIP3    H234604   3.263   1.783   1.811  0.7720  0.0922 -0.9145
 4397TIP3   OH234605   3.452   2.934   2.906 -0.4697 -0.3261  0.1429
 4397TIP3    H134606   3.532   2.979   2.878  0.0112 -1.4974 -0.4056
 4397TIP3    H234607   3.449   2.855   2.853 -1.9288 -0.3708  0.2672
 4398TIP3   OH234608   5.728   5.333   3.627 -0.1093  0.4890  0.0221
 4398TIP3    H134609   5.810   5.306   3.585 -1.0823  0.1092 -1.6572
 4398TIP3    H234610   5.686   5.390   3.562 -0.1367  2.5546  1.7699
 4399TIP3   OH234611   2.634   1.345  14.105 -0.3751  0.4811  0.5336
 4399TIP3    H134612   2.598   1.433  14.118 -1.5299  0.1728 -0.4613
 4399TIP3    H234613   2.704   1.357  14.040 -1.5917  0.4431 -0.8100
 4400TIP3   OH234614   6.291   2.550   2.310 -0.4689  0.1490 -0.4353
 4400TIP3    H134615   6.368   2.582   2.355 -0.5982  0.3482 -0.3574
 4400TIP3    H234616   6.262   2.623   2.256 -0.4028 -0.0393 -0.7247
 4401TIP3   OH234617   2.301   4.197  11.105  0.2478  0.1877 -0.2438
 4401TIP3    H134618   2.293   4.188  11.010 -1.9179  2.2511 -0.2976
 4401TIP3    H234619   2.238   4.133  11.140  0.1898  0.2586 -0.2189
 4402TIP3   OH234620   4.256   6.526   3.104  0.2445  0.3048 -0.1144
 4402TIP3    H134621   4.236   6.444   3.059  1.5328  0.2146 -0.5717
 4402TIP3    H234622   4.350   6.520   3.124 -0.2533  0.4401  2.4352
 4403TIP3   OH234623   5.507   2.157   0.195 -0.2557 -0.5743 -0.0579
 4403TIP3    H134624   5.469   2.077   0.157 -1.8378 -0.3316  0.9484
 4403TIP3    H234625   5.485   2.152   0.288  1.0206  0.2733  0.3019
 4404TIP3   OH234626   0.415   2.916  14.883  0.3432  0.4289  0.1780
 4404TIP3    H134627   0.468   2.866  14.945  1.1421  1.8809  0.6894
 4404TIP3    H234628   0.330   2.872  14.883  1.4221 -1.7294 -0.3988
 4405TIP3   OH234629   0.186   5.487   0.095  0.2223 -0.3452 -0.3161
 4405TIP3    H134630   0.207   5.485   0.188  1.7069  2.8966 -0.5109
 4405TIP3    H234631   0.109   5.544   0.088 -1.1727 -2.2213 -0.9159
 4406TIP3   OH234632   0.215   1.190  12.339  0.2445 -0.1334  0.0419
 4406TIP3    H134633   0.161   1.261  12.375 -0.1869 -0.6250  0.3610
 4406TIP3    H234634   0.176   1.173  12.253 -2.3121 -2.8448  1.6416
 4407TIP3   OH234635   4.725   2.740  15.178  0.1789  0.3878 -0.1376
 4407TIP3    H134636   4.785   2.759  15.250  0.0869  0.8395 -0.1817
 4407TIP3    H234637   4.654   2.804  15.189  0.2584  0.5753 -0.7437
 4408TIP3   OH234638   1.401   6.024   3.322  0.4454  0.3360 -0.3801
 4408TIP3    H134639   1.327   6.012   3.263 -0.8573  0.7543  1.1471
 4408TIP3    H234640   1.397   5.950   3.382  0.8691  0.7305  0.1439
 4409TIP3   OH234641   6.487   3.559   4.170  0.5198 -0.3277 -0.2399
 4409TIP3    H134642   6.422   3.488   4.168  0.6690 -0.4472 -0.6665
 4409TIP3    H234643   6.533   3.553   4.087  0.2200  0.5611 -0.4761
 4410TIP3   OH234644   0.807   5.017  15.890 -0.5663 -0.4720 -0.7345
 4410TIP3    H134645   0.809   5.010  15.985  1.4389 -0.6624 -0.7521
 4410TIP3    H234646   0.798   5.111  15.873  2.3042 -0.0699 -0.3053
 4411TIP3   OH234647   4.871   0.264   4.210 -0.4405 -0.0936  0.2212
 4411TIP3    H134648   4.783   0.227   4.203  0.2643 -1.9183  0.8114
 4411TIP3    H234649   4.895   0.286   4.120 -1.4583  0.3295  0.0499
 4412TIP3   OH234650   2.359   6.777   5.858 -0.2871 -0.2208  0.0799
 4412TIP3    H134651   2.302   6.748   5.786 -1.2952 -1.6596  1.4250
 4412TIP3    H234652   2.446   6.748   5.832 -0.6214 -0.6069 -0.6381
 4413TIP3   OH234653   2.421   2.523   4.099 -0.2372 -0.0330  0.2351
 4413TIP3    H134654   2.468   2.526   4.183 -1.3071 -0.6611  0.8775
 4413TIP3    H234655   2.475   2.467   4.044  0.9449  1.1211  0.1905
 4414TIP3   OH234656   5.954   0.363   4.413 -0.3024  0.2686 -0.6008
 4414TIP3    H134657   5.886   0.415   4.369  0.3481  1.2372 -0.4860
 4414TIP3    H234658   5.954   0.279   4.367 -0.3875  0.8812 -1.7348
 4415TIP3   OH234659   0.589   5.797  12.997 -0.2553 -0.4449 -0.4311
 4415TIP3    H134660   0.670   5.844  13.018 -0.1825  0.4560 -2.5788
 4415TIP3    H234661   0.592   5.719  13.051  0.6530  0.9861  1.6650
 4416TIP3   OH234662   2.957   5.666   3.641  0.4139 -0.5666 -0.3870
 4416TIP3    H134663   3.022   5.644   3.708  1.3023  0.2002 -0.9853
 4416TIP3    H234664   3.005   5.663   3.559 -0.0942  0.8441 -0.7569
 4417TIP3   OH234665   4.707   4.147  16.733 -0.5603  0.1384 -0.2235
 4417TIP3    H134666   4.662   4.063  16.744 -1.3385  0.5103 -0.4996
 4417TIP3    H234667   4.707   4.162  16.639  0.1211  0.1547 -0.2205
 4418TIP3   OH234668   6.468   2.539   3.585  0.0349 -0.3155 -0.2499
 4418TIP3    H134669   6.556   2.502   3.578 -0.1617 -1.0270  0.9115
 4418TIP3    H234670   6.429   2.527   3.498  1.5544  1.2383 -1.1685
 4419TIP3   OH234671   2.062   3.085   3.506 -0.4935 -0.5914 -0.0927
 4419TIP3    H134672   2.075   3.027   3.431  2.1643  0.8681 -0.8634
 4419TIP3    H234673   2.021   3.163   3.469  2.0805  0.6967 -0.3570
 4420TIP3   OH234674   3.475   3.748   3.727  0.0850  0.3093 -0.8372
 4420TIP3    H134675   3.523   3.667   3.740  4.1669  2.7961  0.1936
 4420TIP3    H234676   3.424   3.760   3.807  2.3740  0.6083  0.6058
 4421TIP3   OH234677   1.996   1.413   3.447 -0.1344 -0.2011  0.3427
 4421TIP3    H134678   2.063   1.475   3.419  0.0443 -1.2028 -1.5317
 4421TIP3    H234679   2.041   1.356   3.509  0.0176  0.7815  1.1528
 4422TIP3   OH234680   2.944   1.974  16.858  0.3844 -0.0009  0.6313
 4422TIP3    H134681   2.889   1.984  16.936  0.9798  0.5781  0.9737
 4422TIP3    H234682   3.028   1.942  16.891  0.1141 -1.3518  0.0585
 4423TIP3   OH234683   0.098   6.054  14.863 -0.5040  0.1797  0.1590
 4423TIP3    H134684   0.125   6.022  14.777 -3.0062  1.0606 -1.0157
 4423TIP3    H234685   0.178   6.085  14.904  0.6994 -0.1243 -1.9234
 4424TIP3   OH234686   3.414   1.577   5.832  0.3949 -0.8693  0.1141
 4424TIP3    H134687   3.479   1.644   5.855  0.7236 -1.4307  0.8172
 4424TIP3    H234688   3.451   1.496   5.866 -0.9280 -1.1114  0.9824
 4425TIP3   OH234689   2.215   0.598   0.564 -0.1737 -0.1934 -0.0339
 4425TIP3    H134690   2.261   0.600   0.480  1.6817 -0.2452  0.9655
 4425TIP3    H234691   2.143   0.660   0.553  0.8086  0.7622 -1.2308
 4426TIP3   OH234692   5.461   4.274   0.698 -0.3286 -0.1173  0.2140
 4426TIP3    H134693   5.462   4.206   0.766 -0.8197 -0.2045  0.1339
 4426TIP3    H234694   5.508   4.235   0.624 -0.8417 -0.4654  0.0728
 4427TIP3   OH234695   0.086   0.207   3.806 -0.0568  0.4573  0.1560
 4427TIP3    H134696  -0.004   0.218   3.777  0.0449 -0.1386 -0.4068
 4427TIP3    H234697   0.106   0.115   3.787  0.7608  0.6597  0.0094
 4428TIP3   OH234698   3.954   5.081   0.756  0.0903 -0.7263 -0.5341
 4428TIP3    H134699   3.975   5.040   0.673 -1.0939 -0.3836 -1.0129
 4428TIP3    H234700   3.951   5.175   0.737  1.0154 -0.5466  0.1619
 4429TIP3   OH234701   4.492   3.160  14.966 -0.3449 -0.4828 -0.2114
 4429TIP3    H134702   4.457   3.108  14.895 -0.9457 -1.2194  0.6104
 4429TIP3    H234703   4.420   3.219  14.990 -0.2162 -0.3754 -0.0883
 4430TIP3   OH234704   2.620   4.855  12.979  0.7695  0.4491  0.0309
 4430TIP3    H134705   2.562   4.867  13.055  0.2295  0.6363 -0.4085
 4430TIP3    H234706   2.676   4.781  13.003 -1.1749 -1.2334 -0.4773
 4431TIP3   OH234707   2.446   5.759   4.709  0.0266  0.7119  0.2669
 4431TIP3    H134708   2.357   5.733   4.732  0.2750 -0.5889 -0.1937
 4431TIP3    H234709   2.492   5.767   4.792  0.5313 -2.5102  0.3539
 4432TIP3   OH234710   4.943   1.794   0.134 -0.7645 -0.0813 -0.1345
 4432TIP3    H134711   4.904   1.723   0.083  0.7267  0.1901 -1.6989
 4432TIP3    H234712   4.909   1.874   0.093  0.7809  0.1461 -1.0026
 4433TIP3   OH234713   3.722   5.594  15.469 -0.7621  0.3305 -0.5005
 4433TIP3    H134714   3.726   5.687  15.492 -0.8986  0.5342 -1.3072
 4433TIP3    H234715   3.663   5.556  15.535 -1.6414  1.0277 -0.8845
 4434TIP3   OH234716   5.155   4.154  15.976  0.1262  0.5430  0.6121
 4434TIP3    H134717   5.069   4.138  15.936  0.8878 -0.1752 -0.7889
 4434TIP3    H234718   5.166   4.084  16.040  0.9169 -1.1458 -1.3193
 4435TIP3   OH234719   2.123   2.847  12.087 -0.0604 -0.1643  0.0590
 4435TIP3    H134720   2.085   2.778  12.032  1.3350  0.4406 -1.7488
 4435TIP3    H234721   2.209   2.812  12.111  0.0300  0.3121  0.4236
 4436TIP3   OH234722   5.431   4.184  15.900 -0.2671 -0.6180  0.0187
 4436TIP3    H134723   5.341   4.151  15.898 -0.0520 -1.1574 -1.2931
 4436TIP3    H234724   5.475   4.138  15.829  1.4214 -1.3751  1.5221
 4437TIP3   OH234725   3.082   4.188   3.558  0.1607  0.0513  0.0869
 4437TIP3    H134726   3.152   4.129   3.584 -0.6252 -1.6574 -1.5421
 4437TIP3    H234727   3.124   4.250   3.498  0.5950 -0.0097  0.3268
 4438TIP3   OH234728   0.847   2.919   2.897 -0.7152 -0.0691  0.3839
 4438TIP3    H134729   0.866   2.826   2.907  1.2187  0.0460 -1.8277
 4438TIP3    H234730   0.774   2.923   2.836 -1.1012 -0.1464  0.8390
 4439TIP3   OH234731   0.054   5.107   3.659 -0.1007  0.3506 -0.6790
 4439TIP3    H134732  -0.026   5.092   3.610  0.0670 -1.9514 -0.2999
 4439TIP3    H234733   0.094   5.183   3.617 -1.9793  0.9332 -1.4721
 4440TIP3   OH234734   2.159   1.641  16.364 -0.4288  0.3519  0.0927
 4440TIP3    H134735   2.191   1.725  16.331  0.8203 -0.4924 -0.9287
 4440TIP3    H234736   2.239   1.592  16.385 -0.9816 -1.9335 -2.8184
 4441TIP3   OH234737   4.269   1.198  15.559 -0.2959 -0.2951 -0.2524
 4441TIP3    H134738   4.329   1.124  15.556 -0.3516 -0.4685  1.8451
 4441TIP3    H234739   4.294   1.253  15.484  3.8771  0.6635  1.6863
 4442TIP3   OH234740   5.975   5.486  12.618 -0.3551 -0.4992 -0.0513
 4442TIP3    H134741   5.894   5.510  12.574 -1.3201 -1.5967  1.0727
 4442TIP3    H234742   5.985   5.392  12.601  0.8018 -0.3237 -0.3701
 4443TIP3   OH234743   4.917   6.373  14.431  0.4050 -0.2230 -0.4106
 4443TIP3    H134744   4.996   6.343  14.385 -0.2993  0.0808 -1.8415
 4443TIP3    H234745   4.931   6.467  14.443 -0.0586 -0.0313 -1.3315
 4444TIP3   OH234746   2.285   2.193  15.734  0.0442  0.1099  0.1370
 4444TIP3    H134747   2.282   2.286  15.710  3.6914  0.3612  0.2527
 4444TIP3    H234748   2.265   2.192  15.828 -2.7437  0.4227 -0.4116
 4445TIP3   OH234749   2.119   5.134  17.188 -0.4021  0.2772 -0.3869
 4445TIP3    H134750   2.178   5.208  17.167 -0.2444  0.0778 -0.6557
 4445TIP3    H234751   2.119   5.081  17.108 -0.0771 -0.3067 -0.0046
 4446TIP3   OH234752   0.509   4.428  10.544 -0.1803 -0.3891 -0.0882
 4446TIP3    H134753   0.517   4.333  10.546 -2.4239 -0.6205 -1.0174
 4446TIP3    H234754   0.471   4.451  10.629 -3.0980 -0.7027 -1.2723
 4447TIP3   OH234755   4.571   3.478   3.162  0.1962 -0.3218  0.0927
 4447TIP3    H134756   4.602   3.486   3.072 -0.3670  0.5401 -0.0282
 4447TIP3    H234757   4.486   3.522   3.163  0.2901 -0.1438  1.0961
 4448TIP3   OH234758   2.176   3.064  15.650  0.2271 -0.4321 -0.0609
 4448TIP3    H134759   2.164   3.072  15.555  0.9581  1.1059 -0.0328
 4448TIP3    H234760   2.130   3.139  15.687  1.6311  0.0796  0.6695
 4449TIP3   OH234761   2.992   2.925   2.652 -0.4615 -0.1597 -0.3155
 4449TIP3    H134762   3.070   2.972   2.623 -2.7240  3.1031 -1.3935
 4449TIP3    H234763   2.993   2.843   2.602  1.7686  0.2670 -1.0068
 4450TIP3   OH234764   3.017   3.923   5.413 -0.1979  1.2774  0.4807
 4450TIP3    H134765   2.932   3.941   5.375 -0.5884  0.2224  0.8315
 4450TIP3    H234766   3.048   3.844   5.367  0.2531  1.2177  0.8791
 4451TIP3   OH234767   1.396   2.193   5.646  0.0596 -0.0084  0.7276
 4451TIP3    H134768   1.438   2.266   5.600  0.9306 -0.8727  0.1272
 4451TIP3    H234769   1.445   2.184   5.727  0.2370 -0.2126  0.5979
 4452TIP3   OH234770   3.137   2.682  14.426 -0.4600 -0.1802  0.1597
 4452TIP3    H134771   3.058   2.640  14.461  1.0598 -2.2330  1.2549
 4452TIP3    H234772   3.179   2.614  14.374  0.6187  0.8917 -0.3925
 4453TIP3   OH234773   5.339   5.547  15.609 -0.0362  0.0477  0.9192
 4453TIP3    H134774   5.311   5.541  15.518 -0.5761 -1.4921  1.1803
 4453TIP3    H234775   5.296   5.626  15.642  0.6575  0.9635 -0.3201
 4454TIP3   OH234776   0.349   0.148   4.172  0.0993 -0.6537 -0.0029
 4454TIP3    H134777   0.257   0.174   4.173  0.2189 -0.2314  0.3078
 4454TIP3    H234778   0.387   0.190   4.249  0.9247  0.5770 -1.0506
 4455TIP3   OH234779   1.693   3.685   2.772 -0.1055 -0.3591 -0.2398
 4455TIP3    H134780   1.681   3.767   2.820  0.3592 -1.9008  2.6160
 4455TIP3    H234781   1.612   3.636   2.787  0.3120 -1.1298 -0.4880
 4456TIP3   OH234782   5.003   0.561   5.654  0.0634 -0.4300  0.1010
 4456TIP3    H134783   4.925   0.615   5.660 -0.7690 -1.6074  0.0028
 4456TIP3    H234784   5.044   0.586   5.571  1.4863  2.3980  1.5761
 4457TIP3   OH234785   1.917   0.440   3.076  0.2505 -0.2087  0.2642
 4457TIP3    H134786   1.921   0.412   3.168  1.3988 -0.2557  0.1999
 4457TIP3    H234787   1.951   0.365   3.027  0.2954  0.0839 -0.1467
 4458TIP3   OH234788   3.514   2.551  11.685 -0.2984 -0.0033 -0.4703
 4458TIP3    H134789   3.419   2.542  11.681 -0.3920  0.5542  0.5135
 4458TIP3    H234790   3.546   2.463  11.705 -0.6753  0.0564  0.3823
 4459TIP3   OH234791   4.088   6.110   6.310 -0.1182  0.3615  0.0964
 4459TIP3    H134792   4.132   6.191   6.335 -1.3139  0.1625  3.1130
 4459TIP3    H234793   4.111   6.048   6.380 -2.0653 -0.8561 -0.3123
 4460TIP3   OH234794   0.581   6.148  13.162 -0.2197  0.6874 -0.0735
 4460TIP3    H134795   0.539   6.227  13.196  1.0293  0.3013  2.4441
 4460TIP3    H234796   0.672   6.174  13.147  0.1332 -0.2039  0.5236
 4461TIP3   OH234797   0.554   1.606  14.747  0.2104  0.0293  0.2886
 4461TIP3    H134798   0.463   1.597  14.720  0.1674  3.1265 -0.8343
 4461TIP3    H234799   0.552   1.666  14.821  1.4202  1.3294 -0.6896
 4462TIP3   OH234800   0.120   5.616  15.254 -0.0688  0.0646  0.4010
 4462TIP3    H134801   0.108   5.521  15.267  0.3251 -0.0967 -0.4075
 4462TIP3    H234802   0.062   5.637  15.180 -0.9162  0.6432  1.2165
 4463TIP3   OH234803   3.288   6.125  11.982  0.5190  0.2445 -0.7206
 4463TIP3    H134804   3.366   6.134  11.926  1.2779  2.4315  0.6154
 4463TIP3    H234805   3.252   6.213  11.987  1.9087  0.6886  4.2296
 4464TIP3   OH234806   2.844   3.682   3.848  0.2514  0.1936  0.2022
 4464TIP3    H134807   2.766   3.661   3.797  0.3478  0.4238 -0.0382
 4464TIP3    H234808   2.880   3.597   3.874 -0.0591  0.0867  0.2859
 4465TIP3   OH234809   4.159   3.382  12.492 -0.0933 -0.6212  0.6329
 4465TIP3    H134810   4.108   3.460  12.470  1.1472 -0.9034 -3.7304
 4465TIP3    H234811   4.099   3.309  12.477  0.1943 -0.7276 -0.0108
 4466TIP3   OH234812   2.920   4.102   2.036 -0.5002 -0.1703 -0.2557
 4466TIP3    H134813   3.016   4.097   2.039 -0.5571 -0.5824  2.1025
 4466TIP3    H234814   2.900   4.122   1.945  1.8008 -0.7522 -0.9333
 4467TIP3   OH234815   6.101   3.381   1.409  0.0965  0.1734 -0.2198
 4467TIP3    H134816   6.064   3.444   1.471 -2.0565 -2.0930  0.9059
 4467TIP3    H234817   6.103   3.427   1.326  0.6626  2.4375  1.0161
 4468TIP3   OH234818   4.563   1.260   1.168  0.2372  0.4878  0.4246
 4468TIP3    H134819   4.500   1.189   1.154  1.2603 -0.4082  0.3191
 4468TIP3    H234820   4.644   1.229   1.128  0.5075  2.0208 -0.2483
 4469TIP3   OH234821   4.282   0.561   5.925 -0.0627 -0.3290 -0.1489
 4469TIP3    H134822   4.219   0.570   5.997  0.6171 -1.6387  0.6467
 4469TIP3    H234823   4.244   0.493   5.869 -1.2695  1.6566 -1.8051
 4470TIP3   OH234824   2.689   1.467   1.726 -0.3943 -0.4967  0.2286
 4470TIP3    H134825   2.662   1.541   1.781  1.0976 -0.2624  0.6653
 4470TIP3    H234826   2.621   1.401   1.739 -0.5293 -0.0885  1.6454
 4471TIP3   OH234827   3.591   1.123  12.084  0.3005 -0.3314 -0.0295
 4471TIP3    H134828   3.551   1.040  12.111 -1.0959 -0.0705 -1.2549
 4471TIP3    H234829   3.615   1.109  11.993  0.5317  0.4565 -0.0887
 4472TIP3   OH234830   1.622   0.682   3.139 -0.0465  0.1595 -0.1719
 4472TIP3    H134831   1.624   0.586   3.150 -0.6961 -0.0757 -1.9949
 4472TIP3    H234832   1.545   0.698   3.085  0.7831  1.6107 -0.9344
 4473TIP3   OH234833   5.689   1.996   3.143  0.2504 -0.0446  0.0039
 4473TIP3    H134834   5.739   2.037   3.213  1.3566 -0.4994 -0.5016
 4473TIP3    H234835   5.708   1.902   3.151 -1.0065 -0.3022  0.1784
 4474TIP3   OH234836   3.229   6.205   0.903 -0.3271  0.4574 -0.6290
 4474TIP3    H134837   3.278   6.172   0.827 -1.1170  0.4804 -1.1521
 4474TIP3    H234838   3.140   6.220   0.870 -0.5841  0.8214  0.2089
 4475TIP3   OH234839   2.770   3.198  16.302 -0.0172 -0.3873  0.0859
 4475TIP3    H134840   2.859   3.234  16.306 -0.4305  0.7348 -0.6826
 4475TIP3    H234841   2.748   3.181  16.393  1.0111 -0.7319  0.2840
 4476TIP3   OH234842   6.022   5.306   1.129  0.2489 -0.4326 -0.7078
 4476TIP3    H134843   6.041   5.344   1.043 -0.3535 -1.6000 -1.3590
 4476TIP3    H234844   5.927   5.309   1.136  0.3684  1.1889  0.6359
 4477TIP3   OH234845   0.042   4.278   1.587 -0.2640  0.7164 -0.0001
 4477TIP3    H134846   0.087   4.326   1.656  0.3638  2.2477 -1.4510
 4477TIP3    H234847   0.076   4.314   1.505 -0.2849 -1.7089 -1.1499
 4478TIP3   OH234848   4.683   2.614  11.589  0.4545 -0.0441  0.4980
 4478TIP3    H134849   4.627   2.664  11.648 -0.8522 -0.3397 -0.4695
 4478TIP3    H234850   4.697   2.672  11.515 -1.6100 -1.3183 -0.9319
 4479TIP3   OH234851   3.190   6.494   6.534  0.2610 -0.2615  0.3133
 4479TIP3    H134852   3.133   6.563   6.570 -0.5453 -0.5950 -0.3071
 4479TIP3    H234853   3.148   6.412   6.559  1.2640 -0.5437  1.1123
 4480TIP3   OH234854   1.471   4.941  12.562  0.0526 -0.7137  0.0241
 4480TIP3    H134855   1.425   4.858  12.573 -1.7356  0.1662 -0.5671
 4480TIP3    H234856   1.450   4.968  12.473  0.3051  0.5426  0.3381
 4481TIP3   OH234857   1.673   3.926  12.839  0.0959  0.8861 -0.2256
 4481TIP3    H134858   1.658   4.016  12.808  1.5138  0.4976 -2.1373
 4481TIP3    H234859   1.596   3.906  12.892 -0.9859  2.6702 -1.0746
 4482TIP3   OH234860   6.125   5.746   2.821 -0.1374 -0.1368  0.2010
 4482TIP3    H134861   6.106   5.744   2.728  1.3107 -0.8429 -0.1039
 4482TIP3    H234862   6.074   5.819   2.855  0.1399  0.7925 -1.3318
 4483TIP3   OH234863   1.212   5.299  16.397  0.6041 -0.0421 -0.4318
 4483TIP3    H134864   1.124   5.291  16.362  1.2567  0.2662 -2.1935
 4483TIP3    H234865   1.269   5.285  16.322  2.0251  1.8769  0.2430
 4484TIP3   OH234866   5.403   2.570  16.071 -0.8732  0.3280  0.0486
 4484TIP3    H134867   5.452   2.492  16.043  0.2058  1.2427 -0.6456
 4484TIP3    H234868   5.312   2.540  16.074 -0.2272 -1.6323  2.1820
 4485TIP3   OH234869   4.154   1.728   2.330 -0.5630 -0.0057 -0.0004
 4485TIP3    H134870   4.249   1.720   2.321 -0.5456 -1.2184  1.0001
 4485TIP3    H234871   4.122   1.748   2.242  0.6894  1.1813 -0.1890
 4486TIP3   OH234872   1.142   3.265  15.569  0.1570 -0.3008 -0.0348
 4486TIP3    H134873   1.211   3.295  15.511 -1.9145  2.9373 -0.9459
 4486TIP3    H234874   1.084   3.214  15.512 -0.7830  1.1301 -0.3677
 4487TIP3   OH234875   3.918   0.244   6.551  0.5208  0.4076 -0.1520
 4487TIP3    H134876   3.878   0.168   6.594  0.7516  0.1504 -0.3884
 4487TIP3    H234877   3.913   0.314   6.616 -0.1706  0.3348 -0.1242
 4488TIP3   OH234878   5.357   1.981  15.049 -0.7286 -0.2169  0.3817
 4488TIP3    H134879   5.384   2.064  15.008  1.3707 -0.9107  0.2877
 4488TIP3    H234880   5.439   1.943  15.081 -1.7707 -1.9294  1.0614
 4489TIP3   OH234881   2.529   4.974   4.305 -0.4548  0.1393  0.0666
 4489TIP3    H134882   2.600   4.975   4.369 -0.1309  3.2777 -0.2700
 4489TIP3    H234883   2.487   4.889   4.318  1.4433 -0.5183  2.3756
 4490TIP3   OH234884   1.120   6.528  13.439 -0.0316  0.0743  0.3119
 4490TIP3    H134885   1.044   6.570  13.479  0.7399  1.5216  0.3147
 4490TIP3    H234886   1.089   6.495  13.355 -0.5743  0.9973  0.1419
 4491TIP3   OH234887   2.988   0.282   4.250  0.0689  0.5153 -0.7444
 4491TIP3    H134888   3.010   0.211   4.311 -0.3625  0.0924 -1.0703
 4491TIP3    H234889   2.979   0.359   4.305 -0.0172  0.1961 -0.3063
 4492TIP3   OH234890   5.645   6.275   5.838  0.2040  0.0156  0.0727
 4492TIP3    H134891   5.582   6.314   5.777  1.7257  0.4304 -1.2712
 4492TIP3    H234892   5.640   6.330   5.916  0.1118  1.0529 -0.6490
 4493TIP3   OH234893   2.172   6.170  15.086  0.5038  0.0289  0.0470
 4493TIP3    H134894   2.147   6.077  15.085  0.7234 -0.0272 -1.2597
 4493TIP3    H234895   2.203   6.187  14.998  2.1472  0.9085  0.7793
 4494TIP3   OH234896   1.379   5.173   3.421 -0.1445 -0.2730 -0.5344
 4494TIP3    H134897   1.354   5.259   3.388 -0.7354 -0.8961 -1.7363
 4494TIP3    H234898   1.306   5.147   3.478  0.2410  0.2084  0.1833
 4495TIP3   OH234899   6.147   0.768  16.726  0.1857 -0.2836  0.0488
 4495TIP3    H134900   6.113   0.754  16.638  0.4123  0.3594 -0.1376
 4495TIP3    H234901   6.239   0.790  16.714  0.0171  0.6315  0.3890
 4496TIP3   OH234902   5.448   1.320   2.441 -0.2329 -0.0501  0.5735
 4496TIP3    H134903   5.501   1.397   2.460  1.5264 -1.4359  1.3440
 4496TIP3    H234904   5.397   1.306   2.521  0.0898 -0.1940  0.7563
 4497TIP3   OH234905   4.607   2.302   0.228 -0.3002  0.5564  0.4521
 4497TIP3    H134906   4.566   2.258   0.153 -1.5914  0.8780  0.9448
 4497TIP3    H234907   4.608   2.394   0.203 -3.0749  1.0212  1.8226
 4498TIP3   OH234908   5.889   0.574   6.214  0.1708  0.0299 -0.0072
 4498TIP3    H134909   5.881   0.506   6.281 -1.1975  1.4905  1.3113
 4498TIP3    H234910   5.803   0.614   6.209  0.8658  1.4336 -1.0635
 4499TIP3   OH234911   5.050   3.098  14.171 -0.0492 -0.1584  0.6426
 4499TIP3    H134912   5.003   3.023  14.136 -0.6837  0.1065  0.9160
 4499TIP3    H234913   5.139   3.090  14.136  0.1354 -1.5149  1.3906
 4500TIP3   OH234914   5.646   2.038   2.269  0.2000  0.1610  0.1329
 4500TIP3    H134915   5.740   2.038   2.248 -0.1789 -2.5677 -1.9258
 4500TIP3    H234916   5.642   2.008   2.360  1.2603 -2.5241 -0.6306
 4501TIP3   OH234917   2.801   0.024   2.117 -0.0470  0.1723 -0.5309
 4501TIP3    H134918   2.842  -0.046   2.066  1.7552  0.9197 -0.1168
 4501TIP3    H234919   2.853   0.030   2.197 -1.7915  0.2116  0.6333
 4502TIP3   OH234920   5.036   3.292   4.453  0.1235  0.1178  0.1862
 4502TIP3    H134921   5.105   3.345   4.412  1.0721 -0.4320  1.0338
 4502TIP3    H234922   5.084   3.222   4.497 -1.2012 -2.2379 -2.0396
 4503TIP3   OH234923   5.497   0.508  16.186 -0.1466  0.6702  0.0508
 4503TIP3    H134924   5.526   0.503  16.095  1.4319  1.7416  0.4823
 4503TIP3    H234925   5.458   0.595  16.195 -0.8768  0.3279  0.2409
 4504TIP3   OH234926   4.928   2.996  16.343 -0.2878  0.5769  0.5578
 4504TIP3    H134927   4.965   3.079  16.373  1.7645  0.8208 -2.4181
 4504TIP3    H234928   4.999   2.954  16.295 -1.7918 -2.1960  0.6567
 4505TIP3   OH234929   0.418   3.626  13.501  0.1746 -0.0841  0.0361
 4505TIP3    H134930   0.496   3.669  13.536 -0.6765  0.5145  1.2140
 4505TIP3    H234931   0.406   3.666  13.414 -0.6921  2.2336  1.1628
 4506TIP3   OH234932   1.023   3.147   2.950 -0.1205 -0.1852 -0.0689
 4506TIP3    H134933   0.941   3.105   2.925 -0.4522  0.2230  0.3340
 4506TIP3    H234934   0.997   3.227   2.995  0.5034  0.2586 -0.4819
 4507TIP3   OH234935   3.220   5.763  14.144  0.2210  0.1170  0.1502
 4507TIP3    H134936   3.167   5.781  14.066 -0.3414  2.1475  0.9727
 4507TIP3    H234937   3.163   5.784  14.217  0.8767 -1.4179  1.1192
 4508TIP3   OH234938   6.220   2.757   3.975 -0.7090  0.2972  0.4528
 4508TIP3    H134939   6.294   2.789   3.924 -0.5136 -1.1461 -0.1970
 4508TIP3    H234940   6.257   2.688   4.031 -1.5372 -0.4170  0.1415
 4509TIP3   OH234941   5.763   4.259   3.801 -0.9002  0.0584  0.1986
 4509TIP3    H134942   5.826   4.222   3.863  1.3796  0.0538 -2.0805
 4509TIP3    H234943   5.750   4.349   3.831 -1.7267 -0.6593  2.0996
 4510TIP3   OH234944   0.613   5.966   5.917  0.3844  0.2060 -0.3761
 4510TIP3    H134945   0.663   5.898   5.871  0.8191  0.9595 -1.0319
 4510TIP3    H234946   0.607   5.934   6.007  2.2788  0.2234 -0.2249
 4511TIP3   OH234947   2.018   2.577  16.218  0.0189  0.2130  0.1234
 4511TIP3    H134948   1.936   2.619  16.245 -0.5697 -0.9252  0.1153
 4511TIP3    H234949   2.037   2.616  16.132  0.6115  2.0236  1.0583
 4512TIP3   OH234950   6.783   2.693  16.951  0.2645  0.3029 -0.0045
 4512TIP3    H134951   6.866   2.678  16.907 -0.5517  3.0906 -2.6725
 4512TIP3    H234952   6.800   2.765  17.011 -0.0817  0.5413 -0.1905
 4513TIP3   OH234953   3.876   2.222  17.083 -0.3534 -0.0478  0.6671
 4513TIP3    H134954   3.837   2.305  17.109 -0.4107 -0.4441  1.8442
 4513TIP3    H234955   3.895   2.233  16.990 -1.0730  1.0072  0.6358
 4514TIP3   OH234956   0.099   1.839  13.501  0.2916 -0.5022 -0.1139
 4514TIP3    H134957   0.170   1.901  13.482  3.3775 -2.7364  3.5315
 4514TIP3    H234958   0.123   1.760  13.452 -1.8579  0.0357 -2.0745
 4515TIP3   OH234959   4.344   5.048   2.676 -0.4057  0.2845  0.1420
 4515TIP3    H134960   4.293   5.108   2.731 -0.7083 -0.4144  0.6380
 4515TIP3    H234961   4.416   5.019   2.733  1.5785  2.5946 -1.0950
 4516TIP3   OH234962   3.840   2.100   6.270 -0.8439 -0.4965 -0.1170
 4516TIP3    H134963   3.769   2.036   6.270  0.0982 -1.5583  0.8240
 4516TIP3    H234964   3.874   2.098   6.360  0.2671  0.1110 -0.5189
 4517TIP3   OH234965   1.427   1.540   6.091 -0.1420 -0.0460 -0.3903
 4517TIP3    H134966   1.463   1.452   6.101  0.2313  0.2168  0.6195
 4517TIP3    H234967   1.486   1.596   6.141 -0.7879  0.6854 -0.4329
 4518TIP3   OH234968   0.876   3.608  13.445 -0.1269  0.3677 -0.3846
 4518TIP3    H134969   0.947   3.632  13.385 -0.2979 -0.1543 -0.8033
 4518TIP3    H234970   0.797   3.622  13.393 -0.3111  0.5697 -0.0493
 4519TIP3   OH234971   6.319   5.084  14.499 -0.1432  0.1231 -0.4629
 4519TIP3    H134972   6.354   5.162  14.541 -0.1429 -0.3059  0.3479
 4519TIP3    H234973   6.271   5.039  14.569  0.3249 -0.8883 -0.7867
 4520TIP3   OH234974   5.644   5.367   4.415  0.3320  0.1390 -0.0347
 4520TIP3    H134975   5.664   5.298   4.477  1.9613  1.4863  0.9964
 4520TIP3    H234976   5.555   5.393   4.435  0.2883 -0.5382  0.6535
 4521TIP3   OH234977   2.437   5.998  16.934  0.3983  0.7750  0.3394
 4521TIP3    H134978   2.511   5.975  16.877  1.0838 -0.3241  1.6290
 4521TIP3    H234979   2.388   5.916  16.942  0.3277  0.9122  1.3360
 4522TIP3   OH234980   5.512   3.288  14.004 -0.3111 -0.3790  0.1484
 4522TIP3    H134981   5.478   3.281  13.915 -0.0957 -1.3211  0.1267
 4522TIP3    H234982   5.497   3.379  14.029  1.6627  0.5052 -1.6993
 4523TIP3   OH234983   3.165   3.930  15.321 -0.0419  0.1327  0.4290
 4523TIP3    H134984   3.245   3.882  15.301 -1.4554 -2.4768  0.7813
 4523TIP3    H234985   3.141   3.973  15.239  0.2444 -1.3320 -0.4416
 4524TIP3   OH234986   1.300   0.747  16.899  0.1590  0.1084  0.1294
 4524TIP3    H134987   1.368   0.751  16.965 -1.9813  0.2118  2.3892
 4524TIP3    H234988   1.347   0.746  16.816  2.8566  1.0942  1.6000
 4525TIP3   OH234989   3.452   4.637   4.092 -0.3873  0.3815 -0.4088
 4525TIP3    H134990   3.533   4.588   4.108  0.2133  1.9881  1.6657
 4525TIP3    H234991   3.387   4.571   4.069  0.7455 -1.2321  1.0014
 4526TIP3   OH234992   5.672   3.308  11.347  0.4877 -0.1899  0.0815
 4526TIP3    H134993   5.637   3.229  11.389  2.9050 -0.0560  2.5431
 4526TIP3    H234994   5.596   3.362  11.331 -0.9166 -1.7933  1.1140
 4527TIP3   OH234995   6.045   2.814  12.806 -0.7557 -0.2692  0.5359
 4527TIP3    H134996   6.069   2.904  12.829  0.4503 -0.6135  0.6536
 4527TIP3    H234997   6.128   2.772  12.782 -1.7309 -0.3299 -3.1232
 4528TIP3   OH234998   5.351   5.647  13.248 -0.1668  0.2564  0.6184
 4528TIP3    H134999   5.286   5.588  13.286 -0.0009 -0.8274 -0.7624
 4528TIP3    H235000   5.372   5.609  13.163 -0.2374  2.4514 -0.4191
 4529TIP3   OH235001   4.060   0.846  13.554 -0.4341  0.0607 -0.1267
 4529TIP3    H135002   4.096   0.826  13.640 -1.7840 -0.2092  0.3864
 4529TIP3    H235003   4.035   0.938  13.559 -1.1810 -0.1466  0.0162
 4530TIP3   OH235004   1.598   2.647   6.107 -0.5641  0.1505 -0.1557
 4530TIP3    H135005   1.608   2.564   6.154 -1.1660  0.0658 -0.1778
 4530TIP3    H235006   1.543   2.625   6.031 -2.4643  0.9784  0.9396
 4531TIP3   OH235007   1.821   6.404   4.211  0.3394 -0.0770 -0.0874
 4531TIP3    H135008   1.782   6.481   4.170 -0.0216  0.5723  1.4437
 4531TIP3    H235009   1.833   6.342   4.139 -2.2564  0.2216 -0.8219
 4532TIP3   OH235010   4.175   1.054   5.849  0.5018  0.0073 -0.6802
 4532TIP3    H135011   4.270   1.046   5.839  0.6250  1.5027 -0.8030
 4532TIP3    H235012   4.164   1.110   5.926 -0.2901  0.0788 -0.8411
 4533TIP3   OH235013   6.732   0.608   6.376  0.2050  0.4315 -0.4416
 4533TIP3    H135014   6.697   0.650   6.454 -0.7707 -0.8169 -0.1884
 4533TIP3    H235015   6.665   0.622   6.309  0.8865  1.2080 -0.9649
 4534TIP3   OH235016   3.968   4.861   4.294  0.4274 -0.1550 -0.5554
 4534TIP3    H135017   3.936   4.771   4.299 -0.6323  0.1789 -1.0509
 4534TIP3    H235018   3.892   4.914   4.316  0.7423  0.6572 -1.4019
 4535TIP3   OH235019   3.939   4.439  13.875  0.2624  0.4353 -0.5513
 4535TIP3    H135020   3.947   4.348  13.848 -0.9252  0.2422 -0.2433
 4535TIP3    H235021   3.860   4.471  13.831 -1.2336  0.3442  1.9852
 4536TIP3   OH235022   0.702   6.575  14.110  0.1788  0.2945 -0.4074
 4536TIP3    H135023   0.726   6.550  14.021 -0.4417  1.6012 -0.9445
 4536TIP3    H235024   0.705   6.670  14.110  0.3626  0.2944  1.0278
 4537TIP3   OH235025   4.880   1.996   4.001 -0.0085  0.2539 -0.2941
 4537TIP3    H135026   4.909   2.086   4.017 -0.3860  0.4548 -0.7451
 4537TIP3    H235027   4.874   1.988   3.906 -0.1623 -0.1916 -0.2516
 4538TIP3   OH235028   1.319   2.623   5.584  0.2591  0.0094 -0.6994
 4538TIP3    H135029   1.409   2.654   5.575  0.8586 -0.9901  1.4348
 4538TIP3    H235030   1.276   2.689   5.639 -0.0988  0.0711 -1.0497
 4539TIP3   OH235031   0.616   1.202  16.380 -0.2104 -0.5850  0.1148
 4539TIP3    H135032   0.705   1.165  16.382  0.3114  0.6430  0.1257
 4539TIP3    H235033   0.624   1.287  16.423 -1.2438 -0.1449 -0.5306
 4540TIP3   OH235034   4.093   4.411   5.650  0.4724 -0.9125 -0.4117
 4540TIP3    H135035   3.998   4.413   5.660  0.4316 -2.2694 -0.4223
 4540TIP3    H235036   4.126   4.461   5.724 -0.3092  1.0369 -1.3604
 4541TIP3   OH235037   4.953   3.998   5.545  0.0843  0.0944 -0.4685
 4541TIP3    H135038   4.867   3.955   5.554 -0.2384  0.1944 -2.7657
 4541TIP3    H235039   5.016   3.931   5.571 -0.7212  0.3400  2.1974
 4542TIP3   OH235040   4.413   1.092   2.494  0.1639  0.5101 -0.2434
 4542TIP3    H135041   4.423   1.164   2.555  1.1498  0.6461 -0.5601
 4542TIP3    H235042   4.371   1.131   2.417  0.1492  0.6211 -0.1784
 4543TIP3   OH235043   1.406   2.911  13.672  0.7189  0.2197  0.0648
 4543TIP3    H135044   1.468   2.852  13.630  0.0006 -0.5104  0.0187
 4543TIP3    H235045   1.325   2.859  13.681  0.6966  0.5158  1.8707
 4544TIP3   OH235046   5.420   1.666   4.428  0.0846 -0.3129 -0.0612
 4544TIP3    H135047   5.361   1.738   4.409 -0.5278 -0.7190  0.2920
 4544TIP3    H235048   5.488   1.672   4.360  0.7404  1.3514  0.7165
 4545TIP3   OH235049   2.869   5.749   2.453 -0.0397 -0.0550 -0.1937
 4545TIP3    H135050   2.950   5.723   2.496 -1.0832  1.1766  2.6407
 4545TIP3    H235051   2.809   5.676   2.468 -0.7727  0.8718  1.5773
 4546TIP3   OH235052   1.015   4.518  13.128  0.5321  0.3136  0.4676
 4546TIP3    H135053   1.053   4.599  13.091 -1.1056  0.9165  0.0740
 4546TIP3    H235054   0.957   4.548  13.197  0.6357 -0.6049  0.9587
 4547TIP3   OH235055   2.287   6.352  16.425  0.4668  0.4597 -0.7590
 4547TIP3    H135056   2.204   6.354  16.472  1.9529  1.8903  1.9131
 4547TIP3    H235057   2.276   6.413  16.353 -1.2085 -0.3144 -1.1736
 4548TIP3   OH235058   3.929   1.472  12.890 -0.7875 -0.3804 -0.1953
 4548TIP3    H135059   3.993   1.511  12.832 -0.4219  0.4807  0.7626
 4548TIP3    H235060   3.924   1.381  12.863  3.1616 -1.2801  1.6725
 4549TIP3   OH235061   5.345   2.261   3.200 -0.0003 -0.0834 -0.1864
 4549TIP3    H135062   5.326   2.355   3.199  1.2132  0.1591 -0.8820
 4549TIP3    H235063   5.320   2.233   3.288 -1.6311  0.6199 -0.4034
 4550TIP3   OH235064   3.404   2.522  15.077 -0.1186 -0.7352  0.2584
 4550TIP3    H135065   3.402   2.492  14.986 -0.0854  0.9401 -0.3133
 4550TIP3    H235066   3.318   2.500  15.112 -0.2901 -0.9760 -0.3216
 4551TIP3   OH235067   6.062   2.250   3.616  0.0887 -0.2013 -0.1320
 4551TIP3    H135068   6.022   2.206   3.692  1.8609  0.3091  1.1218
 4551TIP3    H235069   6.129   2.189   3.585  0.0097  0.0007 -0.7051
 4552TIP3   OH235070   5.874   5.633   6.338  0.4792  0.0391  0.8193
 4552TIP3    H135071   5.942   5.667   6.396  1.9233  2.4018 -2.1146
 4552TIP3    H235072   5.833   5.711   6.302  0.1799 -1.3543 -1.9469
 4553TIP3   OH235073   6.117   1.013   5.867 -0.6543 -0.1531 -0.0203
 4553TIP3    H135074   6.025   1.025   5.891 -1.0847 -1.5907 -0.8662
 4553TIP3    H235075   6.115   0.981   5.777  0.7557  1.2262 -0.5736
 4554TIP3   OH235076   2.789   3.099  15.848 -0.1116  0.1106 -0.3870
 4554TIP3    H135077   2.885   3.106  15.844 -0.0113 -0.4769  0.7496
 4554TIP3    H235078   2.765   3.150  15.925 -0.5946 -0.8991  0.1237
 4555TIP3   OH235079   4.059   1.839  16.548 -0.5228 -0.2854 -0.2553
 4555TIP3    H135080   4.088   1.773  16.611 -0.7683  2.0424  2.3585
 4555TIP3    H235081   3.995   1.892  16.595 -1.3052  1.0464 -2.7156
 4556TIP3   OH235082   5.851   5.558   5.893  0.3509  0.0300  0.3127
 4556TIP3    H135083   5.827   5.482   5.839 -1.8473  0.5306  0.5366
 4556TIP3    H235084   5.812   5.539   5.979  2.0240  0.2157  1.1290
 4557TIP3   OH235085   5.570   4.322  11.337 -0.4417  0.4795  0.9774
 4557TIP3    H135086   5.476   4.330  11.320 -0.1402  0.5433 -0.7741
 4557TIP3    H235087   5.602   4.412  11.339 -0.0945  0.4051 -0.4806
 4558TIP3   OH235088   4.473   0.863  16.825  0.3012 -0.8113 -0.3190
 4558TIP3    H135089   4.493   0.803  16.754  0.3212 -0.9263 -0.2187
 4558TIP3    H235090   4.553   0.915  16.837 -1.2995  2.7057 -3.7731
 4559TIP3   OH235091   5.929   0.868   5.358 -0.4480 -0.2036  0.2479
 4559TIP3    H135092   5.929   0.934   5.427  0.0159  0.6176 -0.5310
 4559TIP3    H235093   5.978   0.795   5.395  4.5335  2.2364 -1.0429
 4560TIP3   OH235094   1.792   1.972  11.623  0.2712 -0.5129  0.4285
 4560TIP3    H135095   1.777   2.011  11.709 -1.2568 -0.5787  0.2101
 4560TIP3    H235096   1.873   1.923  11.632 -0.5236 -1.5429  2.2166
 4561TIP3   OH235097   4.419   5.609   6.022  0.3082 -0.2843  0.0229
 4561TIP3    H135098   4.502   5.655   6.029  0.3573 -0.2305 -0.8083
 4561TIP3    H235099   4.373   5.629   6.103 -0.5876  3.0639 -1.2553
 4562TIP3   OH235100   5.122   6.514   4.686  0.0681  0.2440 -0.1598
 4562TIP3    H135101   5.115   6.472   4.600 -0.4808 -0.5331  0.2532
 4562TIP3    H235102   5.206   6.559   4.684  0.4266 -0.4364 -0.8224
 4563TIP3   OH235103   2.072   3.388  15.054  0.6653 -0.1610 -0.1056
 4563TIP3    H135104   2.022   3.331  15.113 -0.0785 -0.5993 -1.1412
 4563TIP3    H235105   2.143   3.422  15.108  0.1587 -0.7825  0.9661
 4564TIP3   OH235106   4.448   4.447  16.635  0.1220 -0.2652 -0.2212
 4564TIP3    H135107   4.446   4.534  16.673  1.6084 -0.0634 -0.5763
 4564TIP3    H235108   4.454   4.388  16.710  0.3290 -0.0003 -0.0298
 4565TIP3   OH235109   2.012   1.170   5.619 -0.0149 -0.1235 -0.1239
 4565TIP3    H135110   1.993   1.090   5.571 -0.4399 -0.2940  0.3256
 4565TIP3    H235111   2.055   1.141   5.700  0.0881  0.1212 -0.0885
 4566TIP3   OH235112   0.453   6.609   2.394 -0.1375  0.0723  0.4996
 4566TIP3    H135113   0.495   6.690   2.422  0.9877  0.0424 -1.0389
 4566TIP3    H235114   0.519   6.541   2.408  0.4315  0.0507 -2.1381
 4567TIP3   OH235115   0.564   1.180   6.167  0.0238 -0.5699 -0.5593
 4567TIP3    H135116   0.654   1.179   6.199 -0.8634  1.2118  2.1169
 4567TIP3    H235117   0.551   1.270   6.136 -0.3474 -1.2572 -2.4668
 4568TIP3   OH235118   0.088   3.379  10.599  0.2519  0.3100 -0.1252
 4568TIP3    H135119   0.168   3.348  10.556  0.7040  0.7376  0.4007
 4568TIP3    H235120   0.071   3.465  10.560  0.5741  0.6292  0.4280
 4569TIP3   OH235121   2.165   5.282  16.042 -0.0500  0.2003 -0.2694
 4569TIP3    H135122   2.074   5.282  16.013 -0.3769 -0.0721  0.7395
 4569TIP3    H235123   2.191   5.190  16.038  0.1075  0.2459 -0.3077
 4570TIP3   OH235124   0.128   1.667   4.386 -0.6068  0.3908  0.0310
 4570TIP3    H135125   0.074   1.601   4.431 -1.1133  0.6527 -0.1920
 4570TIP3    H235126   0.121   1.745   4.441 -0.5034  0.4451 -0.0346
 4571TIP3   OH235127   3.279   0.218   3.818  0.3095  0.1403 -0.2854
 4571TIP3    H135128   3.225   0.292   3.789  0.1720  0.4309  0.6851
 4571TIP3    H235129   3.273   0.154   3.746 -0.7979  0.4422 -0.4775
 4572TIP3   OH235130   5.691   1.445   1.603 -0.0525 -0.0468  0.1938
 4572TIP3    H135131   5.677   1.537   1.624 -1.0443 -0.2798  0.5710
 4572TIP3    H235132   5.620   1.422   1.543 -0.0420 -0.6660  0.4083
 4573TIP3   OH235133   4.569   2.939  12.853  0.1205 -0.2564 -0.5367
 4573TIP3    H135134   4.551   2.932  12.947  0.7151  0.3228 -0.3782
 4573TIP3    H235135   4.540   2.855  12.817  0.8440 -0.8879  0.3219
 4574TIP3   OH235136   1.314   0.742  16.243 -0.4589 -0.4287  0.2450
 4574TIP3    H135137   1.314   0.781  16.331  1.3704 -1.7163  0.8531
 4574TIP3    H235138   1.406   0.745  16.216 -1.1752  1.1729 -2.2130
 4575TIP3   OH235139   5.202   0.422  17.098  0.3853  0.7143 -0.3660
 4575TIP3    H135140   5.113   0.399  17.124 -0.1426  1.3020 -1.6050
 4575TIP3    H235141   5.191   0.484  17.025  1.8001  1.3195 -0.0897
 4576TIP3   OH235142   6.292   4.976   4.125 -0.8246  0.5450 -0.0471
 4576TIP3    H135143   6.310   4.907   4.189  0.1540 -0.4255 -1.3551
 4576TIP3    H235144   6.232   4.937   4.062 -0.4012  0.9396 -0.7038
 4577TIP3   OH235145   5.882   5.434  13.782 -0.6010  0.1458  0.9884
 4577TIP3    H135146   5.888   5.379  13.860 -0.9046 -0.2637  0.7334
 4577TIP3    H235147   5.950   5.400  13.723 -0.9702 -0.1437  0.7222
 4578TIP3   OH235148   4.351   0.280  13.025  0.0465  0.6793  0.0020
 4578TIP3    H135149   4.431   0.242  13.060  0.6881  0.2904 -1.8743
 4578TIP3    H235150   4.348   0.252  12.934 -0.8397  2.9142 -0.6885
 4579TIP3   OH235151   2.669   3.941   2.039 -0.2244 -0.0357  0.1415
 4579TIP3    H135152   2.724   4.020   2.036 -0.5640  0.2504  1.4073
 4579TIP3    H235153   2.709   3.882   1.974  0.2451  1.0279 -0.5504
 4580TIP3   OH235154   2.858   3.413  15.040  0.2785  0.7134  0.6614
 4580TIP3    H135155   2.829   3.331  15.080  1.5842 -0.5406 -0.8800
 4580TIP3    H235156   2.873   3.390  14.948 -0.8762  3.0707 -0.1696
 4581TIP3   OH235157   3.721   4.244   1.827 -0.4139 -0.4568 -0.1842
 4581TIP3    H135158   3.741   4.251   1.734 -1.9674  1.0638 -0.4265
 4581TIP3    H235159   3.667   4.165   1.834 -3.3836  1.4311 -1.1483
 4582TIP3   OH235160   0.226   4.306   0.680  0.4064  0.5325  0.2582
 4582TIP3    H135161   0.261   4.379   0.628 -1.7808  1.2478 -0.2477
 4582TIP3    H235162   0.199   4.345   0.762  1.3619 -0.1313  0.8980
 4583TIP3   OH235163   1.937   6.002  15.680 -0.3185 -0.0740  0.2367
 4583TIP3    H135164   1.915   6.064  15.611 -1.4097  0.9661  1.5076
 4583TIP3    H235165   2.029   6.020  15.700 -0.3828  0.5365 -0.0091
 4584TIP3   OH235166   5.795   5.717  15.192 -0.1580  0.1755 -0.3884
 4584TIP3    H135167   5.880   5.730  15.236 -0.7654  1.5702  0.4246
 4584TIP3    H235168   5.730   5.728  15.261 -1.0442  0.1159 -1.2009
 4585TIP3   OH235169   2.359   0.587   2.437  0.3779 -0.3609 -0.6085
 4585TIP3    H135170   2.295   0.651   2.405  1.7630  1.3365 -0.0721
 4585TIP3    H235171   2.436   0.601   2.382  0.7918 -1.3993 -0.3006
 4586TIP3   OH235172   4.799   1.953  11.825 -0.5544  0.0220  0.0994
 4586TIP3    H135173   4.855   1.919  11.894 -2.0063  0.1731  1.3769
 4586TIP3    H235174   4.823   2.046  11.817 -1.1566  0.2826  1.1994
 4587TIP3   OH235175   4.314   3.483  14.777  0.3784  0.1654 -0.3003
 4587TIP3    H135176   4.246   3.453  14.717  1.9705 -0.1359 -2.0167
 4587TIP3    H235177   4.296   3.577  14.788 -2.0144 -0.4750  1.6120
 4588TIP3   OH235178   2.862   4.168  16.181  0.4348  0.2015 -0.0127
 4588TIP3    H135179   2.903   4.157  16.095 -0.0363  1.5922 -0.4267
 4588TIP3    H235180   2.934   4.167  16.243  0.9528  1.0458 -0.5940
 4589TIP3   OH235181   0.688   2.361  14.329 -0.3589 -0.2180 -0.0195
 4589TIP3    H135182   0.770   2.399  14.360 -0.1133 -1.4087  0.8424
 4589TIP3    H235183   0.711   2.271  14.305 -1.1094 -0.1129 -1.1485
 4590TIP3   OH235184   5.877   2.271   1.014 -0.1551  0.7209 -0.6908
 4590TIP3    H135185   5.866   2.322   0.934 -0.6998  0.9825 -0.4520
 4590TIP3    H235186   5.965   2.294   1.046 -0.0389  0.8053 -1.0708
 4591TIP3   OH235187   2.429   4.043  13.993 -0.0771  0.3010  0.1963
 4591TIP3    H135188   2.507   4.007  14.035  0.0776  0.7505  0.2959
 4591TIP3    H235189   2.456   4.062  13.904  0.1343  1.1389  0.4374
 4592TIP3   OH235190   4.467   5.793   1.680  0.3174  0.1301  0.1257
 4592TIP3    H135191   4.392   5.816   1.735 -1.0231  0.3867 -1.7890
 4592TIP3    H235192   4.522   5.872   1.680 -0.8125  0.9171 -0.7712
 4593TIP3   OH235193   4.845   5.534  11.725 -0.6595  0.0551  0.2472
 4593TIP3    H135194   4.888   5.473  11.786  0.0731 -0.0450 -0.3584
 4593TIP3    H235195   4.828   5.612  11.777  1.9755  0.8200  0.0362
 4594TIP3   OH235196   0.575   0.788   5.602 -0.3049  0.0120  0.0983
 4594TIP3    H135197   0.552   0.849   5.672  1.1381 -3.3548  3.6712
 4594TIP3    H235198   0.670   0.794   5.595 -0.5453  1.5738 -2.9308
 4595TIP3   OH235199   3.975   6.243   4.580  0.0314 -0.4086 -0.3259
 4595TIP3    H135200   3.994   6.337   4.570 -0.3738 -0.0198  2.1962
 4595TIP3    H235201   3.880   6.239   4.592 -0.0060 -1.1902 -0.8679
 4596TIP3   OH235202   5.651   1.894   5.445  0.3637  0.1840  0.3532
 4596TIP3    H135203   5.707   1.966   5.419 -1.1277  1.5223  0.7610
 4596TIP3    H235204   5.612   1.923   5.528  1.1331 -1.8486  1.4629
 4597TIP3   OH235205   0.862   1.351   0.858 -0.2603 -0.8008 -0.3261
 4597TIP3    H135206   0.940   1.296   0.852  0.4105  0.2135 -1.1315
 4597TIP3    H235207   0.843   1.375   0.767 -0.1619  0.8163  0.0625
 4598TIP3   OH235208   3.626   2.000   4.469 -0.0201 -0.3166  0.1283
 4598TIP3    H135209   3.707   1.953   4.450 -0.7701 -1.3716 -0.5133
 4598TIP3    H235210   3.647   2.053   4.546  1.0749 -1.1072  0.3935
 4599TIP3   OH235211   6.070   1.664  15.370  0.3815  0.1901  0.2085
 4599TIP3    H135212   5.999   1.684  15.308 -0.0125  1.3829  1.0120
 4599TIP3    H235213   6.036   1.694  15.455  1.5366  0.0138  0.7393
 4600TIP3   OH235214   2.720   6.142  12.654  0.4787 -0.2664 -0.0936
 4600TIP3    H135215   2.701   6.116  12.744  1.4245  2.8876  1.0386
 4600TIP3    H235216   2.815   6.150  12.650  0.2932  1.7442 -0.7551
 4601TIP3   OH235217   0.642   5.709   2.414  0.4523 -0.4519 -0.0210
 4601TIP3    H135218   0.590   5.677   2.340 -0.1327  0.7731 -0.1474
 4601TIP3    H235219   0.627   5.803   2.415  1.8176 -0.2340  0.6195
 4602TIP3   OH235220   1.602   4.455  12.845  0.0493 -0.1404 -0.1233
 4602TIP3    H135221   1.590   4.544  12.811 -1.6013  0.1840  1.2048
 4602TIP3    H235222   1.527   4.442  12.903 -0.0248 -2.6120 -0.7246
 4603TIP3   OH235223   0.256   6.779  16.917 -0.9242 -0.4740  0.2556
 4603TIP3    H135224   0.190   6.738  16.861 -1.4346 -0.3150  0.7363
 4603TIP3    H235225   0.222   6.867  16.934 -0.2629 -0.1530 -0.0451
 4604TIP3   OH235226   3.984   2.780  15.582  0.8567  0.5956  0.0251
 4604TIP3    H135227   3.985   2.728  15.501  0.4516 -0.1544  0.4976
 4604TIP3    H235228   4.024   2.722  15.647  0.2192  0.8033  0.5985
 4605TIP3   OH235229   1.204   4.617  12.515 -0.0041 -0.5298 -0.2861
 4605TIP3    H135230   1.118   4.652  12.537 -0.2178 -0.7554 -0.7638
 4605TIP3    H235231   1.189   4.563  12.438  0.2053 -2.1698  0.7893
 4606TIP3   OH235232   1.188   4.820  13.315 -0.1802  0.0716 -0.1028
 4606TIP3    H135233   1.274   4.792  13.282 -0.4386  0.9262 -1.5408
 4606TIP3    H235234   1.209   4.890  13.377  0.1656  0.5282 -0.7173
 4607TIP3   OH235235   6.258   0.800   3.696 -0.1020  0.0725  0.0297
 4607TIP3    H135236   6.296   0.887   3.710  2.2939 -0.7941 -0.7935
 4607TIP3    H235237   6.295   0.747   3.765  1.3102 -1.1195 -1.6068
 4608TIP3   OH235238   6.340   3.581  13.533 -0.1520  0.2089 -0.4222
 4608TIP3    H135239   6.380   3.516  13.591  0.5267  0.0505 -1.0572
 4608TIP3    H235240   6.288   3.529  13.473  1.6078  0.1008 -1.9020
 4609TIP3   OH235241   5.143   2.881   1.028 -0.3931 -0.4392 -0.8777
 4609TIP3    H135242   5.096   2.803   0.998 -2.1798  1.3883 -3.0432
 4609TIP3    H235243   5.223   2.883   0.976 -0.0322 -1.1719 -0.3526
 4610TIP3   OH235244   1.016   4.809  11.508  0.1168  0.1553  0.0890
 4610TIP3    H135245   0.993   4.820  11.600 -1.8356 -0.2020 -0.3389
 4610TIP3    H235246   0.952   4.861  11.461 -0.6042 -1.8470 -1.2049
 4611TIP3   OH235247   6.649   2.054   3.217 -0.1637 -0.1632 -1.0249
 4611TIP3    H135248   6.745   2.053   3.227 -0.0979 -0.0872 -1.6197
 4611TIP3    H235249   6.628   1.967   3.183 -0.2586 -0.0328 -1.3024
 4612TIP3   OH235250   1.446   5.733  11.829 -0.1687  0.1069  0.5479
 4612TIP3    H135251   1.371   5.682  11.799 -0.4458 -0.0165  1.4458
 4612TIP3    H235252   1.429   5.822  11.797 -0.3709 -0.0618  0.1853
 4613TIP3   OH235253   5.623   4.938   2.584  0.0456 -0.2215  0.2859
 4613TIP3    H135254   5.604   4.885   2.507 -0.4681 -2.0568  1.6375
 4613TIP3    H235255   5.717   4.957   2.577  0.2641 -1.4179 -0.1724
 4614TIP3   OH235256   2.515   0.118  15.386  0.1462  0.2858  0.3688
 4614TIP3    H135257   2.488   0.207  15.410 -0.0640  0.4801 -0.5701
 4614TIP3    H235258   2.529   0.122  15.291 -0.0467 -0.7376  0.2953
 4615TIP3   OH235259   0.067   2.906  15.966  0.2792 -0.3058  0.0292
 4615TIP3    H135260  -0.019   2.916  15.927  1.0059 -0.5197 -1.6687
 4615TIP3    H235261   0.051   2.903  16.060 -1.3553  1.7505 -0.1485
 4616TIP3   OH235262   0.173   2.576  14.544  0.7510  0.4544 -0.0407
 4616TIP3    H135263   0.263   2.595  14.569  0.9265 -0.5891  0.1736
 4616TIP3    H235264   0.150   2.643  14.479  2.3677 -0.4640 -1.5933
 4617TIP3   OH235265   6.271   5.981   4.077  0.2079  0.0923 -0.2627
 4617TIP3    H135266   6.209   6.032   4.127  0.6626 -1.3518  1.8503
 4617TIP3    H235267   6.244   5.890   4.090  0.8753 -0.3688 -1.9126
 4618TIP3   OH235268   2.029   4.992   3.171  0.2012 -0.2167  0.5534
 4618TIP3    H135269   2.000   5.066   3.225  3.1712  1.7391 -0.4052
 4618TIP3    H235270   2.096   4.948   3.223  1.5856  0.4432 -0.6155
 4619TIP3   OH235271   3.356   6.408   0.651 -0.1168  0.1637  0.4957
 4619TIP3    H135272   3.380   6.317   0.635  1.0616  0.2486  1.6029
 4619TIP3    H235273   3.260   6.409   0.651 -0.1841 -0.2958 -3.5747
 4620TIP3   OH235274   0.333   0.504  15.132  0.1281  0.7643  0.8024
 4620TIP3    H135275   0.366   0.461  15.053  0.9170  0.8976  1.0636
 4620TIP3    H235276   0.238   0.494  15.125  0.3071 -1.6680  1.2195
 4621TIP3   OH235277   1.843   0.146   4.536  0.0758  0.3228 -0.1021
 4621TIP3    H135278   1.753   0.115   4.537  0.0427  0.4470  0.8998
 4621TIP3    H235279   1.896   0.067   4.522 -0.1745  0.2246 -0.4939
 4622TIP3   OH235280   5.950   3.054  11.219  0.6471 -0.0725  0.0652
 4622TIP3    H135281   6.042   3.057  11.245  0.5286 -1.3710  0.6983
 4622TIP3    H235282   5.909   3.125  11.269  1.3981  0.8751 -0.6524
 4623TIP3   OH235283   2.611   2.049  11.735 -0.1297  0.1092  0.2737
 4623TIP3    H135284   2.572   2.012  11.656  0.2439 -0.0602  0.1682
 4623TIP3    H235285   2.550   2.116  11.763  0.0489  0.6016 -0.5121
 4624TIP3   OH235286   3.910   4.986   3.711  0.3318 -0.0780 -0.6224
 4624TIP3    H135287   3.897   4.940   3.795 -2.3160 -0.2893 -1.1012
 4624TIP3    H235288   3.931   5.076   3.736 -1.6890  0.1705  0.3148
 4625TIP3   OH235289   6.751   0.245   2.936 -0.3700 -0.4703  0.2469
 4625TIP3    H135290   6.679   0.307   2.927 -0.0692 -0.2885 -1.0733
 4625TIP3    H235291   6.786   0.261   3.024  1.4521  3.1781 -1.0543
 4626TIP3   OH235292   5.015   0.487  16.608  0.2071 -0.4630  0.0093
 4626TIP3    H135293   4.937   0.451  16.566  0.3484 -0.2919 -0.3995
 4626TIP3    H235294   4.980   0.544  16.677 -0.0292 -0.2793 -0.2614
 4627TIP3   OH235295   2.479   2.663  14.587 -0.2828  0.7922 -0.1719
 4627TIP3    H135296   2.531   2.737  14.555 -0.9708  1.9450  1.3050
 4627TIP3    H235297   2.503   2.655  14.679 -1.3073  0.1290  0.0422
 4628TIP3   OH235298   6.408   3.382   2.384 -0.3241 -0.6414  0.5974
 4628TIP3    H135299   6.450   3.457   2.426  1.5715 -1.7776  0.7661
 4628TIP3    H235300   6.460   3.307   2.410 -1.6748 -1.9274 -0.3015
 4629TIP3   OH235301   4.249   5.448  15.817 -0.1546  0.3898 -0.1144
 4629TIP3    H135302   4.211   5.516  15.761 -0.1807 -0.6894 -1.4561
 4629TIP3    H235303   4.339   5.477  15.833 -0.5529  1.3558  0.3618
 4630TIP3   OH235304   1.446   1.395   4.063 -0.1121  0.4966 -0.1188
 4630TIP3    H135305   1.495   1.315   4.079 -0.1585  0.2133 -1.3720
 4630TIP3    H235306   1.471   1.421   3.974 -1.6568  0.7543 -0.4872
 4631TIP3   OH235307   4.240   5.274  11.850  0.4057 -0.0217 -0.2798
 4631TIP3    H135308   4.326   5.316  11.858  1.1794 -1.2646 -1.7738
 4631TIP3    H235309   4.220   5.243  11.939  0.5717  2.0277  0.4899
 4632TIP3   OH235310   0.647   6.467   6.454  0.2408 -0.4606  0.1481
 4632TIP3    H135311   0.561   6.486   6.415  0.3810  0.3073  0.2100
 4632TIP3    H235312   0.701   6.439   6.380 -0.8401 -3.7291  0.5165
 4633TIP3   OH235313   0.556   0.403   6.363  0.3754  0.2283 -0.4208
 4633TIP3    H135314   0.538   0.314   6.394 -1.2656 -0.2257 -2.6057
 4633TIP3    H235315   0.635   0.395   6.311 -0.6024 -0.2654 -1.8659
 4634TIP3   OH235316   6.304   1.164  13.137 -0.1507  0.1575  0.7808
 4634TIP3    H135317   6.317   1.072  13.161 -0.0542  0.2726  1.1783
 4634TIP3    H235318   6.278   1.207  13.219 -2.5262  0.0344  0.1267
 4635TIP3   OH235319   1.814   5.930   1.950 -0.4534 -0.3088 -0.5731
 4635TIP3    H135320   1.851   5.897   2.032 -1.7057 -1.2822 -0.3711
 4635TIP3    H235321   1.887   5.930   1.889 -0.2475 -2.8334 -0.3742
 4636TIP3   OH235322   3.583   1.999  14.688  0.6206  0.3272 -0.2582
 4636TIP3    H135323   3.671   1.961  14.679 -0.3135 -2.4489  1.4988
 4636TIP3    H235324   3.526   1.934  14.646 -0.8457  0.7929  1.0204
 4637TIP3   OH235325   4.123   3.056   2.125 -0.3660  0.0938 -0.0603
 4637TIP3    H135326   4.200   3.012   2.089  1.2007  1.2530  1.8448
 4637TIP3    H235327   4.054   3.037   2.061  2.0623  1.1925 -3.1590
 4638TIP3   OH235328   0.093   0.228  15.035  0.3970 -0.1261  0.6316
 4638TIP3    H135329   0.024   0.232  15.100  1.2790  0.4178  1.5520
 4638TIP3    H235330   0.110   0.320  15.012  0.4985 -0.2794  0.0650
 4639TIP3   OH235331   2.451   5.860  10.856  0.0871  0.1213 -0.2985
 4639TIP3    H135332   2.531   5.886  10.810 -0.5110 -0.6314 -1.7898
 4639TIP3    H235333   2.474   5.779  10.901  0.6483  0.8103  0.6744
 4640TIP3   OH235334   5.817   0.525   1.849 -0.0786  0.7327  0.1740
 4640TIP3    H135335   5.786   0.514   1.759  0.2465  1.0368  0.0275
 4640TIP3    H235336   5.795   0.616   1.871 -0.0051  0.7088  0.3449
 4641TIP3   OH235337   4.508   5.647  16.076  0.0995  0.0052 -0.3933
 4641TIP3    H135338   4.463   5.731  16.068  0.4880  0.2549  0.0027
 4641TIP3    H235339   4.497   5.605  15.991 -0.9249  0.0404 -0.2798
 4642TIP3   OH235340   2.268   4.742  11.118 -0.1571 -0.0904 -0.2285
 4642TIP3    H135341   2.359   4.769  11.108  0.4137 -0.0517  4.1062
 4642TIP3    H235342   2.272   4.647  11.129 -0.6721 -0.0951 -0.0610
 4643TIP3   OH235343   2.487   0.007   2.859 -0.0959 -0.2692  0.5419
 4643TIP3    H135344   2.507   0.090   2.901 -0.6535  0.9790 -1.6085
 4643TIP3    H235345   2.402  -0.019   2.895  1.4016 -1.4243  3.4169
 4644TIP3   OH235346   3.401   5.083   4.777  0.1867 -0.4048  0.2619
 4644TIP3    H135347   3.411   5.062   4.870 -2.1553  2.2172  1.1536
 4644TIP3    H235348   3.402   4.998   4.733 -0.5487 -1.8023  2.8791
 4645TIP3   OH235349   0.637   5.004  16.315  0.3373  0.2057  0.3582
 4645TIP3    H135350   0.650   4.932  16.253 -0.3670  0.9568 -0.6736
 4645TIP3    H235351   0.553   4.984  16.357  0.0879  0.4736 -0.0073
 4646TIP3   OH235352   6.026   1.137  15.322 -0.3404 -0.2879 -0.0562
 4646TIP3    H135353   6.060   1.225  15.304 -0.6206 -0.3827 -1.0740
 4646TIP3    H235354   6.098   1.079  15.299 -0.6779 -0.4067 -0.8199
 4647TIP3   OH235355   4.751   0.597  16.165 -0.2116  0.5584 -0.3499
 4647TIP3    H135356   4.668   0.639  16.143 -1.7345 -0.9758  2.0637
 4647TIP3    H235357   4.747   0.512  16.121  0.2024  0.6093 -0.4846
 4648TIP3   OH235358   0.186   0.658   1.766 -0.3762 -0.1008 -0.3858
 4648TIP3    H135359   0.216   0.748   1.752  0.6857 -0.6743 -1.8702
 4648TIP3    H235360   0.167   0.626   1.678 -2.7726 -0.6528  0.3018
 4649TIP3   OH235361   5.325   6.194   1.121  0.0266  0.5937  0.0235
 4649TIP3    H135362   5.329   6.290   1.124 -0.1351  0.6227 -0.5436
 4649TIP3    H235363   5.339   6.167   1.212  1.6919  1.0843 -0.0688
 4650TIP3   OH235364   2.835   3.749   6.521 -0.2588  0.3480  0.0246
 4650TIP3    H135365   2.829   3.783   6.432  1.7931 -0.2240 -0.3570
 4650TIP3    H235366   2.751   3.704   6.536 -0.7450  0.7481 -1.4755
 4651TIP3   OH235367   1.875   2.111   3.198 -0.4809 -1.1213 -0.2786
 4651TIP3    H135368   1.936   2.074   3.133  1.2749  0.3838  0.4869
 4651TIP3    H235369   1.895   2.064   3.279  0.9152  0.5566  0.3968
 4652TIP3   OH235370   5.185   6.713   1.918 -0.2729  0.0176 -0.1302
 4652TIP3    H135371   5.186   6.793   1.865 -1.3817 -0.3575 -0.7347
 4652TIP3    H235372   5.225   6.739   2.001  1.3631  0.6424 -1.0820
 4653TIP3   OH235373   5.510   4.181  13.715  0.1460  0.0488  0.4440
 4653TIP3    H135374   5.449   4.183  13.789  0.0129 -1.2092  0.3771
 4653TIP3    H235375   5.455   4.195  13.638 -0.0563 -1.0253  0.3883
 4654TIP3   OH235376   2.863   5.893   1.883 -0.8239  0.7568  0.1010
 4654TIP3    H135377   2.953   5.910   1.912 -0.6046 -0.2712  0.0348
 4654TIP3    H235378   2.871   5.821   1.821 -1.9791 -1.1555  2.0952
 4655TIP3   OH235379   4.289   5.944  16.607  0.0366  0.2050  0.0776
 4655TIP3    H135380   4.329   5.880  16.665 -0.6473  0.1616  0.5065
 4655TIP3    H235381   4.263   6.016  16.665  0.5454  0.7469 -0.3604
 4656TIP3   OH235382   0.027   4.448  16.777 -0.1908  0.0237  0.1883
 4656TIP3    H135383  -0.023   4.429  16.857  0.9158  0.6114  1.0441
 4656TIP3    H235384   0.044   4.542  16.781 -0.7229  0.1782 -1.1104
 4657TIP3   OH235385   4.987   1.658  10.569 -0.1240 -0.1558 -0.2236
 4657TIP3    H135386   5.030   1.576  10.545 -0.0631 -0.3660  0.5984
 4657TIP3    H235387   4.908   1.660  10.516  0.3929 -0.2473 -1.0148
 4658TIP3   OH235388   1.730   0.315  12.814  0.3619  0.6765 -0.1707
 4658TIP3    H135389   1.720   0.355  12.728 -0.9538  1.9727  0.5598
 4658TIP3    H235390   1.797   0.367  12.858  0.4252  0.5455 -0.1115
 4659TIP3   OH235391   3.698   6.183   2.270  0.1404 -0.3985 -0.7197
 4659TIP3    H135392   3.767   6.117   2.265 -0.3553 -0.9762  0.0349
 4659TIP3    H235393   3.618   6.135   2.250 -0.1057  0.1637 -1.0793
 4660TIP3   OH235394   6.431   0.871  11.032  0.0654 -0.5484  0.1810
 4660TIP3    H135395   6.357   0.887  11.090 -0.0621  0.4871 -0.2648
 4660TIP3    H235396   6.400   0.804  10.971 -0.9921  0.9172 -0.9052
 4661TIP3   OH235397   5.648   2.132   1.823  0.0964 -0.2610  0.1830
 4661TIP3    H135398   5.698   2.169   1.750 -0.2798 -1.2950 -0.6104
 4661TIP3    H235399   5.556   2.142   1.797 -0.0528 -0.3053  0.6816
 4662TIP3   OH235400   0.200   2.735  15.822  0.3251 -0.2317  0.3597
 4662TIP3    H135401   0.153   2.810  15.859  1.6303  0.0595  1.4912
 4662TIP3    H235402   0.213   2.676  15.896  2.3994  0.0549  0.2444
 4663TIP3   OH235403   6.421   6.431   1.164  0.0290 -0.5157 -0.2575
 4663TIP3    H135404   6.429   6.343   1.200  0.7138  0.2164  1.4268
 4663TIP3    H235405   6.333   6.459   1.189  0.1028 -0.4227 -0.1004
 4664TIP3   OH235406   3.395   3.093   4.610 -0.2835 -0.0518 -0.2642
 4664TIP3    H135407   3.378   3.123   4.699 -0.9835  1.8937 -1.0291
 4664TIP3    H235408   3.310   3.062   4.579  0.2672 -2.1050  0.2378
 4665TIP3   OH235409   0.144   1.825   4.899 -0.0973 -0.7010 -0.0005
 4665TIP3    H135410   0.180   1.902   4.942  0.9917 -0.4848 -1.2756
 4665TIP3    H235411   0.080   1.859   4.837 -1.1024 -0.9615  0.8880
 4666TIP3   OH235412   6.550   1.159   0.571  0.0220  0.0234 -0.4957
 4666TIP3    H135413   6.593   1.227   0.520 -1.0099  0.0707 -1.3138
 4666TIP3    H235414   6.458   1.186   0.575 -0.2519 -0.9265 -0.1751
 4667TIP3   OH235415   4.140   1.763   3.743  0.1574 -0.0878  0.1510
 4667TIP3    H135416   4.117   1.855   3.756  1.3881 -0.0085  2.0061
 4667TIP3    H235417   4.213   1.765   3.680 -0.3999  0.1351 -0.4934
 4668TIP3   OH235418   3.275   2.305   6.339 -0.2091  0.1497  0.0035
 4668TIP3    H135419   3.216   2.362   6.388  1.3255  1.8565 -0.0937
 4668TIP3    H235420   3.237   2.302   6.251 -0.1278  1.3110 -0.0790
 4669TIP3   OH235421   5.245   1.018   5.718  0.2586 -0.2154  0.0100
 4669TIP3    H135422   5.252   1.113   5.713 -0.4474 -0.1014  0.9433
 4669TIP3    H235423   5.256   0.988   5.628  0.8667  0.7173 -0.2343
 4670TIP3   OH235424   3.783   1.971  17.008 -0.4386 -0.2135 -0.2244
 4670TIP3    H135425   3.689   1.982  17.024 -0.4586 -1.3161  0.4849
 4670TIP3    H235426   3.823   2.051  17.043 -1.2026  0.6803 -1.3850
 4671TIP3   OH235427   2.303   3.086   1.939  0.8646  0.3559  0.9226
 4671TIP3    H135428   2.261   3.079   1.853 -2.2871 -0.7480  2.4897
 4671TIP3    H235429   2.313   3.180   1.953  2.4253  0.5412 -1.0730
 4672TIP3   OH235430   6.187   0.109   5.221 -0.0176 -0.6475 -0.7829
 4672TIP3    H135431   6.168   0.192   5.176  0.2901  0.1240  0.4685
 4672TIP3    H235432   6.102   0.065   5.226 -0.6830  0.7345  0.7576
 4673TIP3   OH235433   1.645   4.368  13.393 -0.3256  0.3613  0.5278
 4673TIP3    H135434   1.649   4.272  13.384 -2.4174  0.2510  0.5577
 4673TIP3    H235435   1.696   4.401  13.319  0.5500 -0.7851  0.6115
 4674TIP3   OH235436   5.055   2.403   4.596  0.5271  0.0237 -0.2556
 4674TIP3    H135437   4.975   2.448   4.624  1.9568  0.4758  3.2008
 4674TIP3    H235438   5.116   2.473   4.573 -0.0310 -0.3226 -3.0541
 4675TIP3   OH235439   0.238   2.055   1.999  0.2385  0.1199 -0.6288
 4675TIP3    H135440   0.303   2.044   1.929  0.3405  0.0797 -0.5277
 4675TIP3    H235441   0.177   2.121   1.965  0.7601  0.7165 -0.4151
 4676TIP3   OH235442   4.411   1.300   4.135 -0.3380 -0.3690  0.2203
 4676TIP3    H135443   4.481   1.283   4.073 -0.1403 -0.4773  0.4701
 4676TIP3    H235444   4.401   1.218   4.183 -2.6994 -1.3555 -1.8481
 4677TIP3   OH235445   6.408   4.285   4.702  0.7406  0.1355  0.2657
 4677TIP3    H135446   6.346   4.315   4.768 -1.4416 -0.1949 -1.5408
 4677TIP3    H235447   6.444   4.204   4.738  0.6519  0.7176  1.6745
 4678TIP3   OH235448   6.550   5.313  11.048 -0.2118  0.3102  0.6297
 4678TIP3    H135449   6.634   5.323  11.092  0.1500  0.1490 -0.0197
 4678TIP3    H235450   6.555   5.373  10.973 -1.2319  1.3932  1.3956
 4679TIP3   OH235451   2.896   6.689  11.680  0.2661  0.5106  0.2313
 4679TIP3    H135452   2.885   6.658  11.590  0.7236  0.9007  0.0364
 4679TIP3    H235453   2.904   6.784  11.672  1.4473  0.4572  0.5573
 4680TIP3   OH235454   5.447   5.776   5.503 -0.1569  0.4635 -0.1400
 4680TIP3    H135455   5.522   5.768   5.445  0.2089  0.1833  0.3625
 4680TIP3    H235456   5.454   5.863   5.541  0.3561  0.1416  0.5066
 4681TIP3   OH235457   4.864   2.000   1.489  0.1507 -0.0934  0.4113
 4681TIP3    H135458   4.918   2.067   1.530  0.0265  0.7313 -0.7551
 4681TIP3    H235459   4.784   1.996   1.543  0.1568  0.6983  0.4739
 4682TIP3   OH235460   4.386   0.469  15.448 -0.2202  0.4657  0.1665
 4682TIP3    H135461   4.401   0.377  15.427  0.3029  1.0279 -2.0706
 4682TIP3    H235462   4.299   0.488  15.412  0.5529  1.3736 -1.2584
 4683TIP3   OH235463   6.623   0.719   5.667  0.0495  0.0208  0.5796
 4683TIP3    H135464   6.541   0.742   5.710 -0.0781  0.1577  0.2649
 4683TIP3    H235465   6.673   0.800   5.666 -0.7200  0.4959 -1.2404
 4684TIP3   OH235466   4.448   3.728  14.189  0.7652  0.0116 -0.1283
 4684TIP3    H135467   4.491   3.732  14.103  1.8348  3.4428  0.4761
 4684TIP3    H235468   4.517   3.699  14.249  0.0788 -2.1573 -0.3455
 4685TIP3   OH235469   2.370   1.717  11.170 -0.3583  0.2946  0.5954
 4685TIP3    H135470   2.332   1.673  11.094 -0.7935  0.2787  0.8191
 4685TIP3    H235471   2.405   1.799  11.136  1.3851 -0.6756 -0.0254
 4686TIP3   OH235472   5.246   2.549  16.423 -0.4949  0.1132  0.5551
 4686TIP3    H135473   5.164   2.599  16.423 -1.6689 -1.7716 -0.1505
 4686TIP3    H235474   5.260   2.526  16.514 -1.2980 -0.4369  0.5391
 4687TIP3   OH235475   2.666   0.729  11.068 -0.1770  0.0318  0.4955
 4687TIP3    H135476   2.719   0.649  11.068 -0.0412  0.1249  0.0859
 4687TIP3    H235477   2.715   0.791  11.014 -0.4581  0.2796  0.5229
 4688TIP3   OH235478   1.626   2.205  13.576  0.1696  0.4985  0.4304
 4688TIP3    H135479   1.693   2.159  13.527 -0.5045 -0.4936  0.4166
 4688TIP3    H235480   1.549   2.204  13.519 -0.6782 -0.8325  1.5441
 4689TIP3   OH235481   2.044   6.327  13.374  0.1081 -0.0485 -0.6523
 4689TIP3    H135482   1.999   6.409  13.354 -0.4499  0.4054  2.3352
 4689TIP3    H235483   1.975   6.266  13.398  0.7027 -0.7045 -0.5894
 4690TIP3   OH235484   5.702   2.111   1.151 -0.0227 -0.3688  0.3988
 4690TIP3    H135485   5.727   2.178   1.087 -1.5935  0.9335  1.1093
 4690TIP3    H235486   5.607   2.106   1.144 -0.1533 -0.6085  2.2447
 4691TIP3   OH235487   4.393   6.649   2.863 -0.8871 -0.3970  0.7571
 4691TIP3    H135488   4.447   6.708   2.810 -1.1161  0.1843  1.1624
 4691TIP3    H235489   4.349   6.707   2.926  1.8113 -1.4412  3.7204
 4692TIP3   OH235490   4.444   0.015  11.044 -0.2397  0.9728 -0.2271
 4692TIP3    H135491   4.448  -0.072  11.004  0.0026  0.8070  0.1606
 4692TIP3    H235492   4.372   0.059  10.998 -0.7787  0.3490  0.0206
 4693TIP3   OH235493   4.310   3.249   2.227  0.5404  0.3031  0.1923
 4693TIP3    H135494   4.380   3.231   2.165  0.4547  1.1826 -0.1716
 4693TIP3    H235495   4.234   3.204   2.190  0.6345  0.3208 -0.0273
 4694TIP3   OH235496   3.125   2.818   4.262 -0.3359 -0.2248 -0.1721
 4694TIP3    H135497   3.065   2.760   4.310 -1.1639 -0.6589 -1.7138
 4694TIP3    H235498   3.119   2.902   4.308 -1.8376 -0.3687 -0.0641
 4695TIP3   OH235499   3.070   1.307  12.179  0.7084  0.3173 -0.1806
 4695TIP3    H135500   3.043   1.324  12.088  1.3221  0.3175 -0.3659
 4695TIP3    H235501   3.145   1.249  12.171  0.3291 -0.2514  0.3606
 4696TIP3   OH235502   4.813   1.964   2.420  0.6888 -0.4711 -0.2353
 4696TIP3    H135503   4.813   2.038   2.359  1.6407 -0.9495 -0.8420
 4696TIP3    H235504   4.743   1.907   2.389 -0.2239  0.3004  0.3957
 4697TIP3   OH235505   1.621   0.493  13.405  0.1055  0.6375 -0.0437
 4697TIP3    H135506   1.552   0.549  13.439  2.2641  2.1870  1.9033
 4697TIP3    H235507   1.587   0.460  13.322 -3.6473 -0.0184  1.6926
 4698TIP3   OH235508   6.523   6.370   0.439 -0.1898  0.5304 -0.1041
 4698TIP3    H135509   6.429   6.355   0.449 -0.6857  3.1128 -0.4857
 4698TIP3    H235510   6.562   6.283   0.437 -2.7200 -0.6033 -1.2734
 4699TIP3   OH235511   0.875   3.510   1.546 -1.1203  0.3230  0.1742
 4699TIP3    H135512   0.785   3.493   1.517 -0.9669  0.7675 -0.5826
 4699TIP3    H235513   0.921   3.536   1.466 -0.4410  0.5683  0.6453
 4700TIP3   OH235514   3.712   5.005   0.876  0.1825  0.5718  0.2838
 4700TIP3    H135515   3.796   5.045   0.855 -0.0865  1.2720  0.5317
 4700TIP3    H235516   3.727   4.957   0.957  0.5679 -0.0306 -0.1428
 4701TIP3   OH235517   3.325   5.842   3.054  0.2481  0.0670 -0.1497
 4701TIP3    H135518   3.243   5.889   3.070  0.1780  1.1087 -3.3238
 4701TIP3    H235519   3.324   5.771   3.118 -3.1571  0.0491 -0.1180
 4702TIP3   OH235520   0.711   3.322   2.981  0.7809 -0.2980 -0.3329
 4702TIP3    H135521   0.755   3.403   2.954 -0.2828 -0.1009 -1.5293
 4702TIP3    H235522   0.637   3.314   2.921 -0.2284 -1.1574  0.9914
 4703TIP3   OH235523   0.460   1.763  15.198  0.5137  0.5897 -0.0796
 4703TIP3    H135524   0.416   1.715  15.268  1.1023 -1.3456 -1.0208
 4703TIP3    H235525   0.417   1.735  15.118 -0.6902  3.3780 -0.4898
 4704TIP3   OH235526   0.854   1.025  14.195 -0.1751 -0.1366  0.2470
 4704TIP3    H135527   0.845   0.930  14.186 -0.5519 -0.0753 -0.0391
 4704TIP3    H235528   0.781   1.061  14.144  1.0996  0.3500 -1.2806
 4705TIP3   OH235529   5.396   2.136   1.723  0.1174 -0.0660  0.0175
 4705TIP3    H135530   5.313   2.179   1.746  0.3702  0.9688 -0.9811
 4705TIP3    H235531   5.372   2.075   1.653 -0.2072 -1.4547  1.3059
 4706TIP3   OH235532   6.261   4.465  14.432 -0.0981  0.2433 -0.5686
 4706TIP3    H135533   6.274   4.394  14.495 -1.5369  0.6145  0.1667
 4706TIP3    H235534   6.315   4.442  14.357  1.3528 -0.3946  0.6648
 4707TIP3   OH235535   0.460   2.509  12.720 -0.1438 -0.1633 -0.2800
 4707TIP3    H135536   0.415   2.592  12.705 -0.4017 -0.1151  0.7778
 4707TIP3    H235537   0.553   2.530  12.706 -0.4185 -0.2367 -2.3312
 4708TIP3   OH235538   5.929   3.413   0.331 -0.2642 -0.4148  0.0078
 4708TIP3    H135539   5.963   3.476   0.267  0.8396 -1.3727 -0.3591
 4708TIP3    H235540   5.996   3.410   0.399  0.8696 -3.0371 -1.1857
 4709TIP3   OH235541   0.094   6.155  11.499  0.2604 -0.0926 -0.2256
 4709TIP3    H135542   0.169   6.215  11.501  1.5597 -1.5893 -1.8965
 4709TIP3    H235543   0.049   6.177  11.417  0.8807 -1.5343 -0.9628
 4710TIP3   OH235544   5.482   5.706   4.034 -0.0658 -0.2079  0.1868
 4710TIP3    H135545   5.392   5.727   4.059 -0.5149 -0.6331 -1.0504
 4710TIP3    H235546   5.535   5.774   4.076 -1.0241  0.4883  0.2842
 4711TIP3   OH235547   2.755   1.683  15.550  0.2749  0.2371 -0.1118
 4711TIP3    H135548   2.685   1.668  15.487 -0.1438  0.9685  0.1770
 4711TIP3    H235549   2.776   1.596  15.584  1.7575 -0.4377 -2.5689
 4712TIP3   OH235550   2.039   4.630   0.927  0.5638 -0.1168  0.4809
 4712TIP3    H135551   2.098   4.703   0.942  0.2566  0.2577 -0.0872
 4712TIP3    H235552   2.096   4.554   0.914  0.9040  0.1715  0.2961
 4713TIP3   OH235553   2.250   0.831  14.231  0.4831 -0.3056 -0.0006
 4713TIP3    H135554   2.306   0.829  14.308 -0.8762 -1.1120  0.9971
 4713TIP3    H235555   2.226   0.740  14.216  0.5278 -0.1224 -1.2225
 4714TIP3   OH235556   6.059   6.567   4.059 -0.1714 -0.0026 -0.1517
 4714TIP3    H135557   5.992   6.554   4.127 -1.2451  1.3430 -0.9242
 4714TIP3    H235558   6.106   6.646   4.087  0.3540 -0.2934 -0.2126
 4715TIP3   OH235559   2.848   1.521  12.424 -0.5058  0.2243  0.0460
 4715TIP3    H135560   2.877   1.520  12.515 -0.7980 -2.3145  0.1373
 4715TIP3    H235561   2.839   1.429  12.400 -0.6010  0.8549 -2.5090
 4716TIP3   OH235562   4.649   2.574   1.140  0.1505 -0.7102 -0.0174
 4716TIP3    H135563   4.565   2.528   1.138  0.5434 -1.4720  0.5761
 4716TIP3    H235564   4.672   2.586   1.048 -0.0243 -1.5817 -0.1817
 4717TIP3   OH235565   1.400   0.799   2.980  0.0416  0.3375 -0.1701
 4717TIP3    H135566   1.318   0.844   2.999 -0.7166 -0.6285 -1.1237
 4717TIP3    H235567   1.461   0.868   2.955 -0.6092  1.0098  0.1172
 4718TIP3   OH235568   1.288   1.399  11.598 -0.3429 -0.3224  0.2894
 4718TIP3    H135569   1.381   1.410  11.578 -0.2026  0.0647  1.1199
 4718TIP3    H235570   1.284   1.317  11.648 -0.7559 -1.5553 -1.7026
 4719TIP3   OH235571   4.699   1.878  15.611  0.1436  0.7834 -0.1135
 4719TIP3    H135572   4.689   1.950  15.549 -0.9113  0.1766 -0.6844
 4719TIP3    H235573   4.706   1.800  15.555  1.5956  0.4757  0.4826
 4720TIP3   OH235574   3.861   1.193  11.928  0.1431  0.3626  0.0374
 4720TIP3    H135575   3.825   1.253  11.862 -0.0972  0.1381 -0.0353
 4720TIP3    H235576   3.875   1.111  11.880 -0.0516  0.1924  0.2722
 4721TIP3   OH235577   2.981   4.198  10.996 -0.1205 -0.1216  0.2225
 4721TIP3    H135578   2.927   4.120  10.987  0.7673 -0.6567 -0.5311
 4721TIP3    H235579   2.975   4.221  11.089 -1.4370 -0.3130  0.1860
 4722TIP3   OH235580   1.575   2.885  10.924 -0.1790  0.5688  0.1089
 4722TIP3    H135581   1.494   2.877  10.873 -0.1589  2.6422 -0.2901
 4722TIP3    H235582   1.606   2.974  10.906  0.6933  0.7854  2.4919
 4723TIP3   OH235583   2.893   4.760   1.972 -0.1106  0.2795 -0.1554
 4723TIP3    H135584   2.856   4.674   1.950 -3.4494  1.6412 -0.2839
 4723TIP3    H235585   2.874   4.814   1.896  1.1788  1.3376  0.2679
 4724TIP3   OH235586   5.401   4.083   4.884 -0.1215 -0.2900 -0.7300
 4724TIP3    H135587   5.366   4.035   4.809  1.7367 -0.9163 -1.2093
 4724TIP3    H235588   5.452   4.154   4.845  1.5805 -1.1390 -0.0818
 4725TIP3   OH235589   2.965   1.513   4.637  0.6494 -0.0065 -0.2365
 4725TIP3    H135590   3.041   1.567   4.660  0.4561  0.1900 -0.0681
 4725TIP3    H235591   2.997   1.423   4.644 -0.2881 -0.0919  3.9694
 4726TIP3   OH235592   4.051   2.334   2.169  0.0001 -0.0839 -0.7975
 4726TIP3    H135593   4.077   2.359   2.080 -1.1513  0.7901 -0.9010
 4726TIP3    H235594   4.009   2.249   2.159  0.1788 -0.1421 -1.0490
 4727TIP3   OH235595   4.578   1.039   0.826  0.4984 -0.2399 -0.2176
 4727TIP3    H135596   4.652   1.045   0.765 -0.0229 -3.1731 -1.2318
 4727TIP3    H235597   4.603   0.971   0.888  0.1650  1.3441  1.7190
 4728TIP3   OH235598   0.193   2.432  11.145 -0.1588 -0.2121 -0.0867
 4728TIP3    H135599   0.196   2.430  11.240  0.2424  1.8269 -0.0236
 4728TIP3    H235600   0.279   2.467  11.119 -1.1118  1.5182 -1.0461
 4729TIP3   OH235601   2.942   5.572   1.556  0.4372 -0.4001  0.0756
 4729TIP3    H135602   2.963   5.479   1.560 -0.3249 -0.5414  0.9524
 4729TIP3    H235603   2.860   5.580   1.605  0.3577  0.6888 -0.2269
 4730TIP3   OH235604   1.553   6.023  14.242 -0.1228  0.4088  0.8394
 4730TIP3    H135605   1.559   6.093  14.177  0.2119  0.8130  1.3043
 4730TIP3    H235606   1.639   6.021  14.283 -0.5032  0.5333  1.6560
 4731TIP3   OH235607   3.647   0.111   5.296 -0.4660 -0.8680 -0.3966
 4731TIP3    H135608   3.737   0.080   5.292 -0.4668 -1.1355  1.3867
 4731TIP3    H235609   3.594   0.036   5.271 -0.3423 -1.6991  1.7204
 4732TIP3   OH235610   5.527   5.432  11.679 -0.5832 -0.0426  0.9819
 4732TIP3    H135611   5.531   5.337  11.667  0.8026  0.3445 -2.1153
 4732TIP3    H235612   5.536   5.445  11.774 -1.3975 -2.9996  1.5098
 4733TIP3   OH235613   4.807   4.158   2.513  0.3312  0.1611  0.3310
 4733TIP3    H135614   4.733   4.206   2.551  0.9211  1.0480  0.3684
 4733TIP3    H235615   4.848   4.114   2.587  1.1787  1.4811  0.6578
 4734TIP3   OH235616   4.912   2.692  13.303 -0.2455  0.7171 -0.9337
 4734TIP3    H135617   4.858   2.748  13.358  0.5191  0.1357  0.4379
 4734TIP3    H235618   4.998   2.691  13.346  0.1803 -0.2700 -1.7754
 4735TIP3   OH235619   3.228   1.129   5.023  0.0976 -0.6805 -0.1321
 4735TIP3    H135620   3.321   1.118   5.006  0.4008 -1.5778  1.9811
 4735TIP3    H235621   3.185   1.083   4.950  1.2878 -0.7540 -0.8020
 4736TIP3   OH235622   1.659   4.523   6.136  0.4341 -0.5076  0.3571
 4736TIP3    H135623   1.702   4.607   6.150 -2.8851  0.9447  2.2570
 4736TIP3    H235624   1.658   4.481   6.222 -2.5625 -0.1584  0.5512
 4737TIP3   OH235625   4.879   1.096  10.737  0.6600  0.1350 -0.4658
 4737TIP3    H135626   4.849   1.182  10.711  0.2628 -0.2340 -1.2262
 4737TIP3    H235627   4.929   1.063  10.662  1.5597  0.0596  0.1484
 4738TIP3   OH235628   3.089   0.492  13.497 -0.1493  0.1419  0.2252
 4738TIP3    H135629   3.067   0.465  13.408  1.7280 -0.4529 -0.0776
 4738TIP3    H235630   3.154   0.562  13.486 -1.1403  1.2287  1.1032
 4739TIP3   OH235631   5.847   1.366  11.553  0.3209 -0.5146  0.1241
 4739TIP3    H135632   5.809   1.454  11.556  1.2311 -0.1153  0.2861
 4739TIP3    H235633   5.860   1.348  11.460 -0.5710 -0.7914  0.0514
 4740TIP3   OH235634   0.471   5.086  16.867 -0.0203  0.2427 -0.5778
 4740TIP3    H135635   0.563   5.108  16.854  0.2778  1.2850  2.7965
 4740TIP3    H235636   0.466   5.052  16.956 -2.6124 -1.6142 -1.3541
 4741TIP3   OH235637   4.885   4.250   1.573  0.2344 -0.1848  0.0659
 4741TIP3    H135638   4.845   4.337   1.565  0.7831  0.1165  0.5666
 4741TIP3    H235639   4.850   4.216   1.656  0.3163 -0.2888  0.0569
 4742TIP3   OH235640   4.646   0.672  16.963  0.5185  0.1940 -0.4923
 4742TIP3    H135641   4.610   0.752  17.003  1.1929  1.1196 -1.7236
 4742TIP3    H235642   4.568   0.622  16.938  0.0121 -1.5697  4.1434
 4743TIP3   OH235643   5.703   2.007  14.639 -0.3362 -0.1626 -1.2063
 4743TIP3    H135644   5.789   1.996  14.599 -0.6058 -1.1852 -1.5129
 4743TIP3    H235645   5.647   2.040  14.568 -0.1550  0.7281 -0.9485
 4744TIP3   OH235646   1.435   0.564   0.390  0.0899  0.3158 -0.0397
 4744TIP3    H135647   1.522   0.601   0.377  0.0005  1.1114  1.4675
 4744TIP3    H235648   1.375   0.639   0.382 -0.4853 -0.2466 -1.2092
 4745TIP3   OH235649   2.873   2.799   0.016  0.3559  0.2073  0.2161
 4745TIP3    H135650   2.947   2.846  -0.024 -0.7123  0.1117 -1.9251
 4745TIP3    H235651   2.913   2.724   0.059  1.6272  0.7717  0.0512
 4746TIP3   OH235652   4.115   5.397   4.520  0.3314  0.4070  0.4644
 4746TIP3    H135653   4.115   5.445   4.437  0.8098  1.1390  0.8826
 4746TIP3    H235654   4.109   5.465   4.587 -2.3569 -0.2617  0.9849
 4747TIP3   OH235655   4.753   1.938  13.421  0.0033 -0.0242  0.0507
 4747TIP3    H135656   4.826   1.880  13.399 -0.2945 -0.0688 -0.8416
 4747TIP3    H235657   4.690   1.925  13.351  0.9344  3.1284 -1.4704
 4748TIP3   OH235658   0.519   2.074   3.825  0.6285 -0.3561 -0.0860
 4748TIP3    H135659   0.500   2.011   3.755  0.3669 -0.5410  0.1487
 4748TIP3    H235660   0.538   2.156   3.779 -0.0125 -0.3566 -0.3597
 4749TIP3   OH235661   3.054   6.487  11.377  0.7135 -0.5991  0.4384
 4749TIP3    H135662   3.103   6.569  11.383 -0.3012  0.0741 -0.3001
 4749TIP3    H235663   2.962   6.513  11.384  0.3511 -1.5911 -0.4647
 4750TIP3   OH235664   3.664   4.988   2.130  0.3481  0.3296 -0.0429
 4750TIP3    H135665   3.757   4.984   2.153  0.6976  0.6948 -1.3519
 4750TIP3    H235666   3.661   5.042   2.052 -0.8713 -0.4216 -0.5349
 4751TIP3   OH235667   1.982   1.919   5.480 -0.3725  0.3159  0.5167
 4751TIP3    H135668   2.041   1.978   5.432 -0.2855  0.1892  0.4670
 4751TIP3    H235669   1.909   1.904   5.419  0.5232 -1.1526 -0.2301
 4752TIP3   OH235670   4.197   6.126  15.716  0.5426 -0.1525  0.3918
 4752TIP3    H135671   4.260   6.193  15.742 -0.6559  1.1888 -0.0382
 4752TIP3    H235672   4.116   6.152  15.761 -0.3439 -0.4156 -1.0416
 4753TIP3   OH235673   5.539   0.144  15.431 -0.1563  0.2324 -0.9826
 4753TIP3    H135674   5.466   0.165  15.491 -0.0002 -0.2759 -0.6132
 4753TIP3    H235675   5.580   0.229  15.414  0.9003  0.1775  1.0664
 4754TIP3   OH235676   1.062   0.700  16.692  0.4796  0.0051  0.0251
 4754TIP3    H135677   1.120   0.738  16.759  1.0371  1.0562 -1.0345
 4754TIP3    H235678   1.067   0.606  16.707  0.6965  0.2197  1.3936
 4755TIP3   OH235679   4.365   0.174  16.779 -0.1873  0.0676 -0.0844
 4755TIP3    H135680   4.370   0.127  16.862  0.6376 -0.7538 -0.5815
 4755TIP3    H235681   4.435   0.135  16.726 -1.1360  0.1178 -1.3947
 4756TIP3   OH235682   4.323   5.562  16.351  0.0161  0.4031  0.7533
 4756TIP3    H135683   4.321   5.643  16.300 -0.6245  0.5521  1.0149
 4756TIP3    H235684   4.234   5.552  16.384 -0.2177 -1.0316 -0.2502
 4757TIP3   OH235685   5.730   1.176  17.121 -0.0605  0.1617  0.1327
 4757TIP3    H135686   5.806   1.211  17.167  0.0558 -1.9009  1.5607
 4757TIP3    H235687   5.758   1.091  17.089 -1.6912 -0.5186  0.4694
 4758TIP3   OH235688   4.233   3.404   0.711  0.3575 -0.6664  0.4659
 4758TIP3    H135689   4.266   3.473   0.653  0.1146  0.0128  1.1215
 4758TIP3    H235690   4.304   3.340   0.715 -0.2196 -1.5398 -1.8516
 4759TIP3   OH235691   2.737   1.962  15.492 -0.2897 -0.0910 -0.1415
 4759TIP3    H135692   2.822   1.992  15.458 -0.8573  1.1454 -0.5099
 4759TIP3    H235693   2.722   1.879  15.448  1.4144 -1.0568  1.0252
 4760TIP3   OH235694   4.282   4.723   3.244  0.4687 -0.6052 -0.2668
 4760TIP3    H135695   4.228   4.766   3.310  1.1068 -1.7875  1.0495
 4760TIP3    H235696   4.321   4.794   3.194 -0.1908  0.2939  0.4911
 4761TIP3   OH235697   0.706   3.924   3.407  0.2772  0.3551 -0.2386
 4761TIP3    H135698   0.783   3.962   3.451 -0.0556  1.7968 -0.8682
 4761TIP3    H235699   0.681   3.990   3.343  0.3049 -1.4203 -2.0985
 4762TIP3   OH235700   0.206   0.387   1.559 -0.0872 -0.6548  0.0843
 4762TIP3    H135701   0.128   0.364   1.508 -0.9843  2.9946 -0.3803
 4762TIP3    H235702   0.279   0.356   1.506 -1.1584 -1.2085 -1.1055
 4763TIP3   OH235703   0.620   6.413  16.041  0.0110  0.1381  0.5633
 4763TIP3    H135704   0.568   6.488  16.012 -0.5283  0.7269  2.9600
 4763TIP3    H235705   0.681   6.396  15.969 -1.1619  1.6521 -0.8010
 4764TIP3   OH235706   3.114   6.677  14.963 -0.5501 -0.0356 -0.2091
 4764TIP3    H135707   3.187   6.700  15.020 -1.9896  0.1012  1.6126
 4764TIP3    H235708   3.110   6.581  14.966  0.1123 -0.0936 -1.0337
 4765TIP3   OH235709   3.703   0.585   2.208  0.5999  0.4036  0.5118
 4765TIP3    H135710   3.732   0.502   2.168 -0.8702  0.8539 -1.5701
 4765TIP3    H235711   3.615   0.598   2.174 -0.4849  1.1672  3.4764
 4766TIP3   OH235712   6.107   2.458  11.279 -0.0201  0.7653  0.1651
 4766TIP3    H135713   6.088   2.501  11.363 -0.9217  0.8512 -0.0852
 4766TIP3    H235714   6.110   2.529  11.216  2.4281  0.9112  0.4021
 4767TIP3   OH235715   2.771   5.179  16.683 -0.3981  0.7785 -0.6809
 4767TIP3    H135716   2.852   5.185  16.735 -1.4908  1.7550  0.9742
 4767TIP3    H235717   2.727   5.262  16.699 -1.4342  0.5151 -2.0944
 4768TIP3   OH235718   6.144   5.130  11.661  0.0494  0.1280 -0.2291
 4768TIP3    H135719   6.096   5.101  11.584 -1.7438 -0.1781  0.9568
 4768TIP3    H235720   6.126   5.062  11.727  0.7347  0.8742  0.7429
 4769TIP3   OH235721   6.146   4.488   4.829 -0.4980 -0.2967 -0.2707
 4769TIP3    H135722   6.059   4.515   4.859 -0.3423 -2.1012  1.9890
 4769TIP3    H235723   6.134   4.465   4.737 -1.6764  2.5300 -0.8787
 4770TIP3   OH235724   2.444   5.448  11.963 -0.0349 -0.1180 -0.0630
 4770TIP3    H135725   2.373   5.441  11.899 -0.9467  0.2895  0.8863
 4770TIP3    H235726   2.419   5.521  12.019  1.5582  0.5654 -0.2200
 4771TIP3   OH235727   0.193   0.615  16.293  0.1629 -0.7635  0.6341
 4771TIP3    H135728   0.182   0.577  16.206 -0.7302 -1.6547  1.1315
 4771TIP3    H235729   0.192   0.710  16.278  0.6505 -0.9081 -0.3970
 4772TIP3   OH235730   4.946   4.298   5.562 -0.1692 -0.4610 -0.7813
 4772TIP3    H135731   5.038   4.323   5.551 -0.3003 -0.1668 -1.2413
 4772TIP3    H235732   4.943   4.207   5.533 -0.2416 -0.1088 -1.9394
 4773TIP3   OH235733   6.542   1.264  13.205  0.6322 -0.3133  0.2569
 4773TIP3    H135734   6.547   1.209  13.283  1.4238 -1.8949 -0.8767
 4773TIP3    H235735   6.461   1.238  13.162 -0.2043  1.1195  0.9498
 4774TIP3   OH235736   4.390   3.360  16.840  0.3534  0.0047  0.0787
 4774TIP3    H135737   4.477   3.351  16.803 -0.0682  1.5419 -1.2949
 4774TIP3    H235738   4.338   3.293  16.796  0.5554 -0.1393  0.0616
 4775TIP3   OH235739   3.900   0.015   5.212 -0.3270  0.2903  0.1227
 4775TIP3    H135740   3.942   0.046   5.132  0.4678 -0.1765  0.3667
 4775TIP3    H235741   3.885  -0.078   5.197 -1.4329  0.4810 -0.0314
 4776TIP3   OH235742   4.362   1.616  14.228  0.2017  0.4958 -0.3172
 4776TIP3    H135743   4.287   1.606  14.169  0.8465  2.7046 -1.5691
 4776TIP3    H235744   4.392   1.527  14.243  0.5369 -0.1175 -4.0669
 4777TIP3   OH235745   2.899   1.246   1.395 -0.2449 -0.3947 -0.2765
 4777TIP3    H135746   2.972   1.186   1.378  1.3851  0.6906  2.4489
 4777TIP3    H235747   2.922   1.326   1.349 -0.6926 -0.7041 -1.0391
 4778TIP3   OH235748   2.791   6.753   3.940 -0.7601  0.4485  0.7239
 4778TIP3    H135749   2.780   6.712   3.854  1.1530 -0.6976  0.9854
 4778TIP3    H235750   2.780   6.846   3.923  1.1550  0.4010 -1.0862
 4779TIP3   OH235751   3.794   0.761   0.993  0.1633 -0.2206 -0.2076
 4779TIP3    H135752   3.856   0.782   0.923  0.6186 -1.9250 -0.3308
 4779TIP3    H235753   3.820   0.819   1.065  0.5125  0.6264 -1.0041
 4780TIP3   OH235754   3.136   2.386   4.362  0.2920 -0.3474  0.2314
 4780TIP3    H135755   3.156   2.306   4.313 -2.9002 -0.6823 -0.6521
 4780TIP3    H235756   3.158   2.457   4.302 -0.5971 -0.6847 -0.5060
 4781TIP3   OH235757   2.698   1.570  14.520 -0.0549  0.3664  0.4378
 4781TIP3    H135758   2.631   1.530  14.576 -1.5011  1.8119 -0.2380
 4781TIP3    H235759   2.719   1.502  14.455 -0.1737 -0.4108  1.1980
 4782TIP3   OH235760   4.751   6.683  13.960  0.1206 -0.3912 -0.1990
 4782TIP3    H135761   4.805   6.762  13.949 -2.5628  1.2223 -2.4784
 4782TIP3    H235762   4.762   6.635  13.878  0.7409 -1.7687  0.6801
 4783TIP3   OH235763   6.526   1.985   4.967  0.6225 -0.2689 -0.6285
 4783TIP3    H135764   6.552   2.077   4.969 -1.6211  0.3736  0.0768
 4783TIP3    H235765   6.568   1.950   4.888 -0.3352  1.9268 -2.1574
 4784TIP3   OH235766   5.627   1.404  11.889  0.2462  0.6368  0.4441
 4784TIP3    H135767   5.699   1.453  11.849 -0.7328  0.0852 -2.1139
 4784TIP3    H235768   5.548   1.450  11.862 -0.5158 -0.5928  0.5298
 4785TIP3   OH235769   4.899   3.294   1.871 -0.0256  0.1324  0.2546
 4785TIP3    H135770   4.902   3.387   1.895 -2.0175  0.5125 -0.8591
 4785TIP3    H235771   4.909   3.293   1.776  1.5438 -0.9170  0.4194
 4786TIP3   OH235772   1.760   4.401  13.137  0.0233 -0.6142 -0.1767
 4786TIP3    H135773   1.754   4.437  13.049  0.1193 -1.2788 -0.4595
 4786TIP3    H235774   1.845   4.432  13.170  0.7528 -1.7276 -0.9500
 4787TIP3   OH235775   4.384   1.903  16.525 -0.2910 -0.1534  0.2724
 4787TIP3    H135776   4.308   1.955  16.552 -0.6696 -0.0620 -0.9361
 4787TIP3    H235777   4.346   1.830  16.477  0.3698 -0.3698  0.0792
 4788TIP3   OH235778   5.842   6.276   4.157  0.3009  0.3720  0.2566
 4788TIP3    H135779   5.843   6.279   4.061 -0.5862  0.7514  0.2543
 4788TIP3    H235780   5.871   6.363   4.184  1.7264 -0.1162  0.3488
 4789TIP3   OH235781   6.059   0.108  15.250  0.1564 -0.1575  0.4095
 4789TIP3    H135782   5.973   0.098  15.292  0.1954 -1.4398  0.2281
 4789TIP3    H235783   6.109   0.033  15.282  1.6476  1.2869  1.5195
 4790TIP3   OH235784   4.109   2.366  14.485  0.3784 -0.1422 -0.5743
 4790TIP3    H135785   4.039   2.372  14.549  0.6724  1.4824 -0.3864
 4790TIP3    H235786   4.183   2.327  14.532  0.2962  0.1832 -0.1799
 4791TIP3   OH235787   4.534   0.831  15.767  0.0778  0.4443 -0.2457
 4791TIP3    H135788   4.464   0.889  15.737 -0.9364 -0.0882  1.0356
 4791TIP3    H235789   4.516   0.747  15.724 -0.2680  0.2102  0.3597
 4792TIP3   OH235790   4.782   3.503  13.311 -0.4457 -0.1140 -0.6220
 4792TIP3    H135791   4.853   3.443  13.287 -0.3220 -0.2795  0.1332
 4792TIP3    H235792   4.753   3.540  13.228 -0.4886 -1.1800 -1.0972
 4793TIP3   OH235793   4.193   2.779  17.210  0.4876 -0.5131 -0.6349
 4793TIP3    H135794   4.252   2.706  17.191 -0.3826 -1.1920 -0.7286
 4793TIP3    H235795   4.183   2.824  17.127  0.0926 -0.9762 -0.8403
 4794TIP3   OH235796   3.472   1.964  17.047  0.1095 -0.1101 -0.2100
 4794TIP3    H135797   3.439   2.039  16.997  2.0013 -0.7699 -2.5679
 4794TIP3    H235798   3.451   1.888  16.992  2.2916 -0.8500 -0.0567
 4795TIP3   OH235799   6.564   0.459  13.812  0.1812 -0.3345 -0.3692
 4795TIP3    H135800   6.584   0.366  13.826  1.1414  0.0476  0.9596
 4795TIP3    H235801   6.614   0.483  13.734 -0.4148 -1.0307 -0.9726
 4796TIP3   OH235802   3.671   4.025  16.880 -0.0994  0.0211  0.4433
 4796TIP3    H135803   3.728   4.074  16.820  0.1014 -1.8982 -0.9547
 4796TIP3    H235804   3.597   3.998  16.826  0.5244 -2.4902  0.8086
 4797TIP3   OH235805   0.594   0.375   1.374  0.6883 -0.0389 -0.4153
 4797TIP3    H135806   0.656   0.382   1.301  0.0059  1.1570 -0.9090
 4797TIP3    H235807   0.614   0.450   1.430 -0.4301  0.4616 -0.6795
 4798TIP3   OH235808   3.630   1.202  14.578 -0.5234  0.1687  0.8788
 4798TIP3    H135809   3.680   1.121  14.574  1.1982  1.1926  1.3760
 4798TIP3    H235810   3.543   1.178  14.545  0.1524 -1.7191  0.4196
 4799TIP3   OH235811   4.139   5.262  16.322  0.8230  0.3173 -0.5321
 4799TIP3    H135812   4.175   5.282  16.236  1.5004 -0.9365 -0.5469
 4799TIP3    H235813   4.084   5.185  16.308  2.5433 -1.1487  0.5059
 4800TIP3   OH235814   5.457   2.088  11.119  0.4971  0.0732  0.1836
 4800TIP3    H135815   5.543   2.125  11.102  0.4499 -0.1191 -0.5093
 4800TIP3    H235816   5.461   2.059  11.210  1.0544  0.3530  0.2516
 4801TIP3   OH235817   2.352   2.666   6.112 -0.0590  0.5772 -0.5035
 4801TIP3    H135818   2.443   2.692   6.125 -0.7509  1.7907  2.2890
 4801TIP3    H235819   2.306   2.747   6.090 -1.0935  0.6264  1.7614
 4802TIP3   OH235820   5.690   1.919  11.095 -0.0881 -0.1469 -0.4761
 4802TIP3    H135821   5.689   2.015  11.087 -0.6899 -0.0329  0.8327
 4802TIP3    H235822   5.727   1.903  11.182 -3.2070 -0.9942  0.7498
 4803TIP3   OH235823   6.221   1.333  13.377  0.7711 -0.2073  0.0194
 4803TIP3    H135824   6.221   1.287  13.460  0.1749  0.8648  0.6312
 4803TIP3    H235825   6.296   1.393  13.383  0.6071  0.0139 -0.1320
 4804TIP3   OH235826   0.847   2.478  14.740  0.4315  0.0641  0.3877
 4804TIP3    H135827   0.930   2.492  14.695  1.0149  0.2793  1.5323
 4804TIP3    H235828   0.809   2.402  14.697  0.5653  0.8000 -1.0715
 4805TIP3   OH235829   3.923   1.343  16.727  0.0494  0.3248 -0.0464
 4805TIP3    H135830   3.913   1.305  16.639 -0.3979 -1.3252  0.7012
 4805TIP3    H235831   3.869   1.422  16.724 -0.6175 -0.1453 -1.0122
 4806TIP3   OH235832   5.639   2.554   5.187 -0.0922 -0.3639  0.1255
 4806TIP3    H135833   5.691   2.475   5.177  0.2887 -0.1378  0.3065
 4806TIP3    H235834   5.570   2.530   5.250  1.1601  0.0034  1.6562
 4807TIP3   OH235835   0.086   4.586   4.056 -0.4093  0.0407  0.0835
 4807TIP3    H135836   0.155   4.608   3.994 -0.1255 -0.6203  0.1566
 4807TIP3    H235837   0.118   4.617   4.141 -0.6667  0.6775 -0.0511
 4808TIP3   OH235838   2.883   4.492  12.950  0.2311  0.1314  0.5974
 4808TIP3    H135839   2.807   4.460  12.901  0.8024  1.1611 -0.9980
 4808TIP3    H235840   2.947   4.421  12.944  0.6550  0.6335 -0.9938
 4809TIP3   OH235841   4.624   5.136  12.317 -0.3213  0.5266  0.9732
 4809TIP3    H135842   4.573   5.057  12.301 -0.2995  0.5046  1.0148
 4809TIP3    H235843   4.662   5.124  12.404  1.0923 -0.1769  0.2769
 4810TIP3   OH235844   3.299   5.473  14.102 -0.1915 -0.8231 -0.1234
 4810TIP3    H135845   3.330   5.438  14.186  0.5538 -2.7315 -1.1617
 4810TIP3    H235846   3.375   5.519  14.066 -0.6391  0.3693  0.4190
 4811TIP3   OH235847   6.605   3.629  15.201  0.3814  0.6402  0.3082
 4811TIP3    H135848   6.641   3.711  15.167 -1.2801  0.4988 -1.9450
 4811TIP3    H235849   6.646   3.562  15.146 -1.3444  0.2997 -0.5935
 4812TIP3   OH235850   2.953   2.114   2.003  0.2150  0.0250  0.3716
 4812TIP3    H135851   3.016   2.111   2.075 -0.9917 -0.6986  1.4393
 4812TIP3    H235852   3.001   2.151   1.930  1.8803 -0.5199  1.1592
 4813TIP3   OH235853   5.360   5.502   5.856 -0.1976 -0.6114 -0.4764
 4813TIP3    H135854   5.360   5.437   5.925  0.6186  1.0256  1.0961
 4813TIP3    H235855   5.287   5.561   5.877  0.4774  0.2936 -0.6037
 4814TIP3   OH235856   5.118   1.654   3.860 -0.2664 -0.7698  0.4177
 4814TIP3    H135857   5.109   1.680   3.952 -1.2081 -1.2263  0.4604
 4814TIP3    H235858   5.204   1.688   3.834 -0.2861 -0.0483  1.2677
 4815TIP3   OH235859   1.495   2.371   2.895  0.1459 -0.0896  0.3436
 4815TIP3    H135860   1.426   2.346   2.956  0.0457  0.6263  0.5269
 4815TIP3    H235861   1.449   2.396   2.815  0.2176 -0.0555  0.3127
 4816TIP3   OH235862   4.866   4.924  12.677  0.4312 -0.0340 -0.5296
 4816TIP3    H135863   4.862   4.922  12.772 -2.6286  1.0963 -0.5864
 4816TIP3    H235864   4.954   4.891  12.656  0.7061 -1.4570  2.6008
 4817TIP3   OH235865   6.247   4.203   2.386  0.0563  0.3567  0.3325
 4817TIP3    H135866   6.273   4.208   2.478  0.2851  0.2636  0.2741
 4817TIP3    H235867   6.258   4.111   2.363 -1.6739  0.0479  0.6946
 4818TIP3   OH235868   4.282   6.439  12.946 -0.0151  0.7082 -0.0406
 4818TIP3    H135869   4.267   6.428  13.039  1.5935  2.5301  0.4570
 4818TIP3    H235870   4.275   6.351  12.910  1.6356 -0.3356  2.1369
 4819TIP3   OH235871   0.662   6.547   2.121 -0.2132  0.0720  0.4909
 4819TIP3    H135872   0.752   6.570   2.100 -0.8866  1.3611 -1.0438
 4819TIP3    H235873   0.659   6.547   2.217  1.5676 -0.6873  0.5626
 4820TIP3   OH235874   2.132   1.043  17.157 -0.3258  0.9040  0.3470
 4820TIP3    H135875   2.107   0.952  17.177 -0.3937  0.6654 -0.8178
 4820TIP3    H235876   2.116   1.090  17.239 -4.2833  0.6743 -0.1545
 4821TIP3   OH235877   1.777   3.456  16.061  0.3431 -0.5228  0.5013
 4821TIP3    H135878   1.731   3.534  16.092 -1.9222 -1.7974  0.4402
 4821TIP3    H235879   1.848   3.490  16.006 -0.8461  1.4781  0.1557
 4822TIP3   OH235880   5.258   1.906   5.299  0.6665  0.1214  0.2124
 4822TIP3    H135881   5.192   1.881   5.365 -0.4739 -0.2214 -1.0348
 4822TIP3    H235882   5.216   1.888   5.215  0.6464  4.0586 -0.7155
 4823TIP3   OH235883   1.110   2.349   2.731 -0.6018  0.5294 -0.1321
 4823TIP3    H135884   1.088   2.269   2.683 -1.4358  0.2945  0.6148
 4823TIP3    H235885   1.183   2.387   2.684  0.5368 -1.2704  0.1629
 4824TIP3   OH235886   2.365   4.332  16.142 -0.1710 -0.4093  0.3826
 4824TIP3    H135887   2.379   4.286  16.225 -1.4731  0.1347  0.9102
 4824TIP3    H235888   2.272   4.352  16.140 -0.1243 -0.2315 -1.1279
 4825TIP3   OH235889   0.310   5.126   0.181 -0.2572 -0.1281 -0.0009
 4825TIP3    H135890   0.265   5.189   0.237  0.2892  0.9016 -0.7137
 4825TIP3    H235891   0.259   5.045   0.190 -1.3845  0.6101  0.3429
 4826TIP3   OH235892   1.834   3.651   0.293  0.2342  0.1814 -0.4406
 4826TIP3    H135893   1.908   3.679   0.239  1.4939 -3.7000 -0.9128
 4826TIP3    H235894   1.782   3.595   0.236 -0.9510 -0.2651  1.0331
 4827TIP3   OH235895   5.055   1.094  11.003 -0.0651  0.4971  0.0866
 4827TIP3    H135896   5.006   1.029  10.953 -1.1398  1.4230 -0.0824
 4827TIP3    H235897   5.034   1.178  10.962  1.5953  0.9183  0.0765
 4828TIP3   OH235898   3.550   1.033   4.658 -0.2088 -0.5442 -0.1869
 4828TIP3    H135899   3.598   1.097   4.606  1.5368  0.1519  2.1929
 4828TIP3    H235900   3.509   0.975   4.593  4.4282 -1.6077 -2.3712
 4829TIP3   OH235901   6.363   5.681  11.794 -0.2290  0.1108  0.2043
 4829TIP3    H135902   6.425   5.608  11.802 -0.6417 -0.2587  0.0394
 4829TIP3    H235903   6.416   5.754  11.760  0.4573  0.2609  1.5618
 4830TIP3   OH235904   1.758   4.312   5.499 -0.2474  0.0253  0.2110
 4830TIP3    H135905   1.788   4.379   5.561  0.5160  0.5483 -0.7192
 4830TIP3    H235906   1.804   4.232   5.525 -0.1198  0.1851  0.4723
 4831TIP3   OH235907   3.349   1.020  11.056 -0.4612 -0.2502 -0.1998
 4831TIP3    H135908   3.350   1.104  11.102 -1.1945 -0.9894  1.2252
 4831TIP3    H235909   3.436   0.983  11.072 -0.2509  0.0863 -0.5503
 4832TIP3   OH235910   0.131   1.547   4.139  0.1414  0.2031  0.1143
 4832TIP3    H135911   0.041   1.516   4.145 -0.0487  0.5800 -0.8617
 4832TIP3    H235912   0.147   1.589   4.224 -1.2294  1.8445 -0.4312
 4833TIP3   OH235913   0.519   0.797  10.575 -0.5756 -0.0100 -0.4864
 4833TIP3    H135914   0.541   0.882  10.613 -1.9336  0.8287 -1.4779
 4833TIP3    H235915   0.438   0.771  10.620 -2.8202  1.5148 -3.4217
 4834TIP3   OH235916   6.450   2.634   5.923 -0.3604 -0.3861 -0.5116
 4834TIP3    H135917   6.537   2.671   5.910 -0.6404 -0.0306 -1.3867
 4834TIP3    H235918   6.467   2.548   5.961  0.2446  1.0895  2.6986
 4835TIP3   OH235919   0.874   5.678   1.160  0.3189  0.0303  0.7169
 4835TIP3    H135920   0.814   5.666   1.234  2.1017 -0.7607  2.0590
 4835TIP3    H235921   0.957   5.703   1.200  1.3296 -0.4649 -1.0234
 4836TIP3   OH235922   5.383   6.097   3.008 -0.2369 -0.5628 -0.0204
 4836TIP3    H135923   5.327   6.097   3.085 -0.0397  1.5957  0.1267
 4836TIP3    H235924   5.464   6.055   3.038 -0.8342 -1.4396  0.4142
 4837TIP3   OH235925   5.505   5.845  13.118  0.2903  0.0613 -0.4564
 4837TIP3    H135926   5.463   5.837  13.032  2.0105 -0.4356 -1.2778
 4837TIP3    H235927   5.484   5.762  13.162 -4.0736  1.9335  1.2652
 4838TIP3   OH235928   2.080   0.352   3.599 -0.8109 -0.1309 -0.1313
 4838TIP3    H135929   2.173   0.358   3.623 -0.6341  0.1847 -0.8968
 4838TIP3    H235930   2.036   0.405   3.665 -0.3696  0.3362 -0.2042
 4839TIP3   OH235931   6.339   0.887   5.027 -0.3110  0.0089 -0.5268
 4839TIP3    H135932   6.296   0.923   5.105  0.5336  0.1193 -0.1013
 4839TIP3    H235933   6.276   0.825   4.991 -0.5501 -0.3301  0.4674
 4840TIP3   OH235934   1.728   4.079   3.819  0.5801 -0.3603  0.3550
 4840TIP3    H135935   1.770   4.158   3.786 -0.6053  0.5824  1.0535
 4840TIP3    H235936   1.778   4.007   3.781  2.7202  0.7255  1.0463
 4841TIP3   OH235937   6.469   5.446  15.835  0.0649  0.4416  0.3837
 4841TIP3    H135938   6.492   5.538  15.850  1.0186 -0.0048  1.7474
 4841TIP3    H235939   6.454   5.411  15.923  0.3841 -0.8863 -0.0898
 4842TIP3   OH235940   4.447   5.955   6.650  0.0212 -0.2128 -1.1878
 4842TIP3    H135941   4.439   5.971   6.744 -0.3348 -0.1009 -1.2372
 4842TIP3    H235942   4.380   6.009   6.610 -1.0963 -1.6926 -1.3680
 4843TIP3   OH235943   5.154   4.882  12.121  0.5602 -0.1070  0.1491
 4843TIP3    H135944   5.099   4.951  12.084  0.2840 -0.0671  0.6384
 4843TIP3    H235945   5.143   4.890  12.215  1.4150 -0.0945  0.2521
 4844TIP3   OH235946   3.711   1.011  16.854 -0.0855 -0.0574  0.0713
 4844TIP3    H135947   3.726   1.080  16.918 -2.0840  1.1774 -0.7402
 4844TIP3    H235948   3.690   0.934  16.906 -1.7890  0.9595  0.9125
 4845TIP3   OH235949   5.465   3.121  16.939  0.2687  0.2814 -0.1134
 4845TIP3    H135950   5.395   3.074  16.982  1.4940 -0.1542  1.4435
 4845TIP3    H235951   5.494   3.062  16.869 -1.6491  0.9501 -1.5100
 4846TIP3   OH235952   3.605   6.622  12.912  0.5329 -0.5601 -0.1529
 4846TIP3    H135953   3.681   6.674  12.887 -1.5110  0.9867 -3.4277
 4846TIP3    H235954   3.601   6.551  12.847 -1.2983 -0.0966 -0.5833
 4847TIP3   OH235955   0.303   1.982   0.620  0.3750  0.1768 -0.5130
 4847TIP3    H135956   0.348   1.990   0.704 -0.3094  1.0987 -0.2207
 4847TIP3    H235957   0.272   1.892   0.618  0.9130 -0.0216 -0.0414
 4848TIP3   OH235958   3.706   6.352   2.042 -0.6622 -0.4146  0.0904
 4848TIP3    H135959   3.726   6.442   2.070  1.1762 -1.0816  1.0573
 4848TIP3    H235960   3.649   6.318   2.111 -1.2498 -0.0408 -0.2066
 4849TIP3   OH235961   3.182   2.068   4.929  0.2966 -0.4181  0.1580
 4849TIP3    H135962   3.094   2.104   4.920 -0.0311 -1.2838 -0.1068
 4849TIP3    H235963   3.213   2.101   5.014 -0.0179  0.4330 -0.0508
 4850TIP3   OH235964   4.944   6.248  15.184  0.0273  0.4191 -0.3341
 4850TIP3    H135965   4.966   6.213  15.098 -1.0550  0.4628 -0.6326
 4850TIP3    H235966   4.874   6.191  15.216  0.8566  0.0064  0.8015
 4851TIP3   OH235967   2.347   0.949   4.411  0.2411  0.5831 -0.3172
 4851TIP3    H135968   2.281   1.012   4.440 -0.2799 -0.4700  0.8680
 4851TIP3    H235969   2.405   0.938   4.486 -0.1386 -0.9096 -0.2129
 4852TIP3   OH235970   3.664   4.859  13.532 -0.0813  0.7863  0.2088
 4852TIP3    H135971   3.592   4.868  13.595 -0.7669 -0.5321 -0.3642
 4852TIP3    H235972   3.627   4.890  13.450 -1.0626 -2.8343 -0.8047
 4853TIP3   OH235973   2.960   5.629  10.569  0.2350  0.3051  0.0671
 4853TIP3    H135974   2.868   5.656  10.570  0.0297 -0.3716  2.2710
 4853TIP3    H235975   3.008   5.706  10.599  0.1760  0.0575  0.8278
 4854TIP3   OH235976   6.074   2.052  12.894  0.0677 -0.5973 -0.0307
 4854TIP3    H135977   6.128   1.982  12.930  0.2105 -1.1881 -1.3495
 4854TIP3    H235978   6.136   2.115  12.858 -0.0427  0.5142  1.6500
 4855TIP3   OH235979   3.681   3.504   6.378  0.1744  0.1660 -0.0021
 4855TIP3    H135980   3.591   3.533   6.393 -0.9867 -2.5890 -1.3007
 4855TIP3    H235981   3.709   3.466   6.462 -0.9618 -1.7181 -0.4739
 4856TIP3   OH235982   5.588   2.181  12.091 -0.5015 -0.6570  0.2389
 4856TIP3    H135983   5.527   2.224  12.032 -3.1662 -2.0168  1.9331
 4856TIP3    H235984   5.627   2.252  12.142  0.5433  0.3577 -1.9048
 4857TIP3   OH235985   4.119   6.722  13.191 -0.8357 -0.7046 -0.0536
 4857TIP3    H135986   4.090   6.743  13.102  1.8517 -0.7748 -0.9929
 4857TIP3    H235987   4.128   6.807  13.234 -3.6468 -0.7408  0.6928
 4858TIP3   OH235988   0.944   5.301   5.332 -0.3119  0.0999  0.0556
 4858TIP3    H135989   0.890   5.258   5.267  0.2814  0.5398 -0.7335
 4858TIP3    H235990   1.022   5.328   5.285 -0.1771  1.0336  0.7959
 4859TIP3   OH235991   0.123   2.645   1.755 -0.0006 -0.1610 -0.2062
 4859TIP3    H135992   0.133   2.632   1.850 -0.3306 -0.3844 -0.2045
 4859TIP3    H235993   0.053   2.710   1.747  1.0808  1.0337 -0.2429
 4860TIP3   OH235994   3.241   0.308  16.481 -0.3694  0.1630 -0.6608
 4860TIP3    H135995   3.314   0.369  16.475  0.1726 -0.6521 -2.5579
 4860TIP3    H235996   3.248   0.254  16.403 -2.2193 -0.8055 -0.1837
 4861TIP3   OH235997   0.996   2.371  12.697  0.6138  0.1617 -0.3858
 4861TIP3    H135998   0.929   2.433  12.669 -1.3681 -1.3646  0.8332
 4861TIP3    H235999   0.958   2.329  12.774  3.8102  0.6706  1.5721
 4862TIP3   OH236000   4.479   6.138  12.776 -0.4938 -0.2217  0.1464
 4862TIP3    H136001   4.385   6.132  12.789 -0.3407 -2.5684  0.5033
 4862TIP3    H236002   4.494   6.227  12.744 -2.8423  0.0829 -0.1738
 4863TIP3   OH236003   0.237   2.998  11.203 -0.6673 -0.3881  0.1635
 4863TIP3    H136004   0.243   2.936  11.130 -0.0976 -1.5933  1.2260
 4863TIP3    H236005   0.146   3.028  11.200 -0.8211 -0.9051 -0.6649
 4864TIP3   OH236006   6.363   4.331   1.552  0.5213  0.5606  0.1869
 4864TIP3    H136007   6.332   4.300   1.466  1.4778 -0.8406  0.3311
 4864TIP3    H236008   6.399   4.418   1.534 -0.7911  0.9771 -0.5245
 4865TIP3   OH236009   1.324   4.637   1.289 -0.2646  0.4781  0.4328
 4865TIP3    H136010   1.238   4.630   1.247 -0.3480  0.6854  0.5704
 4865TIP3    H236011   1.309   4.694   1.364  0.1106  0.9677  0.1404
 4866TIP3   OH236012   5.165   0.717   1.203 -0.4673 -0.5107  0.1064
 4866TIP3    H136013   5.174   0.709   1.108 -1.6811 -1.0090  0.0223
 4866TIP3    H236014   5.074   0.744   1.217 -0.1047  0.2350  1.0948
 4867TIP3   OH236015   1.808   0.322   4.211 -0.1817 -0.1097  0.1190
 4867TIP3    H136016   1.764   0.251   4.258 -0.3106 -1.1822 -1.5866
 4867TIP3    H236017   1.736   0.373   4.173 -0.1007  1.1256  1.5879
 4868TIP3   OH236018   3.725   6.463  16.398 -0.0760 -0.2528  0.0539
 4868TIP3    H136019   3.783   6.393  16.367 -0.5449 -0.2581 -0.8155
 4868TIP3    H236020   3.669   6.421  16.463  0.0543 -0.5312 -0.0133
 4869TIP3   OH236021   4.324   4.519   4.622  0.4192 -0.0368  0.2514
 4869TIP3    H136022   4.317   4.569   4.703 -1.4314 -0.5696  0.4283
 4869TIP3    H236023   4.355   4.433   4.649 -0.3335 -0.2585  0.4131
 4870TIP3   OH236024   2.087   1.556   4.726 -0.4402 -0.0759  0.5456
 4870TIP3    H136025   2.136   1.516   4.653 -0.4493  0.9498 -0.0385
 4870TIP3    H236026   2.012   1.499   4.738  0.2507 -0.9851  0.6222
 4871TIP3   OH236027   2.731   4.555   1.366  0.1065  0.2591 -0.3017
 4871TIP3    H136028   2.702   4.492   1.431  0.1888 -1.0113 -1.4650
 4871TIP3    H236029   2.824   4.534   1.352  0.2368  0.8877 -0.4284
 4872TIP3   OH236030   1.334   2.300   5.327  0.2147 -0.7666 -0.8397
 4872TIP3    H136031   1.409   2.280   5.383 -0.5316 -0.3972  0.3021
 4872TIP3    H236032   1.314   2.392   5.345 -0.2309 -0.7345 -1.4705
 4873TIP3   OH236033   5.558   5.125  12.273 -0.7391 -0.1003  0.3322
 4873TIP3    H136034   5.646   5.133  12.237 -0.4133  2.2403  1.5312
 4873TIP3    H236035   5.531   5.036  12.250  0.2525  0.5257 -3.7591
 4874TIP3   OH236036   0.412   3.193  12.788  0.2448  0.3028  0.4828
 4874TIP3    H136037   0.468   3.162  12.859  0.3235  1.9074  1.1294
 4874TIP3    H236038   0.327   3.153  12.806  1.0169 -1.7856 -0.2603
 4875TIP3   OH236039   3.353   0.727   5.613 -0.4774 -0.0582 -0.0829
 4875TIP3    H136040   3.410   0.727   5.536  1.4301 -1.0990  1.2673
 4875TIP3    H236041   3.404   0.681   5.680 -1.6142  1.7777  2.1192
 4876TIP3   OH236042   2.109   0.722   2.913 -0.1891  0.1645 -0.0981
 4876TIP3    H136043   2.169   0.679   2.974  1.5885  1.8215 -0.6141
 4876TIP3    H236044   2.026   0.727   2.961  0.7692  0.0982  1.6187
 4877TIP3   OH236045   3.202   4.025   0.704 -0.7299 -0.3139  0.2982
 4877TIP3    H136046   3.281   4.051   0.657 -1.4083 -0.6926 -1.0951
 4877TIP3    H236047   3.176   4.102   0.754 -0.2991  0.2772 -0.3933
 4878TIP3   OH236048   1.245   3.956  14.561 -0.1449  0.1507  0.7015
 4878TIP3    H136049   1.197   3.976  14.641  0.3057  1.3800  0.6882
 4878TIP3    H236050   1.327   3.916  14.592  0.0310  0.6273  0.8586
 4879TIP3   OH236051   6.524   0.012  14.219 -0.2295 -0.3710 -1.1839
 4879TIP3    H136052   6.612   0.051  14.216 -0.5901  0.4230 -1.3630
 4879TIP3    H236053   6.496   0.023  14.310  0.2586 -1.5230 -0.8820
 4880TIP3   OH236054   3.507   3.123  12.671 -0.7450 -0.1836  0.4720
 4880TIP3    H136055   3.531   3.034  12.646 -0.6694  0.5239 -2.1107
 4880TIP3    H236056   3.412   3.125  12.665 -0.6533  0.3554 -1.2076
 4881TIP3   OH236057   5.196   0.409  12.388 -0.4696  0.2601  0.1755
 4881TIP3    H136058   5.267   0.474  12.381 -1.6857  1.6813  0.7322
 4881TIP3    H236059   5.222   0.339  12.328  1.2651  0.8950  0.1591
 4882TIP3   OH236060   6.498   5.210   4.136  0.1240  0.5762 -0.2541
 4882TIP3    H136061   6.403   5.205   4.130 -0.0593 -1.2768  2.9139
 4882TIP3    H236062   6.529   5.131   4.092  0.0583  0.0527  0.6213
 4883TIP3   OH236063   1.442   2.873   0.250 -0.2565 -0.0979  0.3845
 4883TIP3    H136064   1.509   2.897   0.313 -1.3500  0.9489  1.1632
 4883TIP3    H236065   1.479   2.898   0.165  0.6806 -0.3232  0.7227
 4884TIP3   OH236066   2.548   2.806  15.169 -0.3903  0.4215 -0.7777
 4884TIP3    H136067   2.598   2.770  15.243 -1.2854 -0.8519 -0.7831
 4884TIP3    H236068   2.459   2.817  15.204 -0.6348  0.5563 -1.4450
 4885TIP3   OH236069   1.966   0.301   4.860  0.4087 -0.3295  0.0678
 4885TIP3    H136070   1.881   0.320   4.821  0.6467  0.9626  0.1686
 4885TIP3    H236071   2.028   0.357   4.814  1.2379 -1.3412 -0.0842
 4886TIP3   OH236072   2.895   5.088   2.708 -0.8771 -0.1288 -0.1405
 4886TIP3    H136073   2.818   5.052   2.753 -1.5444 -1.2251 -2.0864
 4886TIP3    H236074   2.901   5.037   2.627  1.2457  0.7091 -0.5405
 4887TIP3   OH236075   0.172   0.645   0.603  0.1033 -0.6061 -0.3223
 4887TIP3    H136076   0.178   0.665   0.696 -0.4560 -0.6121 -0.2828
 4887TIP3    H236077   0.210   0.558   0.594  0.4265 -0.4822 -0.1428
 4888TIP3   OH236078   5.473   3.464   0.585 -0.4045 -0.0473 -0.0193
 4888TIP3    H136079   5.464   3.531   0.653  1.3970 -0.0707  0.2882
 4888TIP3    H236080   5.549   3.493   0.534 -1.0737 -0.6124 -1.3521
 4889TIP3   OH236081   5.712   2.076  12.518  0.0691  0.4892  0.2155
 4889TIP3    H136082   5.762   2.115  12.446 -0.6145 -0.7448 -0.9339
 4889TIP3    H236083   5.688   1.989  12.487 -0.4096  0.0113  1.8636
 4890TIP3   OH236084   6.150   0.214   0.315  0.0804  0.3193 -0.2842
 4890TIP3    H136085   6.187   0.302   0.307 -1.1142  0.9197  0.5705
 4890TIP3    H236086   6.209   0.169   0.376  0.4004  0.6876 -0.3164
 4891TIP3   OH236087   4.547   1.066  14.233 -0.9254  0.3932 -0.2929
 4891TIP3    H136088   4.565   1.118  14.155 -1.0173 -0.0921 -0.6406
 4891TIP3    H236089   4.609   1.098  14.298 -1.1305  1.0870 -0.4392
 4892TIP3   OH236090   4.971   5.429  15.951  0.2519  0.6890 -0.2908
 4892TIP3    H136091   5.010   5.356  15.999  2.1063  1.0470 -1.1819
 4892TIP3    H236092   4.917   5.388  15.883  3.3900  0.0077 -2.5307
 4893TIP3   OH236093   0.360   6.782   1.309  0.5563 -0.2437 -0.1912
 4893TIP3    H136094   0.428   6.719   1.334 -2.1253 -1.9467  3.3170
 4893TIP3    H236095   0.324   6.746   1.227  1.9467 -0.8797 -0.5438
 4894TIP3   OH236096   6.557   2.100  11.127  0.0846  0.3682  0.1154
 4894TIP3    H136097   6.645   2.135  11.143 -0.3208  0.2305  2.7582
 4894TIP3    H236098   6.568   2.046  11.048  2.2042  0.9411 -0.0251
 4895TIP3   OH236099   2.466   2.106  15.108  0.6648 -1.0510  0.6003
 4895TIP3    H136100   2.432   2.075  15.024 -0.9007 -0.1594  0.8758
 4895TIP3    H236101   2.557   2.128  15.091  0.8236 -2.4471 -0.4445
 4896TIP3   OH236102   2.609   4.249   2.224  0.3411  0.7401  0.4170
 4896TIP3    H136103   2.584   4.220   2.312  1.3246 -0.1764  0.4022
 4896TIP3    H236104   2.703   4.264   2.229  0.4075  0.6773 -0.4809
 4897TIP3   OH236105   4.279   4.732  13.416 -0.1332 -0.2945 -0.0956
 4897TIP3    H136106   4.210   4.798  13.423  1.1736  1.1012 -0.1400
 4897TIP3    H236107   4.239   4.652  13.449 -2.0029  0.3203 -0.8149
 4898TIP3   OH236108   6.690   3.807  11.663  0.4081 -0.3764 -0.1055
 4898TIP3    H136109   6.649   3.726  11.632  1.1864 -0.1816 -1.7115
 4898TIP3    H236110   6.651   3.823  11.748 -3.5424  0.2663 -1.9388
 4899TIP3   OH236111   6.361   3.720   0.027  0.7656 -0.6551 -0.7491
 4899TIP3    H136112   6.432   3.764   0.074  0.2439 -1.0255  0.3957
 4899TIP3    H236113   6.391   3.630   0.017  1.0661 -0.4756 -1.5376
 4900TIP3   OH236114   2.047   5.730  17.210 -0.3726  0.1557 -0.1676
 4900TIP3    H136115   2.095   5.648  17.200 -0.8237 -0.0597 -0.5620
 4900TIP3    H236116   1.956   5.704  17.225 -0.6038  0.5909 -0.7873
 4901TIP3   OH236117   3.733   2.868  15.171  0.6884 -0.5091  0.0242
 4901TIP3    H136118   3.711   2.961  15.168 -1.1429 -0.9473 -0.7563
 4901TIP3    H236119   3.721   2.843  15.263  0.9155 -0.0430  0.1813
 4902TIP3   OH236120   4.147   1.866  10.804 -0.2706 -0.2504  0.3034
 4902TIP3    H136121   4.170   1.953  10.771 -0.8847 -0.0132  0.4829
 4902TIP3    H236122   4.157   1.873  10.899  2.4398 -1.2135  0.1273
 4903TIP3   OH236123   1.293   3.714   4.214 -0.1246 -0.4913  0.5725
 4903TIP3    H136124   1.354   3.759   4.273  1.2582 -0.6963 -0.6753
 4903TIP3    H236125   1.273   3.779   4.147  1.1335 -1.3936 -0.7067
 4904TIP3   OH236126   5.516   0.327  11.678 -0.4469 -0.7678  0.2045
 4904TIP3    H136127   5.457   0.305  11.750  0.4064  1.1004  1.5033
 4904TIP3    H236128   5.461   0.375  11.616 -0.7529 -0.7629  0.4783
 4905TIP3   OH236129   1.602   2.654   5.603  0.4317 -0.4825 -0.2699
 4905TIP3    H136130   1.639   2.717   5.542 -0.1992  2.6730  2.4859
 4905TIP3    H236131   1.672   2.638   5.667 -0.3705 -0.3703  0.6495
 4906TIP3   OH236132   1.074   3.844  15.757 -0.3525 -0.3190 -0.0777
 4906TIP3    H136133   1.157   3.810  15.723 -0.6023 -0.4944 -0.5163
 4906TIP3    H236134   1.069   3.933  15.723 -0.5078 -0.4282 -0.3509
 4907TIP3   OH236135   2.302   0.638  11.481  0.4614 -0.2697  0.2281
 4907TIP3    H136136   2.246   0.702  11.437  2.3733  1.8385  0.7278
 4907TIP3    H236137   2.389   0.652  11.443  1.3242 -1.1794  1.8013
 4908TIP3   OH236138   6.663   4.446  17.011 -0.7794  0.0256 -0.5750
 4908TIP3    H136139   6.632   4.509  17.077  2.4389  0.2624  0.7967
 4908TIP3    H236140   6.605   4.371  17.021 -1.9594  1.0778  0.7627
 4909TIP3   OH236141   2.553   3.970   0.199  0.5228  0.2806  0.8332
 4909TIP3    H136142   2.616   4.041   0.189 -2.1591  2.5155 -0.9067
 4909TIP3    H236143   2.606   3.892   0.217  3.8957  1.6015 -2.9329
 4910TIP3   OH236144   0.545   4.432   5.682  0.7293  0.9355 -0.5302
 4910TIP3    H136145   0.486   4.490   5.633  0.1709  0.4327 -0.4658
 4910TIP3    H236146   0.616   4.412   5.621  0.3206  0.7546 -0.9539
 4911TIP3   OH236147   1.964   4.229   0.863  0.2588 -0.1496  0.5839
 4911TIP3    H136148   1.962   4.196   0.773  0.5756  0.5729  0.3108
 4911TIP3    H236149   1.951   4.151   0.917 -2.0250 -0.3046 -0.1388
 4912TIP3   OH236150   1.094   2.148   0.531  0.4885 -0.2684  0.5430
 4912TIP3    H136151   1.056   2.160   0.618  1.4756  0.7822  0.8451
 4912TIP3    H236152   1.188   2.135   0.548  0.5163 -1.2475 -0.2898
 4913TIP3   OH236153   6.613   5.237  16.409  0.3280 -0.4255 -0.4592
 4913TIP3    H136154   6.621   5.324  16.370  0.2014  0.0472  0.5528
 4913TIP3    H236155   6.617   5.253  16.504  1.1165 -1.5994 -0.2929
 4914TIP3   OH236156   6.259   5.777  16.371 -0.5292 -0.2741 -0.2174
 4914TIP3    H136157   6.261   5.815  16.459  0.0935 -2.1868  0.6260
 4914TIP3    H236158   6.321   5.829  16.321 -0.6963  0.6734  0.5484
 4915TIP3   OH236159   0.603   5.525   0.076 -0.3696 -0.3105  0.0648
 4915TIP3    H136160   0.676   5.506   0.135  0.7585 -1.2667 -1.5608
 4915TIP3    H236161   0.553   5.443   0.072  0.6908 -0.9039 -1.7921
 4916TIP3   OH236162   3.734   0.045   4.612 -0.4051 -0.1556 -0.3132
 4916TIP3    H136163   3.714  -0.035   4.660  0.8295 -0.2599  0.0206
 4916TIP3    H236164   3.749   0.016   4.522 -0.7180 -0.1982 -0.3531
 4917TIP3   OH236165   0.035   2.739  15.077 -0.1160 -0.5419 -0.3121
 4917TIP3    H136166   0.013   2.670  15.139 -1.1428 -0.0460 -0.1089
 4917TIP3    H236167   0.034   2.695  14.991 -1.9757 -0.5231 -0.3090
 4918TIP3   OH236168   5.604   1.790  13.446  0.3847 -0.0965 -0.0377
 4918TIP3    H136169   5.682   1.822  13.400 -0.4825  0.4314 -1.1849
 4918TIP3    H236170   5.532   1.812  13.387 -0.8889  1.6402  2.0976
 4919TIP3   OH236171   1.509   3.137  16.692 -0.3069  0.0835 -0.1372
 4919TIP3    H136172   1.473   3.175  16.612 -0.2919 -0.9393 -0.6414
 4919TIP3    H236173   1.570   3.070  16.661 -0.2858 -0.3027  0.7222
 4920TIP3   OH236174   0.996   5.830  16.668 -0.9247  0.0714 -0.1609
 4920TIP3    H136175   0.967   5.893  16.735 -2.9583 -1.2329  0.2385
 4920TIP3    H236176   0.921   5.822  16.609  0.3143  0.0553 -1.7680
 4921TIP3   OH236177   1.418   3.898  11.721 -0.5182 -0.1276  0.2051
 4921TIP3    H136178   1.324   3.889  11.738 -0.5060 -1.5730 -0.4110
 4921TIP3    H236179   1.432   3.853  11.638  1.0221 -1.4922  1.1683
 4922TIP3   OH236180   2.877   2.378   4.182 -0.2005 -0.0558  0.2927
 4922TIP3    H136181   2.907   2.409   4.267  0.0644  1.0157 -0.1874
 4922TIP3    H236182   2.949   2.400   4.122  0.0304 -1.6433 -0.0510
 4923TIP3   OH236183   4.172   1.098   6.663  0.0558  0.0414  0.1674
 4923TIP3    H136184   4.105   1.165   6.675  0.3849  0.6460 -1.2894
 4923TIP3    H236185   4.245   1.144   6.620  1.4132 -0.5932  1.7165
 4924TIP3   OH236186   2.473   6.029  13.760  0.1608 -0.1923  0.5674
 4924TIP3    H136187   2.437   5.975  13.689 -0.1756  2.0908 -1.0621
 4924TIP3    H236188   2.396   6.060  13.808  0.2156  0.4816  0.2332
 4925TIP3   OH236189   0.993   1.342  13.598 -0.5984 -0.4373  0.3286
 4925TIP3    H136190   0.949   1.413  13.643 -0.5672 -2.1382  3.1712
 4925TIP3    H236191   0.923   1.283  13.570 -0.5350  0.0093 -0.7884
 4926TIP3   OH236192   4.349   2.268   0.425 -0.3473 -0.8308 -0.2720
 4926TIP3    H136193   4.346   2.194   0.364 -1.6607 -0.1222 -1.0953
 4926TIP3    H236194   4.440   2.299   0.421 -0.6604 -0.0938 -2.7559
 4927TIP3   OH236195   1.867   3.266  12.616 -0.2929  0.2712  0.6798
 4927TIP3    H136196   1.878   3.181  12.574  0.3743  1.1711 -1.0144
 4927TIP3    H236197   1.956   3.294  12.638 -0.3627  1.1915 -0.1490
 4928TIP3   OH236198   5.021   3.072  12.466  0.4204 -0.0836  0.0906
 4928TIP3    H136199   5.092   3.041  12.409 -1.4481 -1.3495 -1.6216
 4928TIP3    H236200   4.951   3.096  12.405 -1.5265 -1.1873  1.8431
 4929TIP3   OH236201   2.424   4.922   3.652 -0.2732 -0.1017 -0.4395
 4929TIP3    H136202   2.408   5.014   3.628 -0.8582 -0.1512 -0.2435
 4929TIP3    H236203   2.386   4.913   3.739  0.8926 -0.2071  0.0571
 4930TIP3   OH236204   1.956   1.803   1.749  0.1196  0.6701 -0.2099
 4930TIP3    H136205   2.028   1.765   1.699 -2.5069 -1.2597 -2.6586
 4930TIP3    H236206   1.969   1.770   1.838  2.6393  0.9959 -0.4061
 4931TIP3   OH236207   3.606   2.535   4.215 -0.3123  0.0478  0.1492
 4931TIP3    H136208   3.532   2.496   4.168  0.5680 -2.2406  0.5838
 4931TIP3    H236209   3.571   2.558   4.301 -1.0001  0.7636 -0.3248
 4932TIP3   OH236210   2.824   4.495   1.957 -0.1085 -0.2252  0.0454
 4932TIP3    H136211   2.870   4.466   2.036  0.8575 -1.4019 -0.9332
 4932TIP3    H236212   2.749   4.435   1.949  0.3141 -0.7058 -0.4213
 4933TIP3   OH236213   6.541   2.865  14.259 -0.0817 -0.4269  0.4366
 4933TIP3    H136214   6.593   2.785  14.263 -0.3726 -0.5425  3.3636
 4933TIP3    H236215   6.604   2.936  14.270 -0.3235 -0.4969  2.4393
 4934TIP3   OH236216   4.942   4.702  13.529  0.3087 -0.5328  0.6085
 4934TIP3    H136217   4.960   4.655  13.610 -1.9224 -1.6594  0.5160
 4934TIP3    H236218   4.854   4.737  13.541 -0.2376 -1.0772 -1.4637
 4935TIP3   OH236219   6.185   1.801  11.831  0.0532 -0.4628 -0.1106
 4935TIP3    H136220   6.252   1.734  11.841 -1.2205 -1.6721  0.3925
 4935TIP3    H236221   6.105   1.761  11.866 -1.5729 -0.0232 -3.1643
 4936TIP3   OH236222   1.203   0.938   0.142 -0.0678 -0.0255 -0.2711
 4936TIP3    H136223   1.211   1.026   0.177  1.0231 -1.0734  2.1660
 4936TIP3    H236224   1.117   0.937   0.100 -0.9891  1.5710  1.5223
 4937TIP3   OH236225   2.656   3.219   4.655 -0.0045 -0.5242  0.1481
 4937TIP3    H136226   2.644   3.132   4.692 -0.9697 -1.1816 -1.6503
 4937TIP3    H236227   2.676   3.203   4.562  0.8157  1.1305  0.0214
 4938TIP3   OH236228   1.212   1.682   4.809  0.0677 -0.0463 -0.4134
 4938TIP3    H136229   1.268   1.743   4.761  0.8269  0.1152  0.6434
 4938TIP3    H236230   1.123   1.707   4.785  0.4134  0.6786 -0.9553
 4939TIP3   OH236231   6.430   1.967   3.030  0.4010  0.4775 -0.6448
 4939TIP3    H136232   6.379   1.914   2.969  1.6415  0.1260 -1.3963
 4939TIP3    H236233   6.415   2.057   3.003 -1.6935  0.5490  0.6201
 4940TIP3   OH236234   4.607   2.955  16.859  0.0221 -0.2116  0.5091
 4940TIP3    H136235   4.684   3.002  16.889 -1.1078  2.3938 -0.4686
 4940TIP3    H236236   4.533   2.999  16.902 -1.0826 -1.1357 -0.3768
 4941TIP3   OH236237   3.205   2.336  12.903 -0.1122  0.4722  0.1661
 4941TIP3    H136238   3.272   2.273  12.878 -0.5703  0.0682 -0.0513
 4941TIP3    H236239   3.253   2.405  12.949  0.3750 -0.0917  0.5092
 4942TIP3   OH236240   2.614   5.057   3.816  0.4333  0.8995  0.3493
 4942TIP3    H136241   2.575   5.005   3.746 -0.3542  2.4318 -0.3622
 4942TIP3    H236242   2.706   5.066   3.791  0.5561 -0.0514  0.4310
 4943TIP3   OH236243   2.239   0.261  15.303  0.5194  0.1687  0.6121
 4943TIP3    H136244   2.235   0.174  15.263  0.3804  0.1285  0.7104
 4943TIP3    H236245   2.158   0.267  15.354  0.3336  0.5106  0.2850
 4944TIP3   OH236246   5.589   3.079   6.325 -0.1419 -0.1485 -0.2599
 4944TIP3    H136247   5.601   3.153   6.385  0.5581 -1.2186  0.9265
 4944TIP3    H236248   5.519   3.027   6.365 -1.6831  0.6395 -1.8602
 4945TIP3   OH236249   4.019   5.478  12.949 -0.6196  0.1687 -0.1463
 4945TIP3    H136250   4.026   5.446  13.039  1.2731  0.6927 -0.0742
 4945TIP3    H236251   4.003   5.400  12.897 -1.1322 -0.2176  0.5737
 4946TIP3   OH236252   2.014   6.713   3.055  0.3792 -0.1032  0.0774
 4946TIP3    H136253   2.031   6.730   3.148  2.1289 -1.9341  0.1274
 4946TIP3    H236254   1.974   6.626   3.053 -0.2001  0.1706 -0.8566
 4947TIP3   OH236255   0.008   1.879   5.440  0.2113 -0.3976 -0.0179
 4947TIP3    H136256   0.005   1.938   5.514  1.4795  0.4835 -0.6368
 4947TIP3    H236257   0.074   1.917   5.382 -1.2095 -0.7236 -1.8867
 4948TIP3   OH236258   6.247   3.807   1.141  0.2463 -0.2316  0.0424
 4948TIP3    H136259   6.308   3.814   1.214 -1.5036  0.5254  1.4700
 4948TIP3    H236260   6.289   3.854   1.069  1.3641  0.2136  0.9725
 4949TIP3   OH236261   4.220   1.169   4.678 -0.3833  0.1136 -1.1702
 4949TIP3    H136262   4.288   1.105   4.699 -0.1884  1.0446  1.1847
 4949TIP3    H236263   4.193   1.205   4.763 -3.0238  0.5887 -2.1394
 4950TIP3   OH236264   0.040   4.193   2.178  0.3640 -0.4583  0.9845
 4950TIP3    H136265   0.049   4.288   2.192  1.2029 -0.4206  0.2415
 4950TIP3    H236266  -0.053   4.181   2.158  0.6771  0.5465 -1.2937
 4951TIP3   OH236267   2.870   5.015  15.249  0.1648  0.4775  0.7147
 4951TIP3    H136268   2.912   5.072  15.184 -2.0269 -0.0089 -1.1735
 4951TIP3    H236269   2.908   4.929  15.232 -2.2184 -0.1756 -1.6802
 4952TIP3   OH236270   1.912   0.085  16.881  0.0950 -0.2115 -0.2692
 4952TIP3    H136271   1.977   0.014  16.874  0.7199  0.6145 -3.7496
 4952TIP3    H236272   1.836   0.051  16.834 -1.9342 -1.0008  3.4309
 4953TIP3   OH236273   5.748   3.272   0.963 -0.0888  0.2770  0.4343
 4953TIP3    H136274   5.673   3.331   0.974 -0.8023  0.0262 -2.4848
 4953TIP3    H236275   5.711   3.194   0.921  1.3700 -0.9542  1.3956
 4954TIP3   OH236276   4.965   5.643   1.758 -0.3703 -0.0044 -0.2220
 4954TIP3    H136277   4.906   5.705   1.800 -0.8584 -0.7119  0.1655
 4954TIP3    H236278   5.052   5.676   1.777 -0.6321  0.9931 -0.7074
 4955TIP3   OH236279   2.584   5.202   6.635  0.4823 -0.3385  0.4059
 4955TIP3    H136280   2.561   5.263   6.566 -1.3847 -0.8981  0.5050
 4955TIP3    H236281   2.544   5.238   6.714 -0.4348 -1.5495  0.5085
 4956TIP3   OH236282   6.052   0.136   1.381 -0.2091  0.3567  0.3049
 4956TIP3    H136283   6.145   0.129   1.358  0.3127  0.9828  2.1747
 4956TIP3    H236284   6.013   0.056   1.344  1.1265 -0.1032 -0.1644
 4957TIP3   OH236285   3.422   5.643   6.050 -0.3051 -0.7002  0.5145
 4957TIP3    H136286   3.396   5.591   5.973 -1.7873 -0.5087  0.8635
 4957TIP3    H236287   3.412   5.582   6.123 -0.0300 -0.5437  0.6796
 4958TIP3   OH236288   0.032   5.813  12.218 -0.2509  0.7537 -0.3066
 4958TIP3    H136289   0.024   5.770  12.133  3.1317  0.6241 -0.6516
 4958TIP3    H236290   0.052   5.904  12.196 -0.5467  0.9800  0.3696
 4959TIP3   OH236291   5.706   2.570  16.613 -0.5110  0.3744 -0.1899
 4959TIP3    H136292   5.748   2.640  16.664  2.1512 -2.6097  1.8949
 4959TIP3    H236293   5.623   2.554  16.657  0.2440  0.1776  1.2002
 4960TIP3   OH236294   0.062   2.458   5.374  0.5262 -0.0687  0.7779
 4960TIP3    H136295   0.075   2.452   5.469 -1.5626 -3.2188  0.9474
 4960TIP3    H236296   0.073   2.368   5.343 -2.8305  0.1518 -1.3378
 4961TIP3   OH236297   3.361   1.974   5.632  0.6150  0.2573 -0.2345
 4961TIP3    H136298   3.451   2.005   5.633  0.7122 -0.0206 -0.4335
 4961TIP3    H236299   3.308   2.052   5.612  0.7801  0.4957  0.2477
 4962TIP3   OH236300   3.499   3.695  16.540 -0.1933  0.0828  0.2451
 4962TIP3    H136301   3.541   3.736  16.615  1.3850 -0.0378 -0.5449
 4962TIP3    H236302   3.448   3.765  16.499 -0.2245  0.4069  0.8355
 4963TIP3   OH236303   0.919   1.558  16.102 -0.2242 -0.4680 -0.1923
 4963TIP3    H136304   0.881   1.488  16.050  0.0053 -0.7450  0.0090
 4963TIP3    H236305   0.873   1.637  16.075 -1.0590 -0.8297  0.1814
 4964TIP3   OH236306   1.668   2.125   6.018  0.5108  0.2491  0.5427
 4964TIP3    H136307   1.650   2.146   6.109  0.1263  0.8921  0.3172
 4964TIP3    H236308   1.585   2.139   5.973  1.0539  1.2638 -0.1460
 4965TIP3   OH236309   3.983   2.805  16.760  0.1087  0.0816 -0.0166
 4965TIP3    H136310   3.979   2.712  16.738  0.7051 -0.5154  2.3233
 4965TIP3    H236311   3.891   2.829  16.775  0.0097 -0.2642 -0.0579
 4966TIP3   OH236312   4.369   0.364   3.875  0.3847  0.2209  0.5912
 4966TIP3    H136313   4.284   0.321   3.870  1.4085 -1.7713 -0.0183
 4966TIP3    H236314   4.379   0.386   3.967 -0.2067 -0.7224  0.8921
 4967TIP3   OH236315   4.606   0.346   3.692 -0.0924 -0.4944 -0.0702
 4967TIP3    H136316   4.642   0.281   3.632  0.3702  2.5668 -3.2973
 4967TIP3    H236317   4.512   0.333   3.690  0.1610 -2.8785  1.5934
 4968TIP3   OH236318   2.653   1.949  14.761 -0.2278 -0.0151 -0.3462
 4968TIP3    H136319   2.744   1.932  14.785 -0.3102  0.2349  0.1530
 4968TIP3    H236320   2.643   1.911  14.674  1.1481  2.4995 -1.6475
 4969TIP3   OH236321   3.864   2.451   5.032 -0.1664 -0.5402 -0.0400
 4969TIP3    H136322   3.946   2.404   5.015 -0.9490 -1.9112 -0.0727
 4969TIP3    H236323   3.796   2.392   5.000 -1.2248  0.1448  0.9429
 4970TIP3   OH236324   6.089   0.227  13.432  0.4031 -0.0821 -0.4285
 4970TIP3    H136325   6.035   0.277  13.371  0.9151 -0.7305 -1.4290
 4970TIP3    H236326   6.058   0.253  13.519  1.2982  2.6635 -0.8883
 4971TIP3   OH236327   6.439   6.502  15.533  0.7622  0.2911 -0.1368
 4971TIP3    H136328   6.481   6.416  15.537  1.4958  0.7133  1.5394
 4971TIP3    H236329   6.510   6.562  15.508  0.6208  0.6609  0.3512
 4972TIP3   OH236330   0.484   2.528  13.509  0.2990  0.0810  0.6355
 4972TIP3    H136331   0.538   2.592  13.556  0.2308  1.2850 -0.8937
 4972TIP3    H236332   0.532   2.510  13.429 -0.9029  0.1488 -0.1080
 4973TIP3   OH236333   6.239   4.737   2.840 -0.7344  0.2354  0.4900
 4973TIP3    H136334   6.254   4.793   2.916  1.7204  2.8528 -1.7724
 4973TIP3    H236335   6.313   4.677   2.840  0.1182  1.2496 -0.6175
 4974TIP3   OH236336   6.700   4.053  16.084 -0.2214 -0.1236  0.5400
 4974TIP3    H136337   6.704   4.102  16.166  0.3852  0.4935  0.1465
 4974TIP3    H236338   6.762   3.981  16.096  0.9492  0.7924  0.0951
 4975TIP3   OH236339   2.581   5.685   3.867  0.4446 -0.0776 -0.0348
 4975TIP3    H136340   2.649   5.752   3.868 -0.2494  0.6462  2.1287
 4975TIP3    H236341   2.595   5.636   3.948 -2.6319  1.2107  1.3822
 4976TIP3   OH236342   4.355   4.347  12.618  0.5198 -0.4640 -0.3069
 4976TIP3    H136343   4.401   4.430  12.623  1.6424 -1.1545  1.3854
 4976TIP3    H236344   4.275   4.361  12.669  0.9352 -0.5562  0.3763
 4977TIP3   OH236345   4.341   2.237   2.695  0.2930 -0.5060 -0.5456
 4977TIP3    H136346   4.376   2.314   2.739  1.4511 -0.9688 -0.6268
 4977TIP3    H236347   4.256   2.264   2.661  0.8868  0.8487 -0.9482
 4978TIP3   OH236348   2.155   5.078  15.183  0.2971 -0.2681  0.0752
 4978TIP3    H136349   2.245   5.046  15.187  1.6005  3.1080 -0.5105
 4978TIP3    H236350   2.145   5.109  15.093 -1.9935 -1.9073 -0.2992
 4979TIP3   OH236351   5.533   6.627   3.164  0.1299  0.4562  0.1029
 4979TIP3    H136352   5.531   6.538   3.197  0.4445  0.7689  0.9664
 4979TIP3    H236353   5.518   6.682   3.241  1.1163  1.1909 -0.2148
 4980TIP3   OH236354   0.790   0.010   1.122  0.0859  0.3407  0.1458
 4980TIP3    H136355   0.831  -0.035   1.048  1.1122  0.7104  0.4833
 4980TIP3    H236356   0.819  -0.040   1.199  0.3939  0.9578  0.4349
 4981TIP3   OH236357   4.840   6.735   3.979 -0.1052 -0.1549 -0.0349
 4981TIP3    H136358   4.841   6.831   3.970  1.6262 -0.2835 -1.5948
 4981TIP3    H236359   4.750   6.710   3.959 -0.6679  1.1856  0.7697
 4982TIP3   OH236360   1.483   1.806  15.569  0.4314  0.5072 -0.1144
 4982TIP3    H136361   1.562   1.842  15.528  1.0534 -0.9161 -0.2020
 4982TIP3    H236362   1.451   1.877  15.625  0.2424  2.0600 -2.1319
 4983TIP3   OH236363   0.966   5.093   1.476 -0.4811  0.8922 -0.3527
 4983TIP3    H136364   1.017   5.168   1.445  1.7945 -0.9951 -1.3297
 4983TIP3    H236365   1.015   5.060   1.551 -1.3432  0.2208 -0.0736
 4984TIP3   OH236366   0.208   0.600   3.740 -0.6636  0.2007  0.0160
 4984TIP3    H136367   0.249   0.518   3.767  2.5124  1.0547 -1.9831
 4984TIP3    H236368   0.226   0.661   3.811  2.6520  0.8702 -1.3138
 4985TIP3   OH236369   5.952   1.817   2.597  0.1042  0.5611  0.0939
 4985TIP3    H136370   5.971   1.743   2.654 -1.9200  0.9462  1.3528
 4985TIP3    H236371   6.037   1.845   2.563  0.9692 -1.8155  0.2331
 4986TIP3   OH236372   1.115   0.433   1.499  0.3104  0.4759  0.1697
 4986TIP3    H136373   1.182   0.440   1.567  0.5461  0.2708 -0.0415
 4986TIP3    H236374   1.036   0.405   1.546 -0.0481  2.2575  0.6708
 4987TIP3   OH236375   6.033   6.309   1.703 -0.0388  0.5217  0.3973
 4987TIP3    H136376   6.078   6.313   1.787 -0.9580  0.1838  0.9142
 4987TIP3    H236377   5.963   6.244   1.716  0.3002 -0.1195 -0.8573
 4988TIP3   OH236378   3.962   1.442  15.972  1.0818  0.0822  0.3532
 4988TIP3    H136379   3.883   1.444  15.918  1.8072 -1.8808 -0.8237
 4988TIP3    H236380   4.021   1.505  15.931  1.1501 -0.4579 -0.3662
 4989TIP3   OH236381   6.160   5.105  16.295  0.0502  0.1923  0.7721
 4989TIP3    H136382   6.134   5.017  16.321 -1.0253  0.2444 -0.0590
 4989TIP3    H236383   6.098   5.163  16.339  1.6693  0.6560  2.5073
 4990TIP3   OH236384   5.170   4.365   1.102 -0.3070 -0.0247  0.4543
 4990TIP3    H136385   5.193   4.303   1.171  0.1061 -0.4021 -0.0140
 4990TIP3    H236386   5.093   4.411   1.135  0.5709  0.5906  1.6363
 4991TIP3   OH236387   5.226   4.699  15.728 -0.2136  0.6732 -0.0778
 4991TIP3    H136388   5.237   4.622  15.784 -2.3532 -1.0122 -1.8806
 4991TIP3    H236389   5.134   4.697  15.702  0.5118  1.8406 -2.9552
 4992TIP3   OH236390   6.262   5.568  14.740  0.2194 -0.7117  0.4183
 4992TIP3    H136391   6.286   5.656  14.769  0.4559 -0.3845 -0.7309
 4992TIP3    H236392   6.342   5.516  14.752  0.0318 -0.8199  1.2518
 4993TIP3   OH236393   6.565   5.054  15.484  0.0743 -0.0183 -0.6254
 4993TIP3    H136394   6.545   5.070  15.576  0.7442 -0.8159 -0.3304
 4993TIP3    H236395   6.538   5.133  15.438 -2.4006 -0.4830 -0.0441
 4994TIP3   OH236396   4.419   3.931  12.421 -0.1282  0.3725  0.3645
 4994TIP3    H136397   4.411   3.993  12.494 -0.7121  0.8078 -0.0628
 4994TIP3    H236398   4.330   3.898  12.408  0.1332 -0.3541  0.4119
 4995TIP3   OH236399   3.011   1.282   4.376 -0.1987 -0.0457  0.3151
 4995TIP3    H136400   3.064   1.211   4.338  0.6896  1.6189 -1.6524
 4995TIP3    H236401   3.007   1.261   4.469  4.5110  0.0570  0.6914
 4996TIP3   OH236402   1.453   3.538   3.724 -0.2074 -0.0420 -0.0875
 4996TIP3    H136403   1.518   3.536   3.653 -0.4931 -0.1121 -0.3456
 4996TIP3    H236404   1.457   3.628   3.756 -0.9215  0.3173 -0.9778
 4997TIP3   OH236405   4.647   0.790  12.217  0.2114 -0.4079  0.4181
 4997TIP3    H136406   4.589   0.828  12.283  0.0979 -2.2472  1.4096
 4997TIP3    H236407   4.734   0.822  12.240 -0.1555  0.9340 -0.0252
 4998TIP3   OH236408   2.622   1.803   1.884  0.1730  0.7790  0.6306
 4998TIP3    H136409   2.574   1.725   1.910 -3.1724  1.6918 -2.3783
 4998TIP3    H236410   2.659   1.837   1.965  0.4199 -3.0368  2.2219
 4999TIP3   OH236411   4.673   0.898  16.453  0.3489  0.4306  0.2046
 4999TIP3    H136412   4.637   0.837  16.517 -1.3099  1.4302  0.2531
 4999TIP3    H236413   4.762   0.865  16.437  0.5023 -0.3318  2.3548
 5000TIP3   OH236414   4.022   1.568   1.275  0.1138  0.3750  0.0395
 5000TIP3    H136415   3.928   1.574   1.261 -0.0607  0.0347  1.0361
 5000TIP3    H236416   4.032   1.506   1.347  1.1683 -0.5345 -0.8641
 5001TIP3   OH236417   0.461   0.039   2.935 -0.1756  0.1524 -0.0488
 5001TIP3    H136418   0.531   0.086   2.889  0.3841  0.1961  0.8329
 5001TIP3    H236419   0.401   0.108   2.963 -0.4376  0.1401 -0.5772
 5002TIP3   OH236420   0.065   6.613  16.812 -0.0039 -0.2583 -0.0495
 5002TIP3    H136421  -0.009   6.589  16.758  0.5103  1.1329 -1.4181
 5002TIP3    H236422   0.051   6.567  16.895 -0.9912 -2.0955 -1.2187
 5003TIP3   OH236423   3.892   3.086  14.771 -0.0330  0.0395  0.5497
 5003TIP3    H136424   3.808   3.041  14.772  0.0233 -0.0630  0.6058
 5003TIP3    H236425   3.869   3.179  14.770 -0.1941  0.0246 -2.2133
 5004TIP3   OH236426   5.570   4.495   0.589  0.2054 -0.3969 -0.7412
 5004TIP3    H136427   5.524   4.564   0.639 -0.7724 -1.4833 -0.1117
 5004TIP3    H236428   5.552   4.415   0.638  1.7537 -1.0328 -1.1968
 5005TIP3   OH236429   6.112   4.147  15.791  0.5195 -0.0322 -0.6795
 5005TIP3    H136430   6.193   4.146  15.740  1.1800  2.0423  0.2873
 5005TIP3    H236431   6.078   4.236  15.782 -0.0550 -0.0105  1.3886
 5006TIP3   OH236432   4.071   3.224  14.432  0.3595  0.0658  0.1366
 5006TIP3    H136433   4.167   3.227  14.434  0.3906 -1.1304  0.4452
 5006TIP3    H236434   4.048   3.258  14.346  1.1633 -1.7623 -0.8298
 5007TIP3   OH236435   0.344   4.595   5.401 -0.2317  0.4194  0.1456
 5007TIP3    H136436   0.354   4.510   5.358  4.0265  1.0281 -0.2882
 5007TIP3    H236437   0.321   4.574   5.491  2.0380 -1.3235  0.3734
 5008TIP3   OH236438   5.608   2.525  16.335  0.2370  0.7161 -0.4841
 5008TIP3    H136439   5.662   2.534  16.413  0.4546  0.2044 -0.5743
 5008TIP3    H236440   5.531   2.579  16.353  0.4661  0.9131 -0.0812
 5009TIP3   OH236441   2.697   6.547  12.371  0.1872 -0.2244 -0.1890
 5009TIP3    H136442   2.739   6.461  12.370  0.1033 -0.2604 -1.1803
 5009TIP3    H236443   2.758   6.605  12.326  0.1658  0.1997  0.3251
 5010TIP3   OH236444   2.078   5.878  15.345 -0.1045 -0.4536 -0.1497
 5010TIP3    H136445   2.123   5.962  15.342  0.1517 -0.6275 -1.7049
 5010TIP3    H236446   1.999   5.895  15.397 -0.2372  0.8404 -0.7514
 5011TIP3   OH236447   3.826   4.145   2.487 -0.1371 -0.4419 -0.1342
 5011TIP3    H136448   3.881   4.081   2.443  2.4202  0.8682  1.0818
 5011TIP3    H236449   3.748   4.152   2.431  1.4378 -1.4272 -2.5272
 5012TIP3   OH236450   5.455   0.525  15.632 -0.2759  0.7662 -0.2282
 5012TIP3    H136451   5.450   0.616  15.602 -0.5665  0.5398 -0.8688
 5012TIP3    H236452   5.371   0.486  15.606  0.4230 -0.0750 -1.2334
 5013TIP3   OH236453   6.757   4.770   3.142 -0.2775 -0.1740 -0.4366
 5013TIP3    H136454   6.799   4.781   3.228  1.9843  0.3404 -1.5530
 5013TIP3    H236455   6.770   4.854   3.098  0.1795 -1.0020 -1.9329
 5014TIP3   OH236456   3.185   3.212  11.240  0.6546  0.2274 -0.1845
 5014TIP3    H136457   3.251   3.274  11.209 -0.3338  1.7145  0.5899
 5014TIP3    H236458   3.234   3.143  11.284  1.7212  1.1511  0.0863
 5015TIP3   OH236459   2.805   1.784  16.719 -0.3059 -0.2277  0.0884
 5015TIP3    H136460   2.849   1.770  16.635  1.0942 -0.1455  0.7818
 5015TIP3    H236461   2.877   1.801  16.781 -1.3737  0.6540  1.1140
 5016TIP3   OH236462   4.889   3.201  15.441  0.1641  0.1649  0.3242
 5016TIP3    H136463   4.797   3.180  15.456 -0.0272  0.0781 -0.9320
 5016TIP3    H236464   4.888   3.288  15.400  0.5941 -0.0976 -0.2590
 5017TIP3   OH236465   0.018   6.509   0.513 -0.0716 -0.4429 -0.5065
 5017TIP3    H136466  -0.048   6.445   0.539 -0.7062 -0.2946 -1.7509
 5017TIP3    H236467   0.084   6.504   0.582 -0.7485 -1.5163  0.0749
 5018TIP3   OH236468   0.909   1.846  14.244 -0.7388  0.0182  0.2626
 5018TIP3    H136469   0.999   1.863  14.271  0.1386 -1.1348 -1.8100
 5018TIP3    H236470   0.868   1.932  14.244  0.5787  0.6656  0.5191
 5019TIP3   OH236471   6.547   2.938  15.834  0.3404  0.1947  0.7207
 5019TIP3    H136472   6.511   2.852  15.812  1.1771 -0.4702  1.8928
 5019TIP3    H236473   6.502   2.961  15.916  0.2165  0.8168  0.4759
 5020TIP3   OH236474   2.226   2.714  14.664  0.2547  0.1477 -0.2286
 5020TIP3    H136475   2.310   2.739  14.625  1.6768 -3.0535  0.6792
 5020TIP3    H236476   2.173   2.685  14.590  0.0946  1.7075 -0.7405
 5021TIP3   OH236477   5.898   4.230  17.163  0.2875  0.4756  0.0237
 5021TIP3    H136478   5.975   4.197  17.117  1.1181  1.3298  0.7705
 5021TIP3    H236479   5.930   4.306  17.212 -1.1129  1.0536  0.0636
 5022TIP3   OH236480   3.003   6.703   6.590  0.3768 -0.5625  0.3906
 5022TIP3    H136481   3.037   6.753   6.664 -1.5210  1.1271  0.1748
 5022TIP3    H236482   2.981   6.769   6.524 -1.0933 -1.7710 -0.3634
 5023TIP3   OH236483   0.985   5.603   1.864  0.1035  0.3150  0.4411
 5023TIP3    H136484   0.951   5.627   1.778  1.3455 -0.7285 -0.3603
 5023TIP3    H236485   0.995   5.508   1.862 -1.1155  0.1171  2.2259
 5024TIP3   OH236486   3.492   5.309   4.636  0.5022  0.3600  0.1215
 5024TIP3    H136487   3.418   5.366   4.615  0.6720  0.0722 -1.3467
 5024TIP3    H236488   3.453   5.233   4.680 -0.0550  0.3163 -0.4419
 5025TIP3   OH236489   3.666   5.835  14.201 -0.0046 -0.0121  0.0975
 5025TIP3    H136490   3.608   5.876  14.136 -0.8917 -0.2732  0.7073
 5025TIP3    H236491   3.612   5.766  14.241  0.6713 -0.1458  0.7937
 5026TIP3   OH236492   4.556   5.392   5.874 -0.0695 -0.6207  0.0630
 5026TIP3    H136493   4.476   5.385   5.925  0.1395 -0.3145  0.4404
 5026TIP3    H236494   4.590   5.479   5.895  1.4924 -1.5695  1.5808
 5027TIP3   OH236495   2.846   4.467   5.023 -0.0366  0.2091 -0.3998
 5027TIP3    H136496   2.767   4.519   5.010 -0.1949 -0.2318 -1.1946
 5027TIP3    H236497   2.872   4.486   5.113  0.6827  2.7646 -1.0983
 5028TIP3   OH236498   2.481   5.111  14.689  0.1046  0.2449  0.5424
 5028TIP3    H136499   2.443   5.194  14.663  1.0048  0.6301  0.4250
 5028TIP3    H236500   2.458   5.101  14.781 -1.8184 -0.4036  0.0055
 5029TIP3   OH236501   4.309   1.942  13.604  1.0280  0.7655  0.1266
 5029TIP3    H136502   4.338   1.986  13.523  1.3252  0.4706  0.0722
 5029TIP3    H236503   4.387   1.898  13.637  0.4155 -0.9069 -0.5756
 5030TIP3   OH236504   5.881   6.282  13.097  0.7623  0.1507 -0.1525
 5030TIP3    H136505   5.823   6.356  13.080  0.9754  0.3104 -0.1893
 5030TIP3    H236506   5.838   6.208  13.054  0.0233  0.0365  0.7900
 5031TIP3   OH236507   4.576   5.612   4.386  0.2192  0.2405  0.4630
 5031TIP3    H136508   4.527   5.612   4.468  1.8782 -0.5193  1.4822
 5031TIP3    H236509   4.572   5.703   4.355 -3.3850 -0.1884 -0.4691
 5032TIP3   OH236510   5.848   4.397   5.442  0.0524  0.0339  0.2563
 5032TIP3    H136511   5.822   4.306   5.453 -0.2653  0.1662  0.6031
 5032TIP3    H236512   5.943   4.397   5.454  0.2784 -0.5078 -1.3600
 5033TIP3   OH236513   0.647   3.989  13.942  0.5389 -0.4344  0.6671
 5033TIP3    H136514   0.588   4.058  13.970 -0.5719 -2.6745  4.1415
 5033TIP3    H236515   0.593   3.932  13.887  0.8187  0.1932 -0.2588
 5034TIP3   OH236516   0.806   5.638  11.171 -0.2629 -0.2495 -0.1644
 5034TIP3    H136517   0.750   5.661  11.245 -2.0992 -0.5072 -1.4498
 5034TIP3    H236518   0.888   5.683  11.189 -0.6377 -0.3764  2.0751
 5035TIP3   OH236519   4.581   0.135  15.410  0.1426  0.1347 -0.1604
 5035TIP3    H136520   4.649   0.076  15.441  0.6619  0.5748 -0.4672
 5035TIP3    H236521   4.544   0.092  15.333  1.2760  0.7319 -1.0488
 5036TIP3   OH236522   4.381   5.336  16.194 -0.4584 -0.1980  0.0918
 5036TIP3    H136523   4.392   5.306  16.284 -0.1094 -1.1654 -0.2667
 5036TIP3    H236524   4.333   5.418  16.201  1.4279  0.8300  1.2888
 5037TIP3   OH236525   5.572   2.806  13.353 -0.6439 -0.2955  0.5956
 5037TIP3    H136526   5.506   2.786  13.419 -2.1514  2.3604 -0.0248
 5037TIP3    H236527   5.538   2.771  13.271 -0.7278  0.0305  0.4899
 5038TIP3   OH236528   5.985   0.112  13.928 -0.3635 -0.0114  0.5522
 5038TIP3    H136529   6.040   0.034  13.934 -3.3100 -2.1929  0.4617
 5038TIP3    H236530   5.990   0.139  13.836  2.1878  1.1373  0.9759
 5039TIP3   OH236531   5.314   6.484   4.201  0.1908  0.5107 -0.6083
 5039TIP3    H136532   5.225   6.515   4.185  0.0319  0.7158  0.6177
 5039TIP3    H236533   5.324   6.409   4.143 -0.6243  0.7703 -1.0917
 5040TIP3   OH236534   5.809   3.754  12.565  0.6191 -0.5124 -0.1342
 5040TIP3    H136535   5.862   3.795  12.496 -0.0044  0.6359  0.0637
 5040TIP3    H236536   5.762   3.827  12.606 -1.6257 -1.5463 -0.7367
 5041TIP3   OH236537   2.707   1.799   1.560  0.0662  0.5324  0.4385
 5041TIP3    H136538   2.717   1.885   1.601  1.5971 -0.0504  1.2984
 5041TIP3    H236539   2.739   1.737   1.625 -0.5023 -0.6599 -0.3977
 5042TIP3   OH236540   1.760   3.156   6.103 -0.4294  0.3513  0.2246
 5042TIP3    H136541   1.665   3.148   6.092 -0.2400 -2.5089  0.5122
 5042TIP3    H236542   1.770   3.195   6.190 -1.3374  1.3961 -0.1201
 5043TIP3   OH236543   3.612   4.648   3.676 -0.3662 -0.3779 -0.6093
 5043TIP3    H136544   3.702   4.620   3.664 -0.3050 -0.6612  0.4384
 5043TIP3    H236545   3.569   4.573   3.718 -0.8216  0.1631 -0.0998
 5044TIP3   OH236546   4.078   4.241   4.827  0.1226  0.0761 -0.2391
 5044TIP3    H136547   4.141   4.201   4.768  0.8231 -0.1153  0.6283
 5044TIP3    H236548   4.003   4.183   4.826  0.6937 -0.6743  0.1392
 5045TIP3   OH236549   5.760   2.792  16.797 -0.1708  0.5409 -0.0523
 5045TIP3    H136550   5.776   2.743  16.877  1.8299  1.7331  0.3247
 5045TIP3    H236551   5.836   2.851  16.790 -0.4596  0.6584 -2.6482
 5046TIP3   OH236552   3.391   6.691  11.070 -0.3541 -0.7809 -0.4832
 5046TIP3    H136553   3.307   6.727  11.099  0.6386 -3.0923  6.0645
 5046TIP3    H236554   3.445   6.769  11.051 -1.9774  0.8971  1.5382
 5047TIP3   OH236555   6.520   1.002  11.330 -0.3858  0.5728 -0.6787
 5047TIP3    H136556   6.590   0.956  11.283 -0.6584 -0.6081  0.0554
 5047TIP3    H236557   6.439   0.966  11.294 -0.6024  0.3997 -0.0255
 5048TIP3   OH236558   1.610   3.375  11.715  0.7037 -0.2251 -0.7248
 5048TIP3    H136559   1.615   3.377  11.811  2.3273 -1.3473 -0.7595
 5048TIP3    H236560   1.595   3.283  11.694  1.2220 -0.1248 -1.5744
 5049TIP3   OH236561   2.653   3.784  11.654 -0.5015  0.4257 -0.4494
 5049TIP3    H136562   2.632   3.706  11.705 -2.2818  1.5990  0.6773
 5049TIP3    H236563   2.693   3.750  11.574  0.1037 -1.5578  0.6585
 5050TIP3   OH236564   5.203   6.363  15.240 -0.0786 -0.5278  0.1004
 5050TIP3    H136565   5.240   6.276  15.257  0.9570  0.0062  0.6007
 5050TIP3    H236566   5.109   6.348  15.235  0.1014 -1.7127 -0.0001
 5051TIP3   OH236567   3.158   3.484   3.929  0.1385 -0.5845 -0.4603
 5051TIP3    H136568   3.073   3.442   3.919  0.5847 -1.5099 -0.4192
 5051TIP3    H236569   3.219   3.427   3.882  1.0077 -0.8861  1.0003
 5052TIP3   OH236570   1.153   1.451  16.712  0.1620 -0.3753 -0.5155
 5052TIP3    H136571   1.118   1.424  16.797 -0.2486  0.3234 -0.4568
 5052TIP3    H236572   1.248   1.458  16.726  0.0895 -0.2209 -0.0995
 5053TIP3   OH236573   3.155   0.420  15.884 -0.3036 -0.4971  0.4974
 5053TIP3    H136574   3.243   0.453  15.868  0.3989 -1.6936  1.7168
 5053TIP3    H236575   3.137   0.360  15.811  0.5263 -1.4425  1.0568
 5054TIP3   OH236576   0.635   6.020  12.599  0.3009  0.1773 -0.4638
 5054TIP3    H136577   0.646   5.925  12.597  1.8020  0.3181  0.4519
 5054TIP3    H236578   0.626   6.041  12.693 -3.7904  0.5512 -0.8239
 5055TIP3   OH236579   3.684   4.056  15.149 -0.5690  0.3311 -0.0143
 5055TIP3    H136580   3.690   4.140  15.194 -0.3693  0.2364  0.1334
 5055TIP3    H236581   3.606   4.014  15.186 -0.2041  0.1027  0.4892
 5056TIP3   OH236582   0.226   1.330   1.052 -0.6851 -0.1813 -1.3421
 5056TIP3    H136583   0.236   1.245   1.095 -2.4067  1.3791  2.3921
 5056TIP3    H236584   0.315   1.364   1.046 -0.3355 -0.5323  1.0399
 5057TIP3   OH236585   1.633   0.680   0.662  0.3036 -0.0943 -0.1635
 5057TIP3    H136586   1.636   0.584   0.660 -0.0859 -0.1083 -0.1576
 5057TIP3    H236587   1.557   0.700   0.716  3.2460  0.2471  4.1296
 5058TIP3   OH236588   1.942   2.200   4.089 -0.3531 -0.3529  0.1027
 5058TIP3    H136589   1.851   2.172   4.082 -0.2186 -0.9511  0.7036
 5058TIP3    H236590   1.951   2.231   4.179 -0.2160  0.6359 -0.2386
 5059TIP3   OH236591   0.122   2.777  15.396 -0.1276  0.2929 -0.3200
 5059TIP3    H136592   0.060   2.823  15.453 -0.1995 -1.3256  0.9628
 5059TIP3    H236593   0.079   2.694  15.376 -0.0941  0.8293 -2.7815
 5060TIP3   OH236594   4.497   2.350   4.597  0.6960  0.2405 -0.4881
 5060TIP3    H136595   4.463   2.325   4.511 -2.0116 -0.7149  0.8267
 5060TIP3    H236596   4.504   2.445   4.593 -0.2970  0.2757 -1.4485
 5061TIP3   OH236597   6.770   1.470  17.070 -0.0035 -0.2084 -0.0759
 5061TIP3    H136598   6.815   1.554  17.078 -1.3494  0.5071  0.2394
 5061TIP3    H236599   6.774   1.450  16.976 -0.8743  0.9118 -0.3760
 5062TIP3   OH236600   2.963   2.604  12.946  0.1151 -0.3039  0.6706
 5062TIP3    H136601   3.010   2.521  12.938  0.0469 -0.2898  0.0904
 5062TIP3    H236602   3.004   2.648  13.020  0.6307 -0.5481  0.5340
 5063TIP3   OH236603   2.454   6.154   0.685  0.5810  0.1466 -0.0260
 5063TIP3    H136604   2.431   6.107   0.765 -0.2242  1.0854  0.3019
 5063TIP3    H236605   2.517   6.221   0.713 -0.3437  1.0279 -0.0212
 5064TIP3   OH236606   2.304   2.334  12.502  0.0103 -0.0649  0.4054
 5064TIP3    H136607   2.307   2.252  12.452  0.6635 -1.1827  2.2452
 5064TIP3    H236608   2.367   2.390  12.458  0.8692 -1.1646  0.2064
 5065TIP3   OH236609   1.652   5.760   0.436 -0.0587 -0.3816 -0.1677
 5065TIP3    H136610   1.706   5.683   0.417  0.8801  0.1587  0.2994
 5065TIP3    H236611   1.714   5.833   0.434 -0.7326  0.2056  0.6510
 5066TIP3   OH236612   3.414   4.064  12.657 -0.2098  0.3530 -0.0871
 5066TIP3    H136613   3.337   4.035  12.608 -1.5119  1.3107  1.3377
 5066TIP3    H236614   3.403   4.159  12.665  0.4395  0.3216  1.2590
 5067TIP3   OH236615   5.090   4.166  13.121  0.0991  0.6832 -0.4364
 5067TIP3    H136616   5.183   4.175  13.144 -0.0155  3.0592 -0.7310
 5067TIP3    H236617   5.064   4.254  13.094 -1.9120 -0.2621 -1.6609
 5068TIP3   OH236618   6.235   6.138   1.290  0.0217 -0.4934  0.8230
 5068TIP3    H136619   6.222   6.175   1.202  0.1065  1.5486  1.6359
 5068TIP3    H236620   6.328   6.151   1.307 -0.4653  1.4762  2.2006
 5069TIP3   OH236621   2.574   2.949   4.703 -0.1473 -0.6667  0.0409
 5069TIP3    H136622   2.663   2.933   4.671 -0.5219 -0.8620 -0.9291
 5069TIP3    H236623   2.530   2.864   4.697 -1.0591 -0.1206 -1.6610
 5070TIP3   OH236624   6.400   3.673   0.889 -0.3466  0.5978  0.3483
 5070TIP3    H136625   6.459   3.668   0.964 -1.0678  2.0099  1.0247
 5070TIP3    H236626   6.333   3.607   0.908  0.4187 -0.2692  0.0861
 5071TIP3   OH236627   4.378   6.197  16.042 -0.3810 -0.2633  0.4797
 5071TIP3    H136628   4.309   6.186  16.107  0.5449  0.8285  1.6906
 5071TIP3    H236629   4.458   6.209  16.094  0.8623 -2.2953 -0.8776
 5072TIP3   OH236630   0.577   1.235   4.659 -0.0399 -0.0104 -0.2294
 5072TIP3    H136631   0.567   1.272   4.746 -0.9192 -2.3295  0.6909
 5072TIP3    H236632   0.583   1.311   4.601 -0.2578  1.5507  1.7437
 5073TIP3   OH236633   1.082   3.517  15.306 -0.0637  0.1313 -0.1480
 5073TIP3    H136634   0.998   3.479  15.282 -0.1529  0.5686 -0.5437
 5073TIP3    H236635   1.140   3.442  15.318 -0.9207 -0.2692  1.7590
 5074TIP3   OH236636   4.862   5.955  11.464 -0.5163  0.0455 -0.0210
 5074TIP3    H136637   4.857   6.050  11.467 -0.2743  0.0380  0.5834
 5074TIP3    H236638   4.887   5.935  11.373 -1.6894  0.5003 -0.4477
 5075TIP3   OH236639   1.822   4.852  16.374  0.0653 -0.0759  0.7214
 5075TIP3    H136640   1.820   4.788  16.444  1.9035  0.6263  1.4495
 5075TIP3    H236641   1.877   4.923  16.408 -0.3205  0.9844 -0.8131
 5076TIP3   OH236642   3.581   2.484  13.908 -0.2638  0.5294  0.1173
 5076TIP3    H136643   3.580   2.573  13.871 -1.2492  1.2396  1.8275
 5076TIP3    H236644   3.498   2.445  13.880  1.2061 -0.7576 -2.6917
 5077TIP3   OH236645   4.037   2.785  13.198  0.4604  0.4183 -0.6586
 5077TIP3    H136646   3.952   2.747  13.221  1.1906  1.1451  3.7663
 5077TIP3    H236647   4.017   2.874  13.169 -0.5344 -0.5647 -3.1175
 5078TIP3   OH236648   4.915   3.900  16.524 -0.0787  0.6593 -0.5737
 5078TIP3    H136649   4.841   3.947  16.562  1.7867  0.8614  3.0649
 5078TIP3    H236650   4.898   3.808  16.542  1.3174  0.8328  1.8758
 5079TIP3   OH236651   1.102   6.494  14.443  0.3734  0.2947 -0.7763
 5079TIP3    H136652   1.069   6.574  14.484  1.4311  0.6308 -0.5595
 5079TIP3    H236653   1.194   6.512  14.427  1.0104 -1.4516  0.7288
 5080TIP3   OH236654   0.453   3.252  16.272  0.1882 -0.0934  0.0481
 5080TIP3    H136655   0.419   3.328  16.320  0.0619 -2.2028  3.4518
 5080TIP3    H236656   0.545   3.246  16.298  0.3141 -0.8644 -0.5598
 5081TIP3   OH236657   6.591   0.855  15.212 -0.2492 -0.5561  0.1333
 5081TIP3    H136658   6.516   0.908  15.238  0.2910  0.3174 -0.0620
 5081TIP3    H236659   6.657   0.919  15.184  0.2377 -1.3571 -0.5562
 5082TIP3   OH236660   1.259   2.556  13.842  0.2801 -0.0303  0.1561
 5082TIP3    H136661   1.292   2.486  13.897  2.3802  1.0591  0.3408
 5082TIP3    H236662   1.232   2.625  13.904  1.6135  0.7527 -0.1121
 5083TIP3   OH236663   2.532   2.759  14.018 -0.4537 -0.3280  0.6851
 5083TIP3    H136664   2.582   2.840  14.029  1.0507 -1.0098 -0.9498
 5083TIP3    H236665   2.473   2.778  13.945 -1.1312 -0.2389  1.2468
 5084TIP3   OH236666   4.491   1.285   0.581 -0.2274 -0.0474  0.2042
 5084TIP3    H136667   4.487   1.194   0.550  1.1621  0.0471 -0.2964
 5084TIP3    H236668   4.454   1.336   0.510  1.4626  0.0120 -0.6751
 5085TIP3   OH236669   2.493   5.909  15.839 -0.5207 -0.5196  0.8688
 5085TIP3    H136670   2.463   5.986  15.888 -0.6427 -0.9399  1.4539
 5085TIP3    H236671   2.421   5.846  15.847  0.1030 -1.1540  1.4195
 5086TIP3   OH236672   2.785   0.820   4.088 -0.5061 -0.0513  0.2072
 5086TIP3    H136673   2.812   0.736   4.126 -2.0049 -0.8875 -0.5361
 5086TIP3    H236674   2.705   0.800   4.039 -0.5151  1.6875 -0.5297
 5087TIP3   OH236675   6.036   0.886   2.871 -0.6226 -0.0190  0.0936
 5087TIP3    H136676   5.967   0.926   2.925  0.4965  2.0688  0.0394
 5087TIP3    H236677   5.997   0.879   2.784 -1.3497 -0.4723  0.4482
 5088TIP3   OH236678   1.284   1.583   5.069  0.0842  0.5390 -0.2962
 5088TIP3    H136679   1.250   1.625   5.149  0.7696  1.8379 -0.6789
 5088TIP3    H236680   1.232   1.621   4.999  0.0234 -0.0157 -0.5535
 5089TIP3   OH236681   1.473   2.685   3.109 -0.1360 -0.6965  0.4420
 5089TIP3    H136682   1.546   2.623   3.110  0.2997 -0.2354 -1.0919
 5089TIP3    H236683   1.482   2.734   3.191  1.6239 -0.2811  0.0396
 5090TIP3   OH236684   6.590   4.213  15.577  0.2312  0.0622  0.1918
 5090TIP3    H136685   6.663   4.273  15.565  0.0038  0.5365  1.1923
 5090TIP3    H236686   6.524   4.264  15.623 -0.2422 -0.7364  0.4040
 5091TIP3   OH236687   4.210   4.936  12.122 -0.3255 -0.0289 -0.5738
 5091TIP3    H136688   4.191   4.913  12.213 -0.1030  0.3168 -0.4393
 5091TIP3    H236689   4.134   4.905  12.073  0.8738 -2.9195 -0.6868
 5092TIP3   OH236690   0.718   4.116  15.074  0.8340 -0.3901  0.0203
 5092TIP3    H136691   0.744   4.032  15.037  0.1468 -0.5469 -0.1119
 5092TIP3    H236692   0.681   4.164  14.999  0.4215 -0.3055  0.2755
 5093TIP3   OH236693   2.888   3.127  15.210 -0.0564 -0.3998 -0.4981
 5093TIP3    H136694   2.964   3.185  15.209  0.2356 -0.7175  1.9079
 5093TIP3    H236695   2.920   3.045  15.174 -0.4103  0.7824 -3.6899
 5094TIP3   OH236696   4.299   5.951  15.490  0.1218  0.3347 -0.1673
 5094TIP3    H136697   4.330   6.015  15.427 -1.3906  0.6670 -0.6128
 5094TIP3    H236698   4.260   6.003  15.560  0.3254 -0.0632  0.2455
 5095TIP3   OH236699   5.222   4.683  15.019 -0.1376 -0.1725 -0.4769
 5095TIP3    H136700   5.260   4.770  15.035  2.9901 -1.1652 -1.9978
 5095TIP3    H236701   5.242   4.634  15.099  0.0709 -0.1156 -0.4929
 5096TIP3   OH236702   4.462   3.705   0.619  0.3010 -0.7622  0.1190
 5096TIP3    H136703   4.504   3.726   0.702  0.0476 -1.3829  0.4155
 5096TIP3    H236704   4.519   3.742   0.552  0.2761  0.1303  0.5857
 5097TIP3   OH236705   0.393   0.437  13.765  0.2446 -0.3421  0.0116
 5097TIP3    H136706   0.384   0.366  13.828  2.7844  1.0455  2.0281
 5097TIP3    H236707   0.367   0.516  13.813  3.3200  0.8940 -0.2070
 5098TIP3   OH236708   0.275   1.234   0.048 -0.0424 -0.3660  0.4988
 5098TIP3    H136709   0.334   1.178   0.098  0.2611 -0.2609  0.2587
 5098TIP3    H236710   0.282   1.202  -0.042  1.9140  1.5706 -0.0595
 5099TIP3   OH236711   3.408   0.822  12.810  0.0135 -0.1280  0.5675
 5099TIP3    H136712   3.442   0.899  12.766 -1.2919  0.0310 -0.1855
 5099TIP3    H236713   3.469   0.806  12.882  1.1306  0.6985 -0.1828
 5100TIP3   OH236714   1.979   3.797  14.414 -0.0279  0.3131  0.0156
 5100TIP3    H136715   2.007   3.855  14.484 -0.0493  2.7749 -1.9696
 5100TIP3    H236716   2.060   3.759  14.380  0.1547  0.7449 -0.0306
 5101TIP3   OH236717   4.345   0.937  12.616 -0.8719 -0.5400 -0.0428
 5101TIP3    H136718   4.281   0.918  12.548 -0.7779  1.5999 -0.7728
 5101TIP3    H236719   4.403   1.002  12.577  0.0962 -0.4118  1.5621
 5102TIP3   OH236720   3.694   0.917   2.157 -0.3187 -0.3516 -0.2054
 5102TIP3    H136721   3.771   0.942   2.209 -0.4273  0.6807 -0.5395
 5102TIP3    H236722   3.628   0.894   2.222 -0.6453  1.4926  0.1531
 5103TIP3   OH236723   1.861   0.949  10.758  0.0857 -0.4270 -0.3514
 5103TIP3    H136724   1.896   0.942  10.847 -1.6500  1.4427  0.5158
 5103TIP3    H236725   1.799   0.876  10.751  0.3881 -0.7090 -0.1216
 5104TIP3   OH236726   5.402   3.696   1.400 -0.4423  0.7303  0.5737
 5104TIP3    H136727   5.474   3.678   1.461 -0.5061 -1.7456 -0.0076
 5104TIP3    H236728   5.327   3.715   1.457 -0.5009 -1.5463  1.2999
 5105TIP3   OH236729   2.136   2.161  16.370 -0.6371  0.2422 -0.4331
 5105TIP3    H136730   2.045   2.189  16.383 -0.2659  0.6382  1.3886
 5105TIP3    H236731   2.168   2.143  16.458 -0.1728 -3.7890 -1.2979
 5106TIP3   OH236732   0.866   0.279  13.634  0.2286  0.0611  0.4912
 5106TIP3    H136733   0.861   0.320  13.548 -0.4296  0.9308  0.9311
 5106TIP3    H236734   0.805   0.205  13.630  0.5882 -0.2065  0.0427
 5107TIP3   OH236735   2.302   3.303   6.124  0.4006  0.0334 -0.2465
 5107TIP3    H136736   2.263   3.270   6.204  0.9579 -1.7816 -0.7134
 5107TIP3    H236737   2.277   3.396   6.121 -0.1103 -0.0381  1.7044
 5108TIP3   OH236738   1.296   1.218  14.726 -0.4537  0.5591 -0.1061
 5108TIP3    H136739   1.298   1.123  14.715  0.4705  0.5546  0.0778
 5108TIP3    H236740   1.330   1.253  14.644  0.0822  0.7048  0.1777
 5109TIP3   OH236741   1.606   2.758  15.584 -0.4424 -1.1863  0.7172
 5109TIP3    H136742   1.619   2.664  15.568  1.0838 -1.0191  0.8771
 5109TIP3    H236743   1.573   2.792  15.501 -0.1572 -1.7207  0.3779
 5110TIP3   OH236744   3.484   2.603   1.355  0.0482  0.2040  0.3681
 5110TIP3    H136745   3.524   2.559   1.430  2.9807 -1.1462 -1.9090
 5110TIP3    H236746   3.397   2.562   1.347  1.1431 -2.3011  0.8014
 5111TIP3   OH236747   3.097   0.619   5.549  0.1591 -0.2810 -0.5859
 5111TIP3    H136748   3.098   0.528   5.581 -0.2506  0.3491  1.2593
 5111TIP3    H236749   3.188   0.647   5.555  0.3737 -0.7420 -1.6639
 5112TIP3   OH236750   6.491   6.463  14.219  0.4385 -0.5920 -0.1789
 5112TIP3    H136751   6.415   6.481  14.274  0.6687 -2.0763  0.6548
 5112TIP3    H236752   6.546   6.542  14.227 -0.8405  0.3496 -0.5412
 5113TIP3   OH236753   2.738   2.738   3.820  0.3264 -0.2703 -0.0840
 5113TIP3    H136754   2.828   2.747   3.850  0.5309  0.6171 -0.9376
 5113TIP3    H236755   2.744   2.688   3.738  0.0059 -0.6000  0.0922
 5114TIP3   OH236756   3.809   1.446   4.167 -0.1322 -0.4935  0.3375
 5114TIP3    H136757   3.883   1.425   4.224 -0.7292 -0.8595  0.9946
 5114TIP3    H236758   3.807   1.376   4.102  1.2466  0.5301 -0.8490
 5115TIP3   OH236759   0.785   2.233   4.139 -0.1584  0.4329 -0.4051
 5115TIP3    H136760   0.789   2.327   4.125 -1.3709  0.3578 -1.3419
 5115TIP3    H236761   0.876   2.207   4.154  0.1985  1.7265 -0.2684
 5116TIP3   OH236762   5.483   6.138   2.282  0.4697  0.0458  0.0486
 5116TIP3    H136763   5.404   6.097   2.248  1.5737 -2.5887  0.4871
 5116TIP3    H236764   5.485   6.113   2.375  0.6597  2.0040  0.6046
 5117TIP3   OH236765   4.443   3.336  14.562  0.1299 -0.6790  0.4238
 5117TIP3    H136766   4.434   3.416  14.612 -1.9622  0.2172 -1.3085
 5117TIP3    H236767   4.465   3.365  14.473  0.0928 -2.0466 -0.0468
 5118TIP3   OH236768   2.563   1.736  10.567 -0.3591  0.1009 -0.1970
 5118TIP3    H136769   2.512   1.664  10.530  1.5381 -1.8052  0.7693
 5118TIP3    H236770   2.597   1.701  10.649  1.3290  1.7916 -0.1371
 5119TIP3   OH236771   2.497   5.418   0.020  0.8026 -0.0229  1.0130
 5119TIP3    H136772   2.446   5.346   0.056  0.2965  0.3067  0.9706
 5119TIP3    H236773   2.587   5.386   0.018  0.2138 -1.7225 -1.6669
 5120TIP3   OH236774   5.101   2.687   3.349 -0.0804  0.3810  0.7770
 5120TIP3    H136775   5.079   2.767   3.302 -0.1467  0.1452  0.3974
 5120TIP3    H236776   5.193   2.697   3.372  0.0422  0.3690  0.3152
 5121TIP3   OH236777   4.255   1.565  16.696 -0.4610 -0.1140  0.1210
 5121TIP3    H136778   4.226   1.631  16.759  3.2851  1.4218  0.3718
 5121TIP3    H236779   4.241   1.482  16.740 -0.4866  0.7940  1.8812
 5122TIP3   OH236780   2.395   3.709  13.605 -0.5039 -0.6440 -0.0259
 5122TIP3    H136781   2.438   3.634  13.647  1.2377  0.2686 -0.1420
 5122TIP3    H236782   2.333   3.741  13.671 -1.3478 -2.2403 -0.0169
 5123TIP3   OH236783   4.093   3.249  13.508  0.1093  0.0872  0.0567
 5123TIP3    H136784   4.143   3.316  13.461 -0.3093  0.8961  0.7591
 5123TIP3    H236785   4.015   3.294  13.540  0.6266 -0.3156  1.9584
 5124TIP3   OH236786   4.835   6.068   3.965  0.0140 -0.4110 -0.0659
 5124TIP3    H136787   4.821   6.074   3.870  1.4459 -2.0852 -0.4136
 5124TIP3    H236788   4.748   6.049   4.000 -0.3340 -0.8962 -1.1513
 5125TIP3   OH236789   4.680   4.551   1.743 -0.3177  0.2276  0.1379
 5125TIP3    H136790   4.586   4.533   1.737 -0.3509  0.0114  1.2172
 5125TIP3    H236791   4.686   4.646   1.734 -0.8242  0.4546  2.0139
 5126TIP3   OH236792   3.989   5.738   0.325  0.0182 -0.1812 -1.1587
 5126TIP3    H136793   3.898   5.718   0.301  0.5193 -0.0676 -3.2011
 5126TIP3    H236794   4.031   5.761   0.242  0.9857  3.4623  0.2180
 5127TIP3   OH236795   4.657   5.886  16.232  0.4888 -0.3871  0.0195
 5127TIP3    H136796   4.646   5.805  16.181 -0.9371 -0.2999  0.1929
 5127TIP3    H236797   4.569   5.911  16.258  0.4181  3.5007 -3.5054
 5128TIP3   OH236798   4.300   5.215   0.479 -0.5320  0.1473  0.1832
 5128TIP3    H136799   4.342   5.139   0.519  2.2723  1.7893  0.5029
 5128TIP3    H236800   4.242   5.179   0.412  1.2041 -2.2409 -0.0765
 5129TIP3   OH236801   3.807   4.829   5.174 -0.0532 -0.1152  0.6525
 5129TIP3    H136802   3.822   4.899   5.237 -0.1162 -0.3433  0.9193
 5129TIP3    H236803   3.888   4.825   5.123 -0.2284  0.4752  0.3216
 5130TIP3   OH236804   2.205   5.728  14.001  0.0304 -0.5529 -0.1079
 5130TIP3    H136805   2.236   5.818  14.012 -1.6378 -0.2549  2.2555
 5130TIP3    H236806   2.270   5.675  14.047  1.0229 -0.5908 -1.5141
 5131TIP3   OH236807   3.350   4.276  11.748 -0.5194  0.0858 -0.2137
 5131TIP3    H136808   3.336   4.185  11.724  0.6150 -0.4585  1.1337
 5131TIP3    H236809   3.429   4.302  11.700 -1.3048  0.6255 -1.2435
 5132TIP3   OH236810   0.409   4.487  10.841  0.6232 -0.0233  0.1896
 5132TIP3    H136811   0.367   4.403  10.855 -1.1777  0.6961 -0.7482
 5132TIP3    H236812   0.480   4.489  10.905 -1.0860 -1.0483  2.1733
 5133TIP3   OH236813   2.520   2.181   0.395  0.4009 -0.4621 -0.2363
 5133TIP3    H136814   2.517   2.273   0.368 -0.3178 -0.6323 -0.7680
 5133TIP3    H236815   2.611   2.155   0.383  0.4874  0.0194 -0.6325
 5134TIP3   OH236816   0.411   2.332   6.731 -0.4130 -0.1487 -1.0954
 5134TIP3    H136817   0.472   2.330   6.658  0.0066  0.6776 -0.7840
 5134TIP3    H236818   0.467   2.334   6.809 -0.8371  0.0327 -0.7880
 5135TIP3   OH236819   6.088   3.598   0.853  0.8744  0.1193 -0.5987
 5135TIP3    H136820   6.031   3.530   0.817 -1.4150  2.2396 -1.1677
 5135TIP3    H236821   6.103   3.572   0.943 -1.1327 -0.4696 -0.4069
 5136TIP3   OH236822   5.542   1.018  12.175 -0.1923 -0.5511 -0.0088
 5136TIP3    H136823   5.584   1.102  12.160 -1.4634  0.0811 -0.0622
 5136TIP3    H236824   5.582   0.985  12.256  0.2038  0.1633  0.0836
 5137TIP3   OH236825   0.538   2.344   0.577  0.1621 -0.5478 -0.7497
 5137TIP3    H136826   0.549   2.427   0.532  2.3389 -1.2132 -1.5152
 5137TIP3    H236827   0.515   2.282   0.508 -0.7353 -0.7440 -0.2861
 5138TIP3   OH236828   0.619   4.582  11.274 -0.4178 -0.4191 -0.2649
 5138TIP3    H136829   0.702   4.546  11.304  0.5323  1.2386 -0.8621
 5138TIP3    H236830   0.635   4.610  11.184 -2.1787 -1.8363 -1.0681
 5139TIP3   OH236831   4.571   2.108  12.825  0.3400  0.0369  0.3751
 5139TIP3    H136832   4.526   2.122  12.742  0.4317  1.8990  0.6197
 5139TIP3    H236833   4.661   2.138  12.809  0.9802 -1.7955  0.4669
 5140TIP3   OH236834   1.897   6.671  11.993  0.6247  0.6392  0.4176
 5140TIP3    H136835   1.899   6.577  12.010  1.5117  0.5784  0.0153
 5140TIP3    H236836   1.941   6.711  12.068 -2.6152  0.9985  2.1871
 5141TIP3   OH236837   0.697   3.793   1.788  0.0190 -0.2734  0.0933
 5141TIP3    H136838   0.622   3.769   1.734 -0.1619  0.2348  0.1190
 5141TIP3    H236839   0.759   3.832   1.726 -0.8852  1.8829  0.5141
 5142TIP3   OH236840   3.279   0.846   0.531  0.1210 -0.5013  0.3099
 5142TIP3    H136841   3.189   0.849   0.566  0.4370 -0.8459  1.1657
 5142TIP3    H236842   3.276   0.776   0.465 -0.2722 -0.4269  0.2450
 5143TIP3   OH236843   5.880   5.836  16.584 -0.0497 -0.2196 -0.1250
 5143TIP3    H136844   5.786   5.844  16.601  0.1258  0.2252  0.6533
 5143TIP3    H236845   5.899   5.743  16.597 -0.7102 -0.6399 -2.0082
 5144TIP3   OH236846   3.996   0.273   5.576 -0.2916 -0.7388  0.0524
 5144TIP3    H136847   4.043   0.290   5.658  0.2974 -0.2479 -0.3841
 5144TIP3    H236848   4.065   0.263   5.510 -0.8351  1.0947 -0.8034
 5145TIP3   OH236849   0.543   0.284   4.699  0.5493 -0.4479 -0.3087
 5145TIP3    H136850   0.564   0.194   4.674 -0.9820 -0.2184 -2.6224
 5145TIP3    H236851   0.450   0.293   4.681  0.5956  1.5006  0.2520
 5146TIP3   OH236852   0.679   0.891  16.441 -0.3283  0.4469 -0.1792
 5146TIP3    H136853   0.633   0.813  16.409  0.7492  0.5120 -1.9862
 5146TIP3    H236854   0.720   0.928  16.363  2.6509  0.4713  1.3208
 5147TIP3   OH236855   4.566   1.088  15.530 -0.2631 -0.3506 -0.1034
 5147TIP3    H136856   4.589   1.002  15.496 -2.6396 -0.7811 -0.6684
 5147TIP3    H236857   4.609   1.149  15.469  1.6272 -1.0852  0.4350
 5148TIP3   OH236858   3.749   6.050   0.247 -0.4886  0.0648 -0.1938
 5148TIP3    H136859   3.720   6.113   0.181  0.0007  1.7347  1.1435
 5148TIP3    H236860   3.673   6.037   0.303  0.3616  2.0273  1.4655
 5149TIP3   OH236861   5.312   6.299   5.944 -0.3039 -0.1389  0.0578
 5149TIP3    H136862   5.390   6.283   5.997 -0.6633  0.2056  0.6992
 5149TIP3    H236863   5.256   6.353   6.000  0.2449  2.0985 -1.4915
 5150TIP3   OH236864   3.920   1.264  16.338 -0.0980  0.1750 -0.2346
 5150TIP3    H136865   3.951   1.350  16.309  0.1796 -0.0559 -0.6302
 5150TIP3    H236866   3.975   1.244  16.414 -0.7616  0.7381  0.4007
 5151TIP3   OH236867   3.796   3.400   3.649  0.1762  0.1016 -0.1612
 5151TIP3    H136868   3.827   3.366   3.566  1.9216 -0.2590  0.6195
 5151TIP3    H236869   3.852   3.476   3.667 -1.2460  1.1621 -0.0884
 5152TIP3   OH236870   3.685   5.650  12.352  0.0485  0.2965  0.0879
 5152TIP3    H136871   3.606   5.600  12.330  0.1583 -0.7269  1.8842
 5152TIP3    H236872   3.653   5.735  12.380 -0.3204  0.4183 -0.7180
 5153TIP3   OH236873   1.870   3.208   5.845  0.2705 -0.5818  0.4651
 5153TIP3    H136874   1.836   3.203   5.934  0.2479 -0.0542  0.4901
 5153TIP3    H236875   1.801   3.252   5.795  0.4193 -0.5780  0.2615
 5154TIP3   OH236876   3.760   2.491   3.324  0.2699  0.2145  0.7055
 5154TIP3    H136877   3.845   2.477   3.367  1.5651  0.7130 -1.5870
 5154TIP3    H236878   3.748   2.586   3.326 -1.0662  0.0110  2.5437
 5155TIP3   OH236879   6.476   1.368  12.044 -0.0455 -0.4538  0.0916
 5155TIP3    H136880   6.384   1.394  12.046  0.1027  0.1467 -0.7717
 5155TIP3    H236881   6.474   1.272  12.039 -0.6112 -0.4772  0.6092
 5156TIP3   OH236882   5.198   5.704  16.636 -0.1872  0.4478 -0.0763
 5156TIP3    H136883   5.175   5.683  16.545 -0.6872  0.9132 -0.0620
 5156TIP3    H236884   5.204   5.619  16.679  0.8778  0.1780 -0.7425
 5157TIP3   OH236885   2.394   4.429   5.152  0.5095  0.1921 -0.1785
 5157TIP3    H136886   2.424   4.355   5.204  1.0058  0.3777 -0.1988
 5157TIP3    H236887   2.364   4.390   5.069  1.7962  0.1236 -0.6219
 5158TIP3   OH236888   3.546   2.668   4.998  0.7798 -0.2811 -0.5298
 5158TIP3    H136889   3.617   2.645   4.938  1.1193 -1.8525  0.4682
 5158TIP3    H236890   3.466   2.658   4.945  1.1069 -1.2037 -0.8542
 5159TIP3   OH236891   4.886   1.487   4.455 -0.1948 -0.5541  0.0540
 5159TIP3    H136892   4.876   1.397   4.484  2.7524 -1.2059 -0.7299
 5159TIP3    H236893   4.980   1.496   4.435 -0.2782  2.8877  0.8024
 5160TIP3   OH236894   6.254   1.522   2.901 -0.2249 -0.3707 -0.1392
 5160TIP3    H136895   6.298   1.607   2.909 -2.8041  1.0320 -0.3954
 5160TIP3    H236896   6.263   1.483   2.988  1.2729 -0.0145 -0.1121
 5161TIP3   OH236897   4.817   6.328  12.918  0.1615  0.6959 -0.0294
 5161TIP3    H136898   4.740   6.377  12.947 -1.3147 -2.6098  2.0056
 5161TIP3    H236899   4.833   6.358  12.828 -2.4565  2.6626  0.1040
 5162TIP3   OH236900   1.862   5.256   4.112  0.7782  0.4358 -0.5194
 5162TIP3    H136901   1.839   5.347   4.135  1.2580  0.0450  1.5451
 5162TIP3    H236902   1.782   5.222   4.071 -0.7078  0.6352  2.1039
 5163TIP3   OH236903   0.551   5.642  12.658 -0.0867  0.3620  0.1022
 5163TIP3    H136904   0.564   5.576  12.590 -1.5728  0.2012 -0.0348
 5163TIP3    H236905   0.507   5.714  12.612  1.2544  1.3376  0.3106
 5164TIP3   OH236906   0.457   5.620   5.137  0.1804 -0.0413 -0.4548
 5164TIP3    H136907   0.470   5.667   5.220  0.5943  1.4117 -1.3336
 5164TIP3    H236908   0.424   5.686   5.077  1.0153 -0.8129 -1.7833
 5165TIP3   OH236909   1.846   1.338   3.208  0.4973 -0.9584  0.2488
 5165TIP3    H136910   1.903   1.364   3.280 -0.5001 -1.4289  1.2267
 5165TIP3    H236911   1.851   1.410   3.146  0.1161  0.1845  1.5259
 5166TIP3   OH236912   2.588   4.858  14.642 -0.2661  0.5370 -0.6003
 5166TIP3    H136913   2.568   4.951  14.647 -1.0975  0.3566 -0.4559
 5166TIP3    H236914   2.517   4.821  14.588 -1.4609 -0.4371  1.5552
 5167TIP3   OH236915   4.624   4.640   4.209  0.0424 -0.4168  0.1911
 5167TIP3    H136916   4.550   4.675   4.259  0.3887 -3.9953  3.4072
 5167TIP3    H236917   4.701   4.675   4.252  0.2920 -0.7338  0.0049
 5168TIP3   OH236918   1.497   3.725   5.585  0.4787 -1.3612  0.7426
 5168TIP3    H136919   1.585   3.746   5.618  0.8375 -2.7273  0.6953
 5168TIP3    H236920   1.512   3.700   5.494  0.3362 -3.5283  1.2791
 5169TIP3   OH236921   1.091   0.849   4.361 -0.9132 -0.0109 -0.3663
 5169TIP3    H136922   1.118   0.898   4.283 -1.0475  1.6921  0.6364
 5169TIP3    H236923   1.174   0.822   4.401 -0.7267  2.0492  0.7187
 5170TIP3   OH236924   3.380   5.169   1.312 -0.0785  0.3966  0.1987
 5170TIP3    H136925   3.313   5.191   1.248  0.6344 -0.3023 -0.7986
 5170TIP3    H236926   3.353   5.084   1.348 -0.3000  0.6293  0.5885
 5171TIP3   OH236927   0.125   3.344  16.368 -0.3120  0.2636 -0.4798
 5171TIP3    H136928   0.147   3.268  16.314 -0.2291  0.2731 -0.4603
 5171TIP3    H236929   0.152   3.319  16.456  0.4996  0.6412 -0.6148
 5172TIP3   OH236930   0.574   3.528  11.852  0.8528  0.1372 -0.4636
 5172TIP3    H136931   0.554   3.439  11.823  0.4545  0.5656 -1.5362
 5172TIP3    H236932   0.506   3.548  11.917  0.7919 -0.2436 -0.4089
 5173TIP3   OH236933   0.811   0.809  12.678 -0.2523  0.5299  1.0055
 5173TIP3    H136934   0.873   0.818  12.750 -2.1487  0.6262  2.6818
 5173TIP3    H236935   0.835   0.879  12.617  1.2954  0.5344  1.5989
 5174TIP3   OH236936   3.193   0.021   1.140 -0.0325 -0.4123  0.2771
 5174TIP3    H136937   3.257   0.092   1.131 -1.3659  0.7265 -0.5202
 5174TIP3    H236938   3.223  -0.046   1.079  0.8063 -0.2053  0.4561
 5175TIP3   OH236939   1.450   3.176   0.383  0.0476  0.1223 -0.0744
 5175TIP3    H136940   1.408   3.183   0.297 -0.8300  0.7194  0.3973
 5175TIP3    H236941   1.505   3.098   0.376 -0.9465 -0.5314 -0.7884
 5176TIP3   OH236942   3.210   1.963  11.871  0.3426  0.0720 -0.4210
 5176TIP3    H136943   3.198   1.901  11.943 -0.1323 -0.1804 -0.7134
 5176TIP3    H236944   3.130   2.016  11.872  0.9077  0.9324  0.0674
 5177TIP3   OH236945   1.336   3.206  11.925 -0.3020  0.1072 -1.0018
 5177TIP3    H136946   1.431   3.202  11.912 -0.5504 -1.1723 -2.5444
 5177TIP3    H236947   1.326   3.246  12.011  1.6889 -1.2638 -0.0757
 5178TIP3   OH236948   0.414   4.061   4.877 -0.9109 -0.1565  0.3434
 5178TIP3    H136949   0.472   4.002   4.926  0.5891 -0.2273 -1.4481
 5178TIP3    H236950   0.401   4.017   4.793 -3.8267 -0.2609  0.8062
 5179TIP3   OH236951   0.852   4.126   3.268  0.2000 -0.3324 -0.5565
 5179TIP3    H136952   0.878   4.055   3.209  2.7299  0.0741 -0.0060
 5179TIP3    H236953   0.935   4.170   3.291 -1.1517  1.8784  0.2748
 5180TIP3   OH236954   0.158   6.373   3.459 -0.4653  0.4858  0.2184
 5180TIP3    H136955   0.123   6.345   3.544 -2.4258 -1.2073 -1.1026
 5180TIP3    H236956   0.251   6.349   3.462 -0.7315 -0.4395  1.5198
 5181TIP3   OH236957   3.763   3.488  10.608 -0.3433  0.7517 -0.5693
 5181TIP3    H136958   3.821   3.555  10.572  0.0987 -0.0583 -1.4099
 5181TIP3    H236959   3.755   3.424  10.537  0.2702 -0.7290  0.6709
 5182TIP3   OH236960   1.920   0.000   1.457  0.1383 -0.6709  0.2617
 5182TIP3    H136961   1.968   0.049   1.390 -1.2040 -0.0619 -0.2726
 5182TIP3    H236962   1.891   0.067   1.520  0.7344 -1.1420  1.0383
 5183TIP3   OH236963   1.638   5.767  16.072  0.1376 -0.1958 -0.7744
 5183TIP3    H136964   1.589   5.685  16.064  1.6349 -1.3313  1.3146
 5183TIP3    H236965   1.711   5.758  16.011  0.4437 -0.5417 -0.3608
 5184TIP3   OH236966   6.046   3.248  14.743  0.0607 -0.0898 -0.6644
 5184TIP3    H136967   6.033   3.332  14.786 -2.1630 -0.8368  0.2063
 5184TIP3    H236968   6.045   3.269  14.649  0.7575  1.0042 -0.4280
 5185TIP3   OH236969   1.593   1.312   2.550 -0.3733  0.4545 -0.4247
 5185TIP3    H136970   1.544   1.371   2.493  1.2525  1.6454 -0.6161
 5185TIP3    H236971   1.643   1.371   2.607  0.8834 -0.7497 -0.2788
 5186TIP3   OH236972   5.754   6.682  13.646 -0.1056 -0.1611 -0.1039
 5186TIP3    H136973   5.748   6.696  13.740 -0.1119  0.2141 -0.1616
 5186TIP3    H236974   5.824   6.618  13.636  1.2912  1.3311  0.0138
 5187TIP3   OH236975   1.502   5.004  14.801 -0.3396  0.5482  0.2972
 5187TIP3    H136976   1.526   4.937  14.737 -0.5912 -0.2612  1.0475
 5187TIP3    H236977   1.483   5.082  14.748  0.1487  0.0887 -0.5615
 5188TIP3   OH236978   0.820   5.622  10.906  0.1362  0.6825 -0.0874
 5188TIP3    H136979   0.799   5.616  10.999  0.6370  1.1103  0.0559
 5188TIP3    H236980   0.874   5.546  10.889  1.7761  1.7062  0.4474
 5189TIP3   OH236981   1.873   5.169  11.722 -0.0383 -0.4912  0.4308
 5189TIP3    H136982   1.783   5.168  11.752 -0.8034 -0.3562 -1.7611
 5189TIP3    H236983   1.892   5.261  11.703 -0.5261 -0.8746 -2.1360
 5190TIP3   OH236984   4.089   3.774  13.221 -0.4655  0.0708  0.5216
 5190TIP3    H136985   4.099   3.748  13.130 -0.0577  0.5590  0.4206
 5190TIP3    H236986   4.090   3.870  13.219 -0.0396  0.0815  1.0793
 5191TIP3   OH236987   0.562   4.241  13.604  0.2515  0.1179  0.0108
 5191TIP3    H136988   0.510   4.165  13.630  1.7402 -0.8132  0.3498
 5191TIP3    H236989   0.542   4.253  13.512 -0.3197 -0.4360  0.0545
 5192TIP3   OH236990   6.274   4.648  11.762 -0.7457  0.0468 -0.5864
 5192TIP3    H136991   6.319   4.732  11.752 -0.0620 -0.2159  0.2563
 5192TIP3    H236992   6.216   4.643  11.686 -0.1697  0.8986 -1.0898
 5193TIP3   OH236993   3.014   6.720  15.526 -0.3824 -0.0894 -0.5048
 5193TIP3    H136994   2.983   6.646  15.579  0.4360  1.0951  1.6837
 5193TIP3    H236995   2.934   6.764  15.498 -0.8793 -1.7104 -1.7766
 5194TIP3   OH236996   0.653   4.478   2.245 -0.1637  0.4093 -0.2541
 5194TIP3    H136997   0.729   4.520   2.286 -0.5574  2.1513 -1.2352
 5194TIP3    H236998   0.636   4.532   2.167 -1.9896 -0.3551 -0.4021
 5195TIP3   OH236999   3.418   1.862  12.654 -0.0950  0.0911  0.4914
 5195TIP3    H137000   3.387   1.773  12.670 -1.4437  0.1691 -1.4456
 5195TIP3    H237001   3.506   1.851  12.619  0.2304 -0.4053  1.4624
 5196TIP3   OH237002   3.827   6.369  14.462 -0.4301  0.1134  0.1742
 5196TIP3    H137003   3.774   6.291  14.443  0.3558 -0.0570 -1.4243
 5196TIP3    H237004   3.917   6.338  14.460 -0.2201  0.3991  2.9160
 5197TIP3   OH237005   5.510   3.127  10.755  0.2572  0.2211 -0.2564
 5197TIP3    H137006   5.529   3.038  10.725  0.2861  0.4048 -0.7983
 5197TIP3    H237007   5.414   3.130  10.757  0.2480  0.3718 -0.8411
 5198TIP3   OH237008   2.642   5.173  14.298  0.4843 -0.8009  0.3416
 5198TIP3    H137009   2.701   5.152  14.370  0.4540 -0.2321  0.5353
 5198TIP3    H237010   2.698   5.172  14.220  1.0567  1.1253  0.6990
 5199TIP3   OH237011   0.826   3.553   2.934 -0.1061 -0.9229  0.0456
 5199TIP3    H137012   0.890   3.538   2.864 -1.5258  2.7029 -2.1653
 5199TIP3    H237013   0.805   3.646   2.927 -2.6050 -1.1587  3.3686
 5200TIP3   OH237014   6.613   2.222   1.350  0.0964  0.0123  0.4110
 5200TIP3    H137015   6.574   2.309   1.359 -0.8649 -0.3407 -0.1956
 5200TIP3    H237016   6.707   2.237   1.356 -0.1004  0.9539  1.3898
 5201TIP3   OH237017   2.947   2.286   3.590 -0.0721  0.5633 -0.6793
 5201TIP3    H137018   2.938   2.201   3.633 -4.2359  1.5409  0.6133
 5201TIP3    H237019   2.932   2.267   3.497  0.1278 -0.2755 -0.5415
 5202TIP3   OH237020   4.007   5.751   2.376  0.3310  0.0796 -0.2472
 5202TIP3    H137021   4.068   5.677   2.373  1.5059  1.0378 -0.2015
 5202TIP3    H237022   3.946   5.735   2.304  2.3009  0.5336 -2.0436
 5203TIP3   OH237023   0.540   1.016  15.690 -0.5676 -1.0416 -0.2261
 5203TIP3    H137024   0.519   0.927  15.720 -0.6880 -1.1272 -0.5621
 5203TIP3    H237025   0.552   1.007  15.595  2.5141 -1.3039  0.1446
 5204TIP3   OH237026   3.199   3.264  15.020 -0.8561  0.0744  0.3748
 5204TIP3    H137027   3.207   3.250  15.114 -0.5482 -0.6093  0.2496
 5204TIP3    H237028   3.208   3.359  15.009  0.1338  0.0519  0.9289
 5205TIP3   OH237029   4.444   4.090  12.648 -0.2618 -0.1562 -0.5973
 5205TIP3    H137030   4.532   4.090  12.685 -0.6605 -0.7012  0.3554
 5205TIP3    H237031   4.423   4.183  12.636 -0.0634  0.0199  0.3746
 5206TIP3   OH237032   4.057   0.512   0.773  0.1590 -0.4378  0.3397
 5206TIP3    H137033   4.147   0.486   0.755 -0.0380 -1.8838  1.3250
 5206TIP3    H237034   4.059   0.544   0.863  0.1296  1.7723 -0.4192
 5207TIP3   OH237035   3.419   6.641   1.678  0.0322  0.1743 -0.1342
 5207TIP3    H137036   3.438   6.569   1.738 -0.8558 -1.6504 -1.9885
 5207TIP3    H237037   3.445   6.720   1.726  1.7194 -1.4182  1.6489
 5208TIP3   OH237038   0.496   1.004  13.831  0.6308  0.9401  0.3474
 5208TIP3    H137039   0.508   1.098  13.817 -0.6186  1.2270  1.1963
 5208TIP3    H237040   0.486   0.969  13.742  1.2033  1.5778  0.0167
 5209TIP3   OH237041   3.422   0.327  14.796  0.4748 -0.2034 -0.4802
 5209TIP3    H137042   3.427   0.344  14.702  0.8057 -0.0779 -0.4396
 5209TIP3    H237043   3.451   0.237  14.807 -1.9483 -1.0683 -0.7745
 5210TIP3   OH237044   1.399   3.118   3.632  0.2892 -0.4961  0.8980
 5210TIP3    H137045   1.483   3.073   3.637  1.2524  1.2681  1.0734
 5210TIP3    H237046   1.364   3.115   3.721  0.6309 -0.3442  1.0353
 5211TIP3   OH237047   0.649   2.283   1.191  0.2141  0.1054  0.1395
 5211TIP3    H137048   0.585   2.213   1.172 -0.4653 -0.0295  2.7875
 5211TIP3    H237049   0.597   2.363   1.190  0.4185  0.2360  0.1512
 5212TIP3   OH237050   0.537   4.513  12.342  0.1356  0.0016  0.2325
 5212TIP3    H137051   0.578   4.477  12.420  0.3563 -0.7997 -0.2455
 5212TIP3    H237052   0.573   4.602  12.335  1.2824 -0.4594  0.1937
 5213TIP3   OH237053   3.908   4.312  15.351 -0.0882  0.3673 -0.1321
 5213TIP3    H137054   3.928   4.218  15.354  0.7736  0.5574  0.1550
 5213TIP3    H237055   3.903   4.339  15.443 -1.4805  0.3778 -0.1874
 5214TIP3   OH237056   2.556   1.172  16.540 -0.3121 -0.0320 -0.0479
 5214TIP3    H137057   2.505   1.100  16.577  1.1920 -0.9336  0.3187
 5214TIP3    H237058   2.518   1.187  16.454 -1.4145 -0.4441  0.3554
 5215TIP3   OH237059   6.658   2.506   2.572 -0.0169 -0.1878 -0.3521
 5215TIP3    H137060   6.739   2.506   2.522  0.6122 -1.8583  0.6253
 5215TIP3    H237061   6.600   2.448   2.523  0.2180 -0.9386  0.2587
 5216TIP3   OH237062   0.462   2.399  13.176 -0.1675  0.0678 -0.3491
 5216TIP3    H137063   0.370   2.415  13.196 -0.1599  1.5899 -1.3754
 5216TIP3    H237064   0.510   2.439  13.248 -0.2756  1.0953 -0.8287
 5217TIP3   OH237065   5.334   4.741  11.977 -0.6172  0.6980 -0.2500
 5217TIP3    H137066   5.264   4.791  12.019  0.2290  0.2312  1.8240
 5217TIP3    H237067   5.370   4.799  11.910 -1.0724  2.0423  0.6551
 5218TIP3   OH237068   3.813   0.761  14.009 -0.3751 -0.2833 -0.1175
 5218TIP3    H137069   3.729   0.744  14.052  0.4851  2.4733  2.8179
 5218TIP3    H237070   3.810   0.854  13.986  2.3663  0.1581  1.1821
 5219TIP3   OH237071   5.324   2.373  16.922 -0.0009 -0.1503  0.5072
 5219TIP3    H137072   5.264   2.396  16.993  0.1396 -0.4459  0.7190
 5219TIP3    H237073   5.408   2.411  16.948 -0.3590  1.2364 -0.3249
 5220TIP3   OH237074   1.850   1.847  13.065 -0.0336  0.0465  0.1185
 5220TIP3    H137075   1.859   1.769  13.119 -0.1943 -0.6169 -0.8118
 5220TIP3    H237076   1.814   1.816  12.982 -1.4160  1.2966  0.2237
 5221TIP3   OH237077   6.335   3.921  17.071 -0.5259 -0.3991  0.3053
 5221TIP3    H137078   6.251   3.966  17.083 -1.2179 -0.8001 -2.5233
 5221TIP3    H237079   6.335   3.853  17.139 -4.4257 -3.0271 -2.0886
 5222TIP3   OH237080   5.599   3.573   2.078  0.3282 -0.3169  0.4338
 5222TIP3    H137081   5.669   3.512   2.102  1.1070  0.3820 -0.0480
 5222TIP3    H237082   5.635   3.660   2.095 -0.3154  0.0604 -0.1052
 5223TIP3   OH237083   6.279   5.799   0.611 -0.5772  0.2314  0.1876
 5223TIP3    H137084   6.341   5.764   0.548 -1.0758  1.0937 -0.8134
 5223TIP3    H237085   6.193   5.786   0.570 -1.1360 -1.7626  1.9488
 5224TIP3   OH237086   5.529   1.368   1.115  0.4618  0.1033 -0.5909
 5224TIP3    H137087   5.584   1.333   1.045  1.3956  2.5379 -1.1393
 5224TIP3    H237088   5.495   1.450   1.080 -1.4489 -0.0889  0.7287
 5225TIP3   OH237089   6.782   5.558  14.822  0.0987 -0.2041 -0.1840
 5225TIP3    H137090   6.843   5.619  14.781 -0.7989  1.1831  0.5228
 5225TIP3    H237091   6.838   5.494  14.867  1.0362 -0.0365 -1.1036
 5226TIP3   OH237092   2.724   0.388  13.149  0.4523  0.1295 -0.0689
 5226TIP3    H137093   2.664   0.420  13.082  0.3654 -0.2750 -0.1838
 5226TIP3    H237094   2.708   0.294  13.153  0.2963  0.1820  0.6785
 5227TIP3   OH237095   0.371   0.980  14.649 -0.3915  0.2134  0.2033
 5227TIP3    H137096   0.398   1.064  14.611  1.1668  0.2226  1.2949
 5227TIP3    H237097   0.393   0.987  14.741 -2.0236 -0.6854  0.6779
 5228TIP3   OH237098   5.504   6.623  12.220  0.4654  0.7975 -0.0313
 5228TIP3    H137099   5.495   6.669  12.137 -1.3310 -1.6385 -1.2578
 5228TIP3    H237100   5.593   6.642  12.249  1.0337  1.8845 -2.3877
 5229TIP3   OH237101   4.860   6.071  14.798 -0.0700  0.6973  0.1088
 5229TIP3    H137102   4.840   6.079  14.892 -0.1599 -0.6648  0.2180
 5229TIP3    H237103   4.852   6.160  14.764  0.9129  1.3686  1.5788
 5230TIP3   OH237104   3.933   3.752  14.975  0.2112  0.3473  0.5431
 5230TIP3    H137105   3.842   3.736  14.949 -0.0945  2.1143  0.4610
 5230TIP3    H237106   3.933   3.842  15.008  1.8163  0.1553  1.1112
 5231TIP3   OH237107   2.051   4.984   1.464 -0.0600  0.6101 -0.1895
 5231TIP3    H137108   2.013   4.901   1.494 -0.9239  0.5697 -1.3844
 5231TIP3    H237109   2.010   5.050   1.519  0.0825  0.3290  0.2659
 5232TIP3   OH237110   3.420   6.624  14.351  0.4123 -0.3576 -0.1187
 5232TIP3    H137111   3.337   6.582  14.370  1.3738 -1.5920  1.4133
 5232TIP3    H237112   3.483   6.584  14.411  1.9229  1.2535 -0.5565
 5233TIP3   OH237113   0.353   2.148   2.738 -0.0342  0.0980 -0.0747
 5233TIP3    H137114   0.339   2.105   2.654 -0.0552 -2.1109  1.0258
 5233TIP3    H237115   0.281   2.210   2.745  0.2975  0.7179 -1.9355
 5234TIP3   OH237116   6.412   6.167   2.676 -0.1637  0.8558 -0.1262
 5234TIP3    H137117   6.459   6.085   2.661 -1.7015  0.0889 -0.8910
 5234TIP3    H237118   6.338   6.163   2.615 -1.5235  1.7669  1.4348
 5235TIP3   OH237119   6.590   5.834  11.926 -0.3077  0.2371  0.4376
 5235TIP3    H137120   6.500   5.849  11.898  0.3472  2.8633 -0.4216
 5235TIP3    H237121   6.613   5.913  11.974  1.2574 -0.8053  1.4505
 5236TIP3   OH237122   5.547   0.473   0.725  0.4374 -0.1880 -0.3818
 5236TIP3    H137123   5.529   0.542   0.661 -1.6303 -1.0018 -0.6955
 5236TIP3    H237124   5.579   0.399   0.673  0.4908 -0.2319 -0.2875
 5237TIP3   OH237125   1.106   2.937  13.436  0.5531  0.7154 -0.0470
 5237TIP3    H137126   1.145   2.919  13.521  0.7052 -0.9736 -0.4519
 5237TIP3    H237127   1.012   2.944  13.454  0.2164 -2.5597 -0.1063
 5238TIP3   OH237128   5.164   2.148   2.750 -0.0256 -0.5000  0.5287
 5238TIP3    H137129   5.158   2.149   2.846 -1.1248 -0.8465  0.4636
 5238TIP3    H237130   5.246   2.101   2.732 -0.1837 -1.0678  1.2736
 5239TIP3   OH237131   2.896   0.832  15.519  0.3113  0.3698 -0.2773
 5239TIP3    H137132   2.971   0.876  15.478  0.5028  0.0369 -0.2870
 5239TIP3    H237133   2.852   0.787  15.447  1.4814 -1.4301  0.0711
 5240TIP3   OH237134   5.623   5.841  15.641 -0.3015 -0.0766  0.1016
 5240TIP3    H137135   5.655   5.895  15.569 -1.2004  0.5358  0.1554
 5240TIP3    H237136   5.661   5.755  15.626  0.3689  0.3307 -0.5162
 5241TIP3   OH237137   6.399   1.355   1.617  0.1804  0.2192  0.5276
 5241TIP3    H137138   6.397   1.261   1.634  0.0783  0.0538 -0.3613
 5241TIP3    H237139   6.492   1.378   1.616  0.2825 -0.2210 -1.0605
 5242TIP3   OH237140   1.436   2.965   0.687 -0.0967  0.0889  0.2825
 5242TIP3    H137141   1.489   3.043   0.701  0.2235 -0.4576  2.2870
 5242TIP3    H237142   1.366   2.994   0.628  0.5060  1.6499  0.3014
 5243TIP3   OH237143   6.023   3.535   5.228  0.0536 -0.0541  0.2993
 5243TIP3    H137144   6.073   3.535   5.146 -1.8278  0.9275 -0.8804
 5243TIP3    H237145   6.042   3.620   5.267 -0.3612  0.1546  0.0507
 5244TIP3   OH237146   5.344   1.544   2.702  0.2475 -0.0883 -0.0670
 5244TIP3    H137147   5.328   1.452   2.718  0.8097 -0.1192  0.3340
 5244TIP3    H237148   5.259   1.580   2.675  0.3251 -1.0096 -1.6164
 5245TIP3   OH237149   2.369   3.945  15.987  0.3170  0.2539  0.5699
 5245TIP3    H137150   2.370   4.041  15.980  0.9810  0.2724  0.9510
 5245TIP3    H237151   2.438   3.924  16.049 -0.0787 -0.4554  0.7792
 5246TIP3   OH237152   1.400   5.898   1.940  0.4035  0.3976 -0.0841
 5246TIP3    H137153   1.448   5.932   2.016 -0.3510  1.4471 -0.0542
 5246TIP3    H237154   1.322   5.857   1.977  1.0870 -1.0029 -0.1561
 5247TIP3   OH237155   0.905   0.696  14.552 -0.1062 -0.0406  0.6488
 5247TIP3    H137156   0.934   0.644  14.477  1.7943  0.6179  0.8976
 5247TIP3    H237157   0.817   0.725  14.529 -0.0941 -1.0246 -0.6992
 5248TIP3   OH237158   1.696   5.095  11.117 -0.2550  0.0649  0.1355
 5248TIP3    H137159   1.660   5.179  11.088  0.6387  0.2588 -0.4189
 5248TIP3    H237160   1.781   5.116  11.155 -0.4775 -0.4655  0.9503
 5249TIP3   OH237161   5.320   5.475  15.344 -0.2246  0.3142 -0.7079
 5249TIP3    H137162   5.413   5.464  15.325  0.0583 -1.1355  1.4665
 5249TIP3    H237163   5.280   5.393  15.316 -0.5058  0.0670  0.3930
 5250TIP3   OH237164   3.812   1.872   1.954 -0.0285 -0.6857 -0.0285
 5250TIP3    H137165   3.781   1.946   1.903 -0.9435 -0.2469  1.1397
 5250TIP3    H237166   3.743   1.807   1.946  0.3928 -1.0989 -0.3599
 5251TIP3   OH237167   1.590   1.946  12.291  0.5632  0.3406  0.1302
 5251TIP3    H137168   1.664   2.007  12.297  1.3293 -0.5769  0.1885
 5251TIP3    H237169   1.517   2.000  12.263  1.3894  1.1652 -0.4779
 5252TIP3   OH237170   1.338   2.749   6.531 -0.3184  0.7927  0.1828
 5252TIP3    H137171   1.364   2.767   6.621 -0.0845  1.6602 -0.0512
 5252TIP3    H237172   1.269   2.812   6.513 -0.5907  0.4062 -0.1469
 5253TIP3   OH237173   1.658   4.741  15.710  0.2368 -0.2040  0.1695
 5253TIP3    H137174   1.630   4.652  15.686 -0.5987  0.3479 -0.9494
 5253TIP3    H237175   1.579   4.782  15.746  0.0979  0.7126 -1.1435
 5254TIP3   OH237176   4.909   4.364  13.044  0.1287 -0.1377 -0.1510
 5254TIP3    H137177   4.888   4.454  13.069 -1.3307 -0.7138  0.7861
 5254TIP3    H237178   4.844   4.311  13.089  2.2749 -1.8553  0.9971
 5255TIP3   OH237179   4.867   3.573  16.344  0.5384 -0.1278  0.6432
 5255TIP3    H137180   4.796   3.631  16.317  1.2022  0.3515 -0.1053
 5255TIP3    H237181   4.835   3.485  16.321  1.3879  0.3162 -2.5228
 5256TIP3   OH237182   5.951   1.429   1.718  0.5895  0.2781 -0.0227
 5256TIP3    H137183   5.859   1.427   1.692  0.6216  0.2893 -0.1355
 5256TIP3    H237184   5.998   1.390   1.644  0.5680 -0.7604  0.5019
 5257TIP3   OH237185   0.112   4.402   5.980 -0.4719 -0.0241 -0.2984
 5257TIP3    H137186   0.079   4.492   5.987 -0.5839 -0.0904  0.0489
 5257TIP3    H237187   0.036   4.350   5.955 -0.7199 -0.2317  0.8452
 5258TIP3   OH237188   2.653   3.966  11.844 -0.0750  0.9636  0.2863
 5258TIP3    H137189   2.664   3.902  11.774 -0.5956  1.5723 -0.3786
 5258TIP3    H237190   2.565   3.949  11.878  0.2164  0.6042  0.8645
 5259TIP3   OH237191   0.348   5.108   2.343 -0.5465  0.0596  0.1301
 5259TIP3    H137192   0.343   5.015   2.368  1.2802 -0.0836  0.0616
 5259TIP3    H237193   0.301   5.153   2.413 -0.5707 -0.8422  0.7178
 5260TIP3   OH237194   2.400   5.830   2.080  0.2317  0.3886  0.0561
 5260TIP3    H137195   2.312   5.805   2.050  0.9540 -0.4969 -1.3714
 5260TIP3    H237196   2.407   5.793   2.168 -0.1731 -1.0529 -0.5159
 5261TIP3   OH237197   6.730   1.219   1.624 -0.0909 -0.5555  0.4079
 5261TIP3    H137198   6.673   1.214   1.700 -0.6927 -1.0909 -0.0735
 5261TIP3    H237199   6.690   1.286   1.568 -0.5287 -1.2666 -0.1489
 5262TIP3   OH237200   0.132   0.058   1.465 -0.3735 -0.1916  0.4028
 5262TIP3    H137201   0.159   0.042   1.556 -0.3990 -0.1224  0.4229
 5262TIP3    H237202   0.203   0.022   1.412 -0.8038 -1.0964  0.4313
 5263TIP3   OH237203   5.067   2.952   1.830 -0.0676 -0.3483 -0.3497
 5263TIP3    H137204   5.017   2.982   1.754 -0.5789  0.5618  0.3363
 5263TIP3    H237205   5.128   3.024   1.848  0.1693 -0.6363  0.0033
 5264TIP3   OH237206   4.048   4.210  13.747  0.1691 -0.3473  0.0933
 5264TIP3    H137207   4.026   4.117  13.750 -0.8747 -0.0879  0.6284
 5264TIP3    H237208   4.122   4.219  13.808  0.8831 -0.9762 -0.6620
 5265TIP3   OH237209   1.028   6.192   0.615  0.3984  0.0762 -0.3894
 5265TIP3    H137210   1.008   6.285   0.613 -0.1070 -0.0373 -0.7860
 5265TIP3    H237211   1.051   6.174   0.706 -1.4247  0.1928  0.1247
 5266TIP3   OH237212   1.808   5.016  13.558  0.0385  0.1796  0.6350
 5266TIP3    H137213   1.890   5.003  13.511 -0.3268 -0.4564  0.1815
 5266TIP3    H237214   1.831   5.000  13.650  0.6743  1.1154  0.6444
 5267TIP3   OH237215   0.382   3.668  13.230 -0.0887  0.0248  0.1378
 5267TIP3    H137216   0.339   3.728  13.168 -0.4540  0.5757  0.9245
 5267TIP3    H237217   0.345   3.582  13.208 -0.2219  0.2162 -0.4064
 5268TIP3   OH237218   4.119   0.988  10.544 -0.0609  0.1010  0.2280
 5268TIP3    H137219   4.139   1.049  10.473 -0.6553 -0.2135 -0.2204
 5268TIP3    H237220   4.203   0.948  10.565  0.4354  1.5002  0.9351
 5269TIP3   OH237221   3.039   6.766   4.166 -0.2849  0.3419  0.3947
 5269TIP3    H137222   2.944   6.763   4.176 -0.4328 -2.4639 -1.2899
 5269TIP3    H237223   3.053   6.760   4.072  1.5773  0.0367  0.6786
 5270TIP3   OH237224   1.547   1.979   3.527  0.4118  0.3414  0.6847
 5270TIP3    H137225   1.588   2.059   3.495  1.2394 -1.0013 -1.7711
 5270TIP3    H237226   1.620   1.926   3.560 -0.1758  0.7400  2.7137
 5271TIP3   OH237227   5.257   1.363   1.923  0.1697  0.4726  0.1968
 5271TIP3    H137228   5.175   1.389   1.881  0.7066  0.6585 -0.7370
 5271TIP3    H237229   5.231   1.339   2.012 -1.3505 -2.1230 -0.8752
 5272TIP3   OH237230   4.616   0.631  13.579  0.0203  0.2481 -0.0566
 5272TIP3    H137231   4.706   0.626  13.547 -0.1095  0.1530 -0.4101
 5272TIP3    H237232   4.600   0.546  13.620 -0.7570 -0.7352 -2.2789
 5273TIP3   OH237233   1.794   0.648   2.808  0.1688  0.1294  0.1049
 5273TIP3    H137234   1.794   0.555   2.828 -3.4680  0.1516  0.5561
 5273TIP3    H237235   1.817   0.691   2.890 -1.7926 -0.2754  0.8910
 5274TIP3   OH237236   2.963   2.065  13.975  0.3990  0.1974  0.1829
 5274TIP3    H137237   2.897   2.109  14.028 -1.1426 -1.3378 -0.3992
 5274TIP3    H237238   2.914   2.033  13.899  2.3623  1.4452 -1.6527
 5275TIP3   OH237239   6.505   5.344   1.116 -0.1659  0.5396 -0.3705
 5275TIP3    H137240   6.432   5.295   1.077 -1.8770  1.9831  0.9195
 5275TIP3    H237241   6.471   5.433   1.126  1.8331  1.2654  0.1607
 5276TIP3   OH237242   1.866   3.828   4.291  0.0297 -0.1289 -0.0211
 5276TIP3    H137243   1.948   3.802   4.248  0.9895  1.6938  0.6353
 5276TIP3    H237244   1.836   3.904   4.241 -1.6653 -1.2198 -0.6987
 5277TIP3   OH237245   1.159   1.888  14.346 -0.1239  0.0270 -0.4154
 5277TIP3    H137246   1.133   1.841  14.425 -1.0168 -0.5092 -1.0232
 5277TIP3    H237247   1.147   1.981  14.368 -1.0478 -0.1507 -0.1562
 5278TIP3   OH237248   6.169   6.729   6.007  0.2311  0.4635  0.2940
 5278TIP3    H137249   6.261   6.749   6.022 -0.3745  3.8960 -0.0429
 5278TIP3    H237250   6.136   6.805   5.960 -2.5235 -1.2231 -0.5999
 5279TIP3   OH237251   1.518   5.630   1.479  0.0249 -0.4634  0.0315
 5279TIP3    H137252   1.531   5.567   1.408  1.4667 -2.2331  1.8277
 5279TIP3    H237253   1.433   5.607   1.517  0.0259 -0.5975 -0.0464
 5280TIP3   OH237254   2.712   5.516  16.226 -0.5348 -0.0931  0.6798
 5280TIP3    H137255   2.622   5.547  16.240 -1.0337 -0.9899 -0.4079
 5280TIP3    H237256   2.704   5.452  16.155  1.0376  0.1291  0.2925
 5281TIP3   OH237257   2.578   3.510   6.714  0.0873 -0.0280 -0.4376
 5281TIP3    H137258   2.488   3.478   6.715 -0.6653  1.9965 -1.3242
 5281TIP3    H237259   2.579   3.577   6.646  1.3363  2.5813  2.0573
 5282TIP3   OH237260   2.599   0.216   1.752  0.1228  0.4660  0.4676
 5282TIP3    H137261   2.542   0.269   1.696 -0.0038  1.1919  1.2729
 5282TIP3    H237262   2.686   0.254   1.740  0.1373  0.4654  0.5755
 5283TIP3   OH237263   6.025   1.486  14.124  0.0226 -0.2250 -0.0686
 5283TIP3    H137264   6.014   1.400  14.083 -1.8462 -0.2082  0.3688
 5283TIP3    H237265   6.080   1.535  14.063  0.8482 -1.6231 -0.4723
 5284TIP3   OH237266   3.893   2.191  16.170  0.2310  0.0827  0.6395
 5284TIP3    H137267   3.822   2.179  16.233 -0.6305  0.8428 -0.1581
 5284TIP3    H237268   3.854   2.244  16.100  1.3008 -0.3443 -0.2982
 5285TIP3   OH237269   2.196   1.368  11.947  0.3340 -0.1931 -0.0384
 5285TIP3    H137270   2.190   1.278  11.979 -0.0743  0.4641  1.7829
 5285TIP3    H237271   2.260   1.410  12.005 -0.9213  1.2056  0.3813
 5286TIP3   OH237272   4.984   2.773  11.339  0.0650  0.5048 -0.3282
 5286TIP3    H137273   4.987   2.834  11.266 -0.0695  2.6458  1.3992
 5286TIP3    H237274   5.064   2.791  11.389 -1.3899  1.3888  1.7983
 5287TIP3   OH237275   2.215   2.448  15.632 -0.3382  0.3048  0.0936
 5287TIP3    H137276   2.222   2.543  15.624 -2.8777  0.5591  0.5958
 5287TIP3    H237277   2.242   2.414  15.547  1.8473  1.3860  0.3264
 5288TIP3   OH237278   3.140   1.124  10.651  0.0424 -0.0345 -0.2241
 5288TIP3    H137279   3.177   1.164  10.730 -0.8426  0.6412 -0.1467
 5288TIP3    H237280   3.046   1.142  10.657 -0.0411 -0.0775 -1.3817
 5289TIP3   OH237281   0.602   0.434  13.012 -0.0289  0.2969  0.1152
 5289TIP3    H137282   0.638   0.427  12.923  1.4223  1.5234  0.5875
 5289TIP3    H237283   0.511   0.460  12.999 -0.0099 -0.1580 -1.0274
 5290TIP3   OH237284   4.873   0.856  12.371 -0.2783  0.0219  1.0083
 5290TIP3    H137285   4.959   0.878  12.335 -0.6904 -1.3375 -0.9047
 5290TIP3    H237286   4.892   0.797  12.444  0.3805 -1.8048 -0.5859
 5291TIP3   OH237287   5.291   0.431  14.510  0.0793 -0.5204  0.3805
 5291TIP3    H137288   5.260   0.499  14.450  1.9993 -1.4395 -1.7191
 5291TIP3    H237289   5.373   0.466  14.545  0.1566 -1.0016  0.6817
 5292TIP3   OH237290   2.434   4.828  14.030 -0.3376  0.1653  0.3399
 5292TIP3    H137291   2.459   4.826  14.122 -0.7486  0.4316  0.4599
 5292TIP3    H237292   2.397   4.741  14.014  2.8090 -1.0953 -0.4640
 5293TIP3   OH237293   4.838   0.954   2.957 -0.6515 -0.4024  0.0151
 5293TIP3    H137294   4.869   0.924   3.042  1.2369 -1.0094 -0.8470
 5293TIP3    H237295   4.872   1.044   2.949 -1.1062 -0.2272  0.0433
 5294TIP3   OH237296   5.385   3.869  16.311  0.3878 -0.3524 -0.2062
 5294TIP3    H137297   5.453   3.926  16.346 -0.8639  0.7385  0.5000
 5294TIP3    H237298   5.366   3.808  16.381 -2.1503  1.8615  1.1400
 5295TIP3   OH237299   3.318   2.410   4.744  0.1617  0.3014 -0.4741
 5295TIP3    H137300   3.387   2.460   4.700 -1.0255  1.1823 -1.3698
 5295TIP3    H237301   3.277   2.473   4.803 -0.4826  0.0288 -0.6278
 5296TIP3   OH237302   4.097   2.971  14.655 -0.1613 -0.4267 -0.4797
 5296TIP3    H137303   4.025   3.025  14.689  0.5689 -0.6127  1.4259
 5296TIP3    H237304   4.068   2.945  14.568 -2.2115 -0.1340  0.0833
 5297TIP3   OH237305   4.720   6.329  15.987 -0.3297 -0.2942  0.1619
 5297TIP3    H137306   4.780   6.285  16.048  0.5594 -0.7391 -1.0067
 5297TIP3    H237307   4.724   6.421  16.012  0.7167 -0.3444  0.2272
 5298TIP3   OH237308   6.694   3.422   2.698  0.1230  0.2531 -0.5919
 5298TIP3    H137309   6.613   3.449   2.656 -1.1816 -1.7594  0.5646
 5298TIP3    H237310   6.694   3.327   2.692  1.3587  0.1042  1.2737
 5299TIP3   OH237311   6.747   1.118   3.764 -0.1486 -0.0809 -0.5078
 5299TIP3    H137312   6.819   1.179   3.781 -0.4109  0.2518 -0.5915
 5299TIP3    H237313   6.761   1.047   3.825  0.6474 -0.3458 -0.9906
 5300TIP3   OH237314   4.910   2.358  15.636 -0.0894  0.1070  0.3651
 5300TIP3    H137315   4.851   2.372  15.562 -0.6861 -1.0429  0.6207
 5300TIP3    H237316   4.853   2.348  15.712  0.5698  2.7659  1.2602
 5301TIP3   OH237317   3.856   5.270  16.503 -0.1353  0.3082  0.6777
 5301TIP3    H137318   3.892   5.271  16.592  1.0584  0.1358  0.2074
 5301TIP3    H237319   3.866   5.360  16.473  1.4705 -0.1061 -0.0615
 5302TIP3   OH237320   5.346   1.726  12.791 -0.3156  0.3537  0.7999
 5302TIP3    H137321   5.284   1.798  12.776 -2.6617 -1.5340  1.1012
 5302TIP3    H237322   5.375   1.738  12.881 -0.7556  0.8798  0.8745
 5303TIP3   OH237323   5.673   3.756  15.854 -0.5723 -0.0590 -0.9365
 5303TIP3    H137324   5.723   3.798  15.784 -1.2872 -1.3307 -2.2514
 5303TIP3    H237325   5.701   3.800  15.934  0.5271  1.1820 -1.9849
 5304TIP3   OH237326   3.490   0.563   3.200 -0.5650  0.4169 -0.0130
 5304TIP3    H137327   3.513   0.649   3.163 -0.7629 -0.5314 -2.4687
 5304TIP3    H237328   3.394   0.565   3.204 -0.4989  1.0053  1.7563
 5305TIP3   OH237329   4.399   3.452  15.670  0.1046 -0.3761  0.5576
 5305TIP3    H137330   4.478   3.476  15.719 -0.0794 -0.4468  0.8857
 5305TIP3    H237331   4.341   3.528  15.679  1.0616  0.6658 -1.6613
 5306TIP3   OH237332   1.729   1.413   1.232  0.1695 -0.1407 -0.0371
 5306TIP3    H137333   1.804   1.433   1.177  0.5874 -1.4018  0.0534
 5306TIP3    H237334   1.746   1.324   1.264 -2.4399 -1.3276 -1.8070
 5307TIP3   OH237335   0.467   4.031   2.964 -0.6234 -0.3145 -0.5869
 5307TIP3    H137336   0.475   4.123   2.941 -0.4582 -0.1168  0.2458
 5307TIP3    H237337   0.403   3.996   2.901 -0.1508  0.2001 -1.3537
 5308TIP3   OH237338   0.110   5.944   3.927 -0.7097  0.7866  0.6438
 5308TIP3    H137339   0.126   5.916   3.837  1.0994  1.8245  0.6211
 5308TIP3    H237340   0.195   5.973   3.959 -1.8276  2.8453  1.8624
 5309TIP3   OH237341   3.952   5.281  15.227  0.0269 -0.0243  0.0612
 5309TIP3    H137342   3.878   5.322  15.182  1.4531  2.1628 -0.3695
 5309TIP3    H237343   4.018   5.269  15.159  0.5451 -0.8358  0.6896
 5310TIP3   OH237344   2.122   5.652  15.533 -0.3212  0.3990 -0.2504
 5310TIP3    H137345   2.114   5.713  15.459 -1.3627 -0.6081 -0.9825
 5310TIP3    H237346   2.036   5.611  15.539  0.3711 -0.9904  0.2399
 5311TIP3   OH237347   5.107   2.914   3.847  0.4492  0.2498 -0.4717
 5311TIP3    H137348   5.142   2.875   3.767 -0.2796  1.2177 -1.2678
 5311TIP3    H237349   5.101   2.841   3.908  2.4957 -0.2044 -0.7793
 5312TIP3   OH237350   1.425   1.358   3.564 -0.1173 -0.0088  0.5063
 5312TIP3    H137351   1.460   1.272   3.588 -0.9482 -0.5498 -0.1606
 5312TIP3    H237352   1.440   1.364   3.470 -0.5061  0.3555  0.4657
 5313TIP3   OH237353   5.966   6.324   4.559  0.0648  0.4698 -0.1537
 5313TIP3    H137354   5.973   6.231   4.582 -1.3787  0.3687 -0.0866
 5313TIP3    H237355   6.026   6.368   4.619 -0.4285 -0.2622  0.9016
 5314TIP3   OH237356   1.307   4.730  12.933 -0.6174 -0.8249 -0.6962
 5314TIP3    H137357   1.222   4.707  12.895 -1.5650  0.8991  0.3073
 5314TIP3    H237358   1.296   4.715  13.027 -1.0608  2.8584 -0.0797
 5315TIP3   OH237359   3.593   3.335  15.736 -0.3578 -0.1311  0.4568
 5315TIP3    H137360   3.589   3.416  15.786  0.0938  0.3707 -0.3255
 5315TIP3    H237361   3.686   3.323  15.717 -0.7253  0.6342 -1.8558
 5316TIP3   OH237362   0.943   5.794  12.402  0.4970  0.2547 -0.5076
 5316TIP3    H137363   0.947   5.699  12.394 -0.7653  0.1147  0.3474
 5316TIP3    H237364   0.852   5.817  12.380  0.4163  1.1034  0.6314
 5317TIP3   OH237365   0.015   3.679  12.242 -0.0020 -0.5578  0.3215
 5317TIP3    H137366   0.065   3.647  12.167 -0.1765  0.5594 -0.2740
 5317TIP3    H237367  -0.053   3.735  12.204  1.8678  2.6306  1.4736
 5318TIP3   OH237368   5.981   6.637  11.371  0.8070  0.2073  1.3938
 5318TIP3    H137369   6.061   6.664  11.415 -0.3383  3.8517  1.3619
 5318TIP3    H237370   5.914   6.697  11.402 -1.4732 -1.3826 -0.2415
 5319TIP3   OH237371   5.495   5.971  16.236 -0.1420  0.0681  0.0946
 5319TIP3    H137372   5.432   5.963  16.308  0.3681  0.5832  0.6034
 5319TIP3    H237373   5.575   6.003  16.278  0.4669 -0.6027 -0.5421
 5320TIP3   OH237374   1.718   6.620  16.012 -0.5378 -0.1968 -0.1202
 5320TIP3    H137375   1.716   6.715  16.026 -1.7796 -0.1343 -0.6738
 5320TIP3    H237376   1.729   6.611  15.917 -0.3800 -0.6110 -0.0619
 5321TIP3   OH237377   1.602   4.065   5.113 -0.3816  0.1157 -0.1250
 5321TIP3    H137378   1.591   4.095   5.203  1.9092  0.0335  0.2144
 5321TIP3    H237379   1.544   3.989   5.106 -0.0373 -0.3179  1.5003
 5322TIP3   OH237380   2.797   3.120   3.556  0.2258 -0.0273  0.5845
 5322TIP3    H137381   2.822   3.055   3.490  0.8405  0.4941  0.3072
 5322TIP3    H237382   2.872   3.124   3.615  0.2310  0.5206  0.5370
 5323TIP3   OH237383   0.801   0.639   3.447 -0.2939 -0.8836  0.6408
 5323TIP3    H137384   0.849   0.632   3.529  2.3904 -0.5960 -0.8215
 5323TIP3    H237385   0.797   0.549   3.414  0.1265 -0.7902  0.3174
 5324TIP3   OH237386   4.027   3.831  15.723  0.2030 -0.0145 -0.1667
 5324TIP3    H137387   3.980   3.748  15.716 -0.2500  0.3032 -1.1142
 5324TIP3    H237388   4.010   3.862  15.811 -0.6646 -0.3222 -0.2252
 5325TIP3   OH237389   2.946   2.095   0.182 -0.5327 -0.5878 -0.4205
 5325TIP3    H137390   2.911   2.008   0.204  1.1147 -0.9353  0.9708
 5325TIP3    H237391   3.007   2.115   0.253 -0.2379  1.3403 -1.1797
 5326TIP3   OH237392   5.974   1.007  14.363 -0.1346  1.0311  0.4228
 5326TIP3    H137393   5.908   1.062  14.321 -0.0191  0.3535 -0.6366
 5326TIP3    H237394   6.010   1.062  14.433 -2.1471  1.2374  1.3107
 5327TIP3   OH237395   1.775   1.310   2.874  0.6148 -0.1913 -0.2548
 5327TIP3    H137396   1.757   1.354   2.791 -0.6247  2.2392  1.2606
 5327TIP3    H237397   1.813   1.378   2.930 -0.5177 -1.2515  1.8506
 5328TIP3   OH237398   2.012   6.107  12.901 -0.5300 -1.0168  0.4171
 5328TIP3    H137399   2.101   6.080  12.878 -0.1125 -0.4454  1.3076
 5328TIP3    H237400   1.964   6.025  12.909  0.2814 -1.4166  1.3526
 5329TIP3   OH237401   2.304   4.582  14.009  0.6443  0.4578  0.6200
 5329TIP3    H137402   2.286   4.494  14.044  2.5809 -0.5042 -0.7088
 5329TIP3    H237403   2.233   4.598  13.947  0.0096  0.0320  1.2294
 5330TIP3   OH237404   6.114   6.321  12.172  0.1468  0.0398  0.1494
 5330TIP3    H137405   6.034   6.339  12.221 -0.5793 -0.9348 -0.6678
 5330TIP3    H237406   6.179   6.299  12.239 -0.9923 -1.9096  0.6367
 5331TIP3   OH237407   2.811   3.528   2.243  0.6127 -0.5707  0.1834
 5331TIP3    H137408   2.882   3.509   2.183  0.9513  0.1557  0.3541
 5331TIP3    H237409   2.735   3.482   2.206  0.3018  1.5360 -1.9154
 5332TIP3   OH237410   5.298   6.384   5.528 -0.1841  0.6032  0.0437
 5332TIP3    H137411   5.301   6.326   5.452 -1.9037  1.1929 -0.5055
 5332TIP3    H237412   5.281   6.471   5.491 -0.1034  1.0489  1.0345
 5333TIP3   OH237413   4.862   4.786   4.033  0.1220 -0.0941 -0.2446
 5333TIP3    H137414   4.773   4.813   4.057 -0.8485  1.0499 -4.7657
 5333TIP3    H237415   4.916   4.863   4.052 -0.1547 -0.1082  0.6425
 5334TIP3   OH237416   3.801   3.176  12.486 -0.1843 -0.3678  0.1255
 5334TIP3    H137417   3.809   3.083  12.467 -0.3650 -0.5209  0.7816
 5334TIP3    H237418   3.723   3.204  12.439  0.9417 -0.1116 -1.6630
 5335TIP3   OH237419   6.625   4.940   1.717  0.0302 -0.2337 -0.2513
 5335TIP3    H137420   6.590   4.985   1.640 -0.0907 -1.3492 -0.8474
 5335TIP3    H237421   6.567   4.966   1.789 -1.4015 -1.2583 -1.0347
 5336TIP3   OH237422   2.975   0.138  13.225  0.4760  0.1637  0.0623
 5336TIP3    H137423   3.063   0.175  13.223 -0.1342  1.5697 -0.7120
 5336TIP3    H237424   2.924   0.191  13.165 -0.7260 -1.1417 -0.1113
 5337TIP3   OH237425   4.007   5.428   5.059 -0.2528  0.2769  0.2513
 5337TIP3    H137426   3.923   5.435   5.014 -0.2374 -1.2116 -0.0536
 5337TIP3    H237427   4.072   5.457   4.994 -0.5666  2.0088  0.6884
 5338TIP3   OH237428   0.687   1.627  12.888 -0.5026 -0.0401  0.4184
 5338TIP3    H137429   0.775   1.659  12.865 -0.2612 -0.4345  0.7995
 5338TIP3    H237430   0.690   1.614  12.982 -0.6409 -1.0698  0.2832
 5339TIP3   OH237431   1.892   5.593  14.584  0.5289 -0.3024 -0.0064
 5339TIP3    H137432   1.822   5.656  14.603 -1.0329 -1.9993  0.0540
 5339TIP3    H237433   1.849   5.523  14.535  2.2136 -1.3453 -0.0494
 5340TIP3   OH237434   3.922   6.219   2.984  0.1621  0.1727  0.0467
 5340TIP3    H137435   3.934   6.131   2.951 -0.4652  0.0684  0.0883
 5340TIP3    H237436   3.833   6.219   3.020 -0.0745  1.0011 -0.5251
 5341TIP3   OH237437   1.321   4.213  11.530  0.3712  0.1042 -0.4929
 5341TIP3    H137438   1.329   4.278  11.599 -0.8378 -0.3328  0.0773
 5341TIP3    H237439   1.397   4.156  11.541  0.0323 -0.1318  0.6523
 5342TIP3   OH237440   3.610   4.531  10.710 -0.1892 -0.0531  0.0382
 5342TIP3    H137441   3.595   4.453  10.656  1.3201  0.7316 -1.5211
 5342TIP3    H237442   3.531   4.537  10.764  0.1629 -3.3720  1.0936
 5343TIP3   OH237443   6.313   6.337   4.372  0.1696 -0.0352 -0.5299
 5343TIP3    H137444   6.356   6.344   4.287  0.3548  0.5250 -0.3963
 5343TIP3    H237445   6.374   6.380   4.433 -0.4411  0.4937 -0.2864
 5344TIP3   OH237446   0.759   1.832   4.725 -0.7460  0.4327  0.0352
 5344TIP3    H137447   0.781   1.769   4.793 -0.1153  0.7495  0.1279
 5344TIP3    H237448   0.682   1.795   4.682  1.0264 -1.6001 -1.4772
 5345TIP3   OH237449   6.779   1.832   0.338 -0.3932  0.5796  0.1446
 5345TIP3    H137450   6.754   1.900   0.400 -0.1758 -0.3359  1.2508
 5345TIP3    H237451   6.767   1.750   0.386  0.9839 -0.0777 -0.6046
 5346TIP3   OH237452   2.435   2.289  11.395  1.1537  0.0831  0.2514
 5346TIP3    H137453   2.437   2.259  11.304 -1.5468  1.2399 -0.2188
 5346TIP3    H237454   2.398   2.377  11.391  0.7657  0.0601  2.4946
 5347TIP3   OH237455   1.319   4.129  14.803 -0.3295  0.6506 -0.0779
 5347TIP3    H137456   1.334   4.223  14.809  2.0247  0.2185  1.7021
 5347TIP3    H237457   1.395   4.095  14.757 -2.1847 -0.1771 -2.6280
 5348TIP3   OH237458   1.987   2.511  12.790 -0.7154 -1.2624 -0.1872
 5348TIP3    H137459   1.899   2.543  12.811  0.2928  0.9242  0.8244
 5348TIP3    H237460   2.027   2.493  12.875  0.5666 -0.1364 -0.5448
 5349TIP3   OH237461   5.180   0.941   4.450  0.6950  0.1755  0.0142
 5349TIP3    H137462   5.226   0.980   4.524  0.2080  1.5076 -0.3690
 5349TIP3    H237463   5.209   0.850   4.448  2.8123  0.8367  0.1706
 5350TIP3   OH237464   5.474   0.569   4.191  0.2455  0.5386 -0.0737
 5350TIP3    H137465   5.406   0.610   4.137 -1.1767 -0.9214  0.5880
 5350TIP3    H237466   5.499   0.490   4.143  0.4749  0.3340  0.3759
 5351TIP3   OH237467   6.666   1.770   3.248  0.2428  0.0674 -0.0611
 5351TIP3    H137468   6.744   1.730   3.286  0.1771  1.6895  1.8320
 5351TIP3    H237469   6.593   1.734   3.298  0.1645  2.3055  1.4979
 5352TIP3   OH237470   4.889   3.144  12.248  0.1210  0.2666 -0.5013
 5352TIP3    H137471   4.984   3.154  12.238  0.2331 -0.1836  0.1131
 5352TIP3    H237472   4.860   3.227  12.286  0.6924 -0.6964  2.1383
 5353TIP3   OH237473   0.263   6.617  16.140 -0.0075 -0.3027  0.4858
 5353TIP3    H137474   0.339   6.609  16.198  2.0845  1.6550 -1.8447
 5353TIP3    H237475   0.295   6.586  16.055 -0.9210  3.1564 -1.1997
 5354TIP3   OH237476   3.889   2.055   5.599 -0.1306  0.1835  0.4289
 5354TIP3    H137477   3.872   2.108   5.521 -0.9519  0.2341  0.6453
 5354TIP3    H237478   3.962   1.998   5.573 -0.3207  0.2823 -0.3413
 5355TIP3   OH237479   4.756   4.499  13.884 -0.0693  0.1715  0.2766
 5355TIP3    H137480   4.765   4.464  13.972 -0.3091  0.5536  0.4517
 5355TIP3    H237481   4.698   4.574  13.893 -1.1970 -0.5877 -0.4119
 5356TIP3   OH237482   0.455   4.701  15.509  0.3603  0.5115 -0.0364
 5356TIP3    H137483   0.418   4.767  15.450 -2.0493  0.4132  1.2990
 5356TIP3    H237484   0.515   4.651  15.455  2.0749  3.6512 -1.1609
 5357TIP3   OH237485   5.342   5.719   6.112  0.0970 -0.9577 -0.2425
 5357TIP3    H137486   5.367   5.792   6.168 -1.1660 -0.1840 -0.6567
 5357TIP3    H237487   5.410   5.653   6.125  0.7830 -0.0484  0.7906
 5358TIP3   OH237488   5.490   5.194   2.003 -0.4329  0.1185 -0.3400
 5358TIP3    H137489   5.511   5.269   1.947 -0.8930  0.0847 -0.5576
 5358TIP3    H237490   5.501   5.118   1.945 -2.1443  0.1652 -0.7351
 5359TIP3   OH237491   6.304   6.379   2.904  0.1873 -0.6442  0.1084
 5359TIP3    H137492   6.380   6.348   2.856 -0.4062 -0.5663 -0.9078
 5359TIP3    H237493   6.313   6.475   2.905  0.3060 -0.6567  0.3412
 5360TIP3   OH237494   1.556   3.872   0.600  0.1910 -0.0137  0.1143
 5360TIP3    H137495   1.488   3.876   0.667 -0.3738 -1.5708 -0.3317
 5360TIP3    H237496   1.541   3.788   0.556  2.0019 -0.0798 -0.4184
 5361TIP3   OH237497   1.336   1.571   3.038  0.2393 -0.4606  0.1080
 5361TIP3    H137498   1.419   1.575   2.991 -1.4181  0.2306 -2.9590
 5361TIP3    H237499   1.312   1.478   3.034 -1.2711 -0.0027 -3.1188
 5362TIP3   OH237500   0.877   0.265  11.585  0.0825 -0.0305  0.2079
 5362TIP3    H137501   0.841   0.348  11.615 -0.3840 -0.0831 -0.2116
 5362TIP3    H237502   0.802   0.206  11.582 -0.0131  0.1815 -1.8163
 5363TIP3   OH237503   4.834   0.187   4.682  0.2528  0.1884  0.8345
 5363TIP3    H137504   4.839   0.092   4.694  0.6830  0.1596  0.4314
 5363TIP3    H237505   4.925   0.215   4.673  0.0381  0.3374 -1.3222
 5364TIP3   OH237506   4.539   4.993   5.017 -0.1765 -0.2769 -0.0642
 5364TIP3    H137507   4.627   4.973   4.984 -0.1829 -0.4262  0.0081
 5364TIP3    H237508   4.538   5.088   5.027 -0.8849  0.0174 -2.4918
 5365TIP3   OH237509   3.538   1.687   4.654  0.4594  0.5347 -0.1783
 5365TIP3    H137510   3.481   1.740   4.598  0.8777  1.4056  0.2075
 5365TIP3    H237511   3.482   1.617   4.686  0.1950  0.0611 -1.6282
 5366TIP3   OH237512   5.133   3.089   0.678 -0.1465 -0.8209  0.1083
 5366TIP3    H137513   5.203   3.152   0.695 -1.1332  0.3588 -0.1202
 5366TIP3    H237514   5.107   3.107   0.587 -1.5990 -0.3883  0.5985
 5367TIP3   OH237515   2.711   6.614   0.347  0.4462  0.3628 -0.0249
 5367TIP3    H137516   2.753   6.569   0.274 -0.7025  2.6340 -2.1610
 5367TIP3    H237517   2.639   6.662   0.308 -0.1510  1.7238  2.5978
 5368TIP3   OH237518   6.035   1.402   2.084  0.0591 -0.4184 -0.1260
 5368TIP3    H137519   6.107   1.404   2.148  1.0218 -0.0572 -1.2104
 5368TIP3    H237520   6.061   1.464   2.017 -2.5669  1.7952  0.8111
 5369TIP3   OH237521   5.624   6.405   2.049  0.0721  0.4052 -0.0843
 5369TIP3    H137522   5.676   6.363   2.118  0.6361  1.6065  0.2304
 5369TIP3    H237523   5.584   6.332   2.001  0.5212 -0.4677  0.8572
 5370TIP3   OH237524   3.053   0.050   3.879  0.4036  0.6736  0.2686
 5370TIP3    H137525   3.067   0.093   3.794 -0.6900 -0.6054 -0.5857
 5370TIP3    H237526   2.959   0.033   3.882  0.6204 -0.4162  1.1946
 5371TIP3   OH237527   1.461   2.026  15.932  0.4575  0.4264 -0.3447
 5371TIP3    H137528   1.437   2.076  16.010  0.6781  0.3761 -0.2453
 5371TIP3    H237529   1.438   1.936  15.953 -1.1681  0.6656 -1.0228
 5372TIP3   OH237530   5.318   6.683   2.447 -0.0563  0.5309  0.2254
 5372TIP3    H137531   5.388   6.747   2.439 -1.3117  2.0030  0.7531
 5372TIP3    H237532   5.363   6.599   2.454  1.5605  1.1932 -1.9241
 5373TIP3   OH237533   4.658   4.809   0.311 -0.3134  0.3161  0.1433
 5373TIP3    H137534   4.619   4.882   0.263 -3.0068 -0.0458  1.6894
 5373TIP3    H237535   4.686   4.847   0.394  0.9406  0.1650 -0.1962
 5374TIP3   OH237536   2.294   3.901   0.970  0.0320 -0.3587 -0.0954
 5374TIP3    H137537   2.368   3.845   0.947  0.0091  0.1161 -1.3745
 5374TIP3    H237538   2.217   3.847   0.950 -0.0328  0.7809 -3.2384
 5375TIP3   OH237539   4.822   6.516  16.180 -0.3641  0.2438  0.4896
 5375TIP3    H137540   4.892   6.530  16.116 -0.8017 -0.0462 -0.0534
 5375TIP3    H237541   4.838   6.582  16.248 -0.7635  1.5277 -0.6397
 5376TIP3   OH237542   1.727   0.787  12.573  0.1616  0.0191 -0.6496
 5376TIP3    H137543   1.684   0.822  12.495  1.8329 -3.2239 -3.1263
 5376TIP3    H237544   1.661   0.733  12.615  0.1524 -0.5831 -1.4400
 5377TIP3   OH237545   0.281   5.718  11.809 -0.1948  0.6505  0.0675
 5377TIP3    H137546   0.294   5.648  11.746  1.1609 -0.1750  1.2431
 5377TIP3    H237547   0.289   5.799  11.758 -0.2831 -0.0246 -1.0207
 5378TIP3   OH237548   2.786   5.958   1.258  0.0514 -0.0494  0.2143
 5378TIP3    H137549   2.835   5.942   1.177 -0.8065 -1.7215  0.0096
 5378TIP3    H237550   2.742   5.876   1.276 -0.5259  0.6041  1.8864
 5379TIP3   OH237551   5.011   2.145  14.141 -0.3201  0.5785 -0.1917
 5379TIP3    H137552   4.994   2.201  14.066  0.1149  0.8400 -0.0928
 5379TIP3    H237553   4.957   2.181  14.212  1.0932  1.7886  0.2958
 5380TIP3   OH237554   5.574   0.249   0.313 -0.5197 -0.0478  0.5752
 5380TIP3    H137555   5.654   0.229   0.266 -0.2279  0.3448  0.8998
 5380TIP3    H237556   5.522   0.169   0.307  1.1134 -1.3581  2.8460
 5381TIP3   OH237557   2.182   1.748  11.366  0.5208 -0.0886  0.6302
 5381TIP3    H137558   2.188   1.843  11.370  1.3352 -0.1247  0.2905
 5381TIP3    H237559   2.256   1.721  11.311 -0.3661 -0.8427 -0.2066
 5382TIP3   OH237560   4.626   3.825  17.184 -0.3530  0.6458 -0.0483
 5382TIP3    H137561   4.552   3.826  17.123 -0.5910 -0.7161  0.2006
 5382TIP3    H237562   4.634   3.733  17.210  0.4478  1.0353  1.1125
 5383TIP3   OH237563   3.572   4.090  13.965 -0.3644  0.2891 -0.2725
 5383TIP3    H137564   3.567   4.153  14.037 -2.3672  0.7226 -0.7476
 5383TIP3    H237565   3.619   4.136  13.896 -0.6935  0.7989 -0.1598
 5384TIP3   OH237566   6.568   1.328   3.818  0.4118  0.9617 -0.5934
 5384TIP3    H137567   6.619   1.255   3.782 -0.5286  0.0481 -0.1016
 5384TIP3    H237568   6.565   1.392   3.747  0.5556  0.1706 -1.3220
 5385TIP3   OH237569   5.981   1.647  12.477 -0.6407 -0.3351  0.2917
 5385TIP3    H137570   5.941   1.717  12.528 -0.6612 -0.6303  0.6838
 5385TIP3    H237571   6.007   1.689  12.395 -0.8731  0.0751  0.4255
 5386TIP3   OH237572   2.708   2.504   5.256  0.2668 -0.4090 -0.1025
 5386TIP3    H137573   2.671   2.486   5.342 -1.9245 -0.1702 -0.9404
 5386TIP3    H237574   2.766   2.429   5.238  2.7629  0.8077  2.6068
 5387TIP3   OH237575   2.230   0.671  16.482 -0.1444  0.0340 -0.1545
 5387TIP3    H137576   2.159   0.626  16.436 -0.0956  0.1331 -0.3329
 5387TIP3    H237577   2.204   0.671  16.574 -0.4256  0.1611 -0.2330
 5388TIP3   OH237578   4.705   1.149   2.716 -0.0687  0.1141  0.2390
 5388TIP3    H137579   4.649   1.171   2.642  0.9849 -0.0726 -0.6394
 5388TIP3    H237580   4.774   1.217   2.714  0.7379 -0.6958  0.1910
 5389TIP3   OH237581   5.874   0.059   1.062  0.3987  0.1024  0.2587
 5389TIP3    H137582   5.785   0.032   1.041  0.4199 -0.2170  0.5791
 5389TIP3    H237583   5.886   0.034   1.153  0.6988  0.4593  0.3161
 5390TIP3   OH237584   3.586   4.265  11.275  0.5242  0.1630  0.1372
 5390TIP3    H137585   3.592   4.175  11.308  2.2633 -0.4687 -1.7474
 5390TIP3    H237586   3.673   4.282  11.239  0.0498  2.4393  0.0174
 5391TIP3   OH237587   6.070   2.186   2.857 -0.0504 -0.4483 -0.3571
 5391TIP3    H137588   6.006   2.258   2.856  0.2029 -0.2167 -0.1544
 5391TIP3    H237589   6.131   2.207   2.787  0.0758 -0.4131 -0.2389
 5392TIP3   OH237590   1.849   4.011  14.630 -0.0293 -0.2438  0.2125
 5392TIP3    H137591   1.871   4.057  14.549  0.8874 -0.3646  0.3886
 5392TIP3    H237592   1.858   4.076  14.699 -3.3330  0.5473 -0.0420
 5393TIP3   OH237593   0.334   1.206  11.332  0.3079  0.1294  0.4632
 5393TIP3    H137594   0.341   1.247  11.246  0.4774 -1.8816 -0.5083
 5393TIP3    H237595   0.312   1.114  11.313 -3.3487  0.4570  2.6567
 5394TIP3   OH237596   2.200   0.147  14.700  0.0116  0.1999 -0.4771
 5394TIP3    H137597   2.143   0.205  14.649  1.4446  1.4824 -0.6669
 5394TIP3    H237598   2.194   0.181  14.789 -0.2109 -0.2303 -0.3248
 5395TIP3   OH237599   1.724   1.036   1.773 -0.3126  0.4436 -0.0609
 5395TIP3    H137600   1.760   0.977   1.839 -0.6466  0.8561  0.4931
 5395TIP3    H237601   1.639   0.999   1.751 -0.6645  0.8924  0.5265
 5396TIP3   OH237602   1.667   4.005   4.153 -0.0507 -0.3406 -0.1108
 5396TIP3    H137603   1.661   3.924   4.103 -0.2566  0.2390 -1.0519
 5396TIP3    H237604   1.594   4.058   4.120 -0.3946 -0.0776  1.0559
 5397TIP3   OH237605   3.391   2.189   3.107  0.1923 -0.0924 -1.0261
 5397TIP3    H137606   3.459   2.249   3.138 -1.6689  0.3111  2.4967
 5397TIP3    H237607   3.319   2.246   3.082 -1.3443 -0.7358  1.7357
 5398TIP3   OH237608   6.118   1.749  13.758 -0.0328  1.0823  0.3305
 5398TIP3    H137609   6.028   1.730  13.731  0.0824  1.2054 -0.1400
 5398TIP3    H237610   6.171   1.683  13.714  0.0023  0.3632  1.4312
 5399TIP3   OH237611   6.769   6.080   1.233 -0.3238  0.3398  0.5056
 5399TIP3    H137612   6.766   6.043   1.321 -1.9865  0.7595  0.6406
 5399TIP3    H237613   6.762   6.003   1.175 -1.9170  0.2748  0.7697
 5400TIP3   OH237614   1.496   4.707   1.079  0.0495  0.2854  0.2528
 5400TIP3    H137615   1.431   4.728   1.146  1.1140  0.3666  1.2668
 5400TIP3    H237616   1.573   4.678   1.128  0.1155 -1.7117 -0.9865
 5401TIP3   OH237617   1.045   5.825   2.475  0.1640  0.0310 -0.1116
 5401TIP3    H137618   1.064   5.911   2.438 -2.1704  0.9091  0.6647
 5401TIP3    H237619   1.071   5.832   2.567  1.0556 -0.4779 -0.3174
 5402TIP3   OH237620   5.816   2.988  11.863  0.2203  0.1263 -0.0547
 5402TIP3    H137621   5.782   3.046  11.796  0.3224  0.2475 -0.0026
 5402TIP3    H237622   5.749   2.988  11.931  1.2740  2.0511  1.0262
 5403TIP3   OH237623   5.840   3.923  15.698  0.1278 -0.2128  0.2160
 5403TIP3    H137624   5.905   3.929  15.768  0.0601  1.9523  0.1301
 5403TIP3    H237625   5.883   3.964  15.623 -0.2187 -1.5244 -0.7045
 5404TIP3   OH237626   5.978   6.084  13.988 -0.1547 -0.0324 -0.4558
 5404TIP3    H137627   6.072   6.068  13.997 -0.5176 -1.4016  0.9988
 5404TIP3    H237628   5.936   6.009  14.030 -1.9134  0.7231 -0.8015
 5405TIP3   OH237629   2.300   4.855  17.191 -0.5136 -0.4192 -0.1104
 5405TIP3    H137630   2.225   4.795  17.195 -0.9080  0.0789  0.0809
 5405TIP3    H237631   2.280   4.913  17.117 -1.0353  0.6573  0.8637
 5406TIP3   OH237632   5.414   4.473   5.833 -0.3802 -0.5106  0.4745
 5406TIP3    H137633   5.426   4.403   5.897  0.9526  0.4733  1.3280
 5406TIP3    H237634   5.322   4.466   5.807 -0.2520 -2.5927  0.5093
 5407TIP3   OH237635   1.543   1.430  16.216  0.4400  0.7056  0.1506
 5407TIP3    H137636   1.521   1.445  16.308 -1.4370  0.1407 -0.1889
 5407TIP3    H237637   1.466   1.388  16.179  0.8858  1.5889 -1.8621
 5408TIP3   OH237638   4.787   2.546  13.552 -0.2117  0.2083 -0.0893
 5408TIP3    H137639   4.731   2.623  13.559  0.5536  0.8800 -1.2292
 5408TIP3    H237640   4.794   2.529  13.458  0.4968 -0.5961  0.1003
 5409TIP3   OH237641   2.840   4.495  14.154 -0.6838 -0.3247 -0.2506
 5409TIP3    H137642   2.821   4.437  14.228 -0.5234 -0.7968 -0.5765
 5409TIP3    H237643   2.795   4.577  14.176  0.2855 -0.0852  0.8906
 5410TIP3   OH237644   3.635   4.843  11.768 -0.5670 -0.2258 -0.5666
 5410TIP3    H137645   3.723   4.826  11.736 -1.6571 -2.0402 -2.7762
 5410TIP3    H237646   3.646   4.908  11.837  2.8486 -2.9754  1.6459
 5411TIP3   OH237647   1.216   3.956   4.476  0.7944 -0.2578 -0.5605
 5411TIP3    H137648   1.162   3.929   4.551 -0.9511  0.0076 -1.6734
 5411TIP3    H237649   1.262   3.877   4.449 -2.8424 -1.8370 -2.6239
 5412TIP3   OH237650   0.359   6.455  11.075  0.0515 -0.7130 -0.1349
 5412TIP3    H137651   0.321   6.543  11.084 -0.0781 -0.9852  2.3254
 5412TIP3    H237652   0.390   6.452  10.985  2.0677  2.6710  0.3319
 5413TIP3   OH237653   2.326   4.727  16.882 -0.1208  0.5669  0.3381
 5413TIP3    H137654   2.397   4.696  16.826 -0.5087 -1.5572  1.0126
 5413TIP3    H237655   2.369   4.748  16.966 -0.2658 -0.5247  0.6814
 5414TIP3   OH237656   1.300   2.202   2.466 -0.0399 -0.4030 -0.1504
 5414TIP3    H137657   1.284   2.295   2.485  0.4033 -0.3046 -0.2527
 5414TIP3    H237658   1.288   2.194   2.371  1.2612 -0.1720 -0.3415
 5415TIP3   OH237659   0.104   5.218   3.968 -0.0489  0.8109 -0.5881
 5415TIP3    H137660   0.102   5.170   3.885 -3.7750  0.8986 -0.6455
 5415TIP3    H237661   0.091   5.310   3.943  0.2010  1.0002 -0.0195
 5416TIP3   OH237662   1.392   6.119  10.742  0.1405  0.8510 -0.1455
 5416TIP3    H137663   1.442   6.092  10.665  3.6446  1.3802  1.8448
 5416TIP3    H237664   1.373   6.212  10.727  2.3654  1.4150  0.3880
 5417TIP3   OH237665   6.601   5.018  10.671  0.1643 -0.0771 -0.1893
 5417TIP3    H137666   6.659   4.948  10.701 -0.8598 -0.8212  0.0617
 5417TIP3    H237667   6.659   5.094  10.661  1.1660 -0.7858  0.1397
 5418TIP3   OH237668   2.802   0.841  12.736  0.1132 -0.2712  0.1922
 5418TIP3    H137669   2.722   0.796  12.709  0.6805 -0.2511 -1.6076
 5418TIP3    H237670   2.862   0.770  12.761  0.0789 -0.3758 -0.0217
 5419TIP3   OH237671   0.200   0.171   0.477 -0.1519 -0.3579 -0.4494
 5419TIP3    H137672   0.250   0.180   0.396  1.2535 -1.0820  0.3221
 5419TIP3    H237673   0.215   0.080   0.504  0.9646  0.4226  1.6421
 5420TIP3   OH237674   3.253   1.285   5.629 -0.3371  0.3974  0.3616
 5420TIP3    H137675   3.272   1.204   5.676  1.5261 -0.1336 -1.2659
 5420TIP3    H237676   3.172   1.268   5.582 -0.1643 -0.3720  0.3489
 5421TIP3   OH237677   6.018   0.693   4.229 -0.2385  0.0566 -0.5154
 5421TIP3    H137678   5.950   0.729   4.286  0.5789  0.7141  0.0560
 5421TIP3    H237679   6.073   0.641   4.287 -0.9864 -1.5459 -1.2075
 5422TIP3   OH237680   3.920   1.742   4.165  0.9618 -0.9071  0.0907
 5422TIP3    H137681   3.876   1.667   4.124  0.1059 -0.0836 -0.5265
 5422TIP3    H237682   4.008   1.710   4.186  1.6758 -1.1684 -3.0668
 5423TIP3   OH237683   0.689   6.578   1.829  0.2108  0.0023  0.0116
 5423TIP3    H137684   0.663   6.659   1.786 -0.4034  0.6682  1.6139
 5423TIP3    H237685   0.626   6.513   1.798  1.1138 -0.0419 -1.8000
 5424TIP3   OH237686   1.168   5.150  12.247 -0.2640 -0.3901 -0.0818
 5424TIP3    H137687   1.198   5.062  12.226 -0.0606 -0.2884 -0.2161
 5424TIP3    H237688   1.080   5.138  12.282 -0.1155 -0.6804  0.2049
 5425TIP3   OH237689   1.885   5.307  13.461  0.2947 -0.1288 -0.4303
 5425TIP3    H137690   1.951   5.250  13.500  1.5255  1.3254 -0.3528
 5425TIP3    H237691   1.803   5.282  13.503  0.8092 -1.8654 -0.4346
 5426TIP3   OH237692   1.363   3.882   0.338 -0.7221 -0.1489  0.6305
 5426TIP3    H137693   1.278   3.885   0.383  0.0512 -1.1061  2.2308
 5426TIP3    H237694   1.412   3.816   0.386  0.6655 -0.1592 -0.7751
 5427TIP3   OH237695   1.009   1.022  13.134  0.2243 -0.0588  0.1946
 5427TIP3    H137696   0.984   1.111  13.107 -0.4678  0.2878  1.8988
 5427TIP3    H237697   1.101   1.030  13.160 -0.3610  0.6221  2.1773
 5428TIP3   OH237698   1.860   3.671  11.614  0.4906 -0.2348 -0.6091
 5428TIP3    H137699   1.834   3.580  11.598  1.9378 -0.8014  0.1683
 5428TIP3    H237700   1.885   3.673  11.707  0.3463  0.9835 -0.5890
 5429TIP3   OH237701   2.126   2.630  11.245 -0.5168  0.0444 -0.0837
 5429TIP3    H137702   2.141   2.653  11.154 -1.0761 -1.1720 -0.4879
 5429TIP3    H237703   2.045   2.675  11.268 -0.4778  0.1951 -0.2387
 5430TIP3   OH237704   3.094   4.006   1.771 -0.5478 -0.2801  0.3133
 5430TIP3    H137705   3.132   4.052   1.846 -0.0148 -1.0874  0.5509
 5430TIP3    H237706   3.008   4.046   1.759 -1.1283 -0.9356  2.1049
 5431TIP3   OH237707   2.190   0.946  16.515  0.6412 -0.0899 -0.4813
 5431TIP3    H137708   2.249   0.972  16.586  0.4320 -0.1132 -0.2961
 5431TIP3    H237709   2.239   0.882  16.464 -0.1524 -2.0752  1.1687
 5432TIP3   OH237710   3.088   4.830   0.305 -0.0796 -0.0212  0.7604
 5432TIP3    H137711   3.089   4.920   0.337  0.9094  0.0938  0.4236
 5432TIP3    H237712   3.015   4.788   0.352 -1.3321  1.2650  0.0234
 5433TIP3   OH237713   2.937   0.763   4.424  0.2346 -0.2087  0.2596
 5433TIP3    H137714   2.904   0.851   4.439  0.7703 -0.1639  1.2403
 5433TIP3    H237715   2.893   0.709   4.489  0.6793 -0.4769  0.3434
 5434TIP3   OH237716   4.842   6.116  16.164  0.6363  0.3507 -0.0938
 5434TIP3    H137717   4.934   6.108  16.187  0.4251 -0.8208  0.3862
 5434TIP3    H237718   4.826   6.045  16.102 -0.0176  0.3465  0.0736
 5435TIP3   OH237719   0.043   3.029  14.904 -0.0406 -0.0988 -0.1274
 5435TIP3    H137720   0.052   2.937  14.931  0.4189  0.1614  0.6283
 5435TIP3    H237721   0.093   3.078  14.969 -3.6770  1.0744  1.9771
 5436TIP3   OH237722   0.134   1.733  15.202 -0.0704 -0.3484  0.2487
 5436TIP3    H137723   0.185   1.653  15.189 -1.5122 -1.1785 -0.4707
 5436TIP3    H237724   0.043   1.704  15.194 -0.6241  1.2653  0.6023
 5437TIP3   OH237725   5.939   4.230   1.096  0.6890  0.0972 -0.2641
 5437TIP3    H137726   6.002   4.303   1.100 -0.3207  0.9952 -0.3759
 5437TIP3    H237727   5.883   4.252   1.022  1.4644 -1.7258 -1.4119
 5438TIP3   OH237728   1.380   5.844   6.036  0.1939 -0.6372 -0.0122
 5438TIP3    H137729   1.286   5.863   6.043  0.6485  1.0979  1.8820
 5438TIP3    H237730   1.407   5.887   5.955 -0.0521  1.4760  1.0126
 5439TIP3   OH237731   0.761   5.483   4.010  0.2591  0.1776  0.0609
 5439TIP3    H137732   0.723   5.570   4.001  0.7874  0.5278  1.1315
 5439TIP3    H237733   0.756   5.445   3.922 -1.3734  0.7004 -0.0827
 5440TIP3   OH237734   4.724   4.345   0.971 -0.5818 -0.0246 -0.0219
 5440TIP3    H137735   4.664   4.391   0.912 -0.2527 -0.3416 -0.6080
 5440TIP3    H237736   4.766   4.415   1.021 -0.1858  0.3073 -0.8127
 5441TIP3   OH237737   0.023   0.127  15.557 -0.5262 -0.3734  0.1428
 5441TIP3    H137738   0.013   0.214  15.518 -0.3452 -0.9365 -1.1852
 5441TIP3    H237739   0.076   0.142  15.635  0.4799  0.5502 -0.6979
 5442TIP3   OH237740   3.704   1.697   3.686  0.4889 -0.1174 -0.4007
 5442TIP3    H137741   3.735   1.657   3.604 -0.5624 -0.2426 -0.7463
 5442TIP3    H237742   3.696   1.790   3.666  0.1013 -0.1679 -0.4792
 5443TIP3   OH237743   0.034   3.302  12.744  0.2998  0.3433 -0.2846
 5443TIP3    H137744   0.083   3.308  12.662  0.1669  0.5277 -0.3492
 5443TIP3    H237745  -0.022   3.379  12.746  0.2032  0.2708 -0.0835
 5444TIP3   OH237746   4.449   1.416   4.927  0.6770 -0.6604  0.5880
 5444TIP3    H137747   4.383   1.372   4.874 -2.2449  1.8612  1.9624
 5444TIP3    H237748   4.483   1.485   4.871  0.4375 -0.4855  0.6560
 5445TIP3   OH237749   0.175   4.547   3.251 -1.0057 -0.0197  0.2717
 5445TIP3    H137750   0.220   4.586   3.326 -1.8356 -0.0594  0.7918
 5445TIP3    H237751   0.231   4.474   3.225 -1.4621 -0.9218  1.7805
 5446TIP3   OH237752   3.642   4.481  13.139 -0.4255  0.2319  0.4288
 5446TIP3    H137753   3.645   4.463  13.233  0.3355 -0.6065  0.2467
 5446TIP3    H237754   3.678   4.402  13.098  2.8553  2.0396 -0.3859
 5447TIP3   OH237755   2.467   6.272  10.914  0.2683  0.0049 -0.3699
 5447TIP3    H137756   2.504   6.279  11.002  3.2147  1.5008 -1.6560
 5447TIP3    H237757   2.428   6.185  10.911  2.0228 -0.8848  1.7119
 5448TIP3   OH237758   1.667   3.330  13.840 -0.5660 -0.2595  0.4570
 5448TIP3    H137759   1.727   3.402  13.819  0.8340 -0.8029  2.4335
 5448TIP3    H237760   1.687   3.263  13.776 -1.2277  0.7358 -0.8141
 5449TIP3   OH237761   5.999   4.601   6.033 -0.0319 -0.0526  0.3474
 5449TIP3    H137762   5.968   4.566   5.949  1.9541 -0.9318 -0.0645
 5449TIP3    H237763   5.974   4.534   6.097  1.3978 -1.0098 -0.0575
 5450TIP3   OH237764   1.439   0.360   1.995  0.5598  0.0728 -0.1390
 5450TIP3    H137765   1.468   0.420   1.926 -2.0515  0.6151 -0.8137
 5450TIP3    H237766   1.404   0.416   2.063 -2.1786 -0.6427 -0.8983
 5451TIP3   OH237767   5.806   3.922   3.823  0.3789 -0.4443 -0.4475
 5451TIP3    H137768   5.720   3.963   3.825  1.7405  2.5172  1.8284
 5451TIP3    H237769   5.845   3.954   3.741  0.2487  0.3205 -0.2205
 5452TIP3   OH237770   4.237   5.623   2.549  0.1043  0.0664  0.3232
 5452TIP3    H137771   4.304   5.555   2.545 -1.3694 -1.5183  1.9442
 5452TIP3    H237772   4.261   5.676   2.625 -0.1557 -0.1535  0.5592
 5453TIP3   OH237773   3.185   1.226   0.475  0.3379  0.6330  0.4138
 5453TIP3    H137774   3.175   1.242   0.381  1.7182 -1.4264 -0.1126
 5453TIP3    H237775   3.100   1.194   0.504  0.6393 -1.2491 -0.7049
 5454TIP3   OH237776   6.496   2.336   2.415  0.0240  0.7007 -0.2022
 5454TIP3    H137777   6.490   2.297   2.328  1.1029  0.0504  0.0101
 5454TIP3    H237778   6.427   2.292   2.465  0.3896 -0.0043 -0.3158
 5455TIP3   OH237779   6.486   5.637   4.169  0.0790  0.3377 -0.6300
 5455TIP3    H137780   6.414   5.574   4.159 -0.2576  0.5591  0.3558
 5455TIP3    H237781   6.495   5.677   4.083  0.7331 -1.5166 -1.4555
 5456TIP3   OH237782   0.473   6.613   0.815 -0.3027  0.2533 -0.0730
 5456TIP3    H137783   0.511   6.632   0.901 -0.6021  0.1193  0.0901
 5456TIP3    H237784   0.542   6.565   0.769  0.0713  0.8197 -0.1161
 5457TIP3   OH237785   5.956   2.782   1.774 -0.0473  0.6234 -0.1645
 5457TIP3    H137786   5.873   2.828   1.786  0.3763  1.8983 -2.1084
 5457TIP3    H237787   5.944   2.732   1.693  0.9825  0.5870 -0.2919
 5458TIP3   OH237788   5.027   4.004   0.148 -0.4562  0.4422 -0.0593
 5458TIP3    H137789   5.019   4.073   0.082  0.2618  2.2455  1.6900
 5458TIP3    H237790   5.120   3.985   0.151 -0.8516 -2.1336 -1.9872
 5459TIP3   OH237791   0.875   1.734   5.943  0.9222 -0.1143  0.3479
 5459TIP3    H137792   0.781   1.714   5.942  1.1515 -1.2423  0.2833
 5459TIP3    H237793   0.895   1.754   5.851  1.0995 -1.6898  0.0201
 5460TIP3   OH237794   2.785   4.855   1.042 -0.2751 -0.1659 -0.0486
 5460TIP3    H137795   2.737   4.920   0.989  0.9041  1.5500  0.9222
 5460TIP3    H237796   2.733   4.848   1.122  0.2797  0.5702  0.3823
 5461TIP3   OH237797   3.658   5.908   3.989  0.0845 -0.6496 -0.3216
 5461TIP3    H137798   3.572   5.948   3.978  0.2675 -0.4620 -1.1149
 5461TIP3    H237799   3.666   5.848   3.915  1.1152  0.2032 -0.9047
 5462TIP3   OH237800   3.083   6.579  16.192  0.1957 -0.3561  0.0299
 5462TIP3    H137801   3.122   6.664  16.175 -1.7960  0.6601  0.3846
 5462TIP3    H237802   3.110   6.525  16.117  0.3422  0.9936 -0.9175
 5463TIP3   OH237803   3.094   5.925   0.673 -0.1505 -0.2594  0.6647
 5463TIP3    H137804   3.176   5.930   0.624 -0.9193 -0.4089 -0.6575
 5463TIP3    H237805   3.051   5.846   0.641 -1.2375  0.3102  0.6826
 5464TIP3   OH237806   2.463   0.535  15.737  0.1507  0.3884  0.2840
 5464TIP3    H137807   2.520   0.605  15.770 -0.1655  1.6318 -1.7427
 5464TIP3    H237808   2.383   0.580  15.709 -0.9662 -1.0799  1.0537
 5465TIP3   OH237809   3.486   1.900  13.376  0.0461 -0.0558  0.0260
 5465TIP3    H137810   3.403   1.870  13.339  0.1370 -2.1191  1.4394
 5465TIP3    H237811   3.542   1.822  13.378  1.3000  0.8314  1.0681
 5466TIP3   OH237812   4.327   5.171  13.670  0.1771 -0.2524 -0.1833
 5466TIP3    H137813   4.335   5.256  13.714 -2.0785 -0.2649  0.3446
 5466TIP3    H237814   4.232   5.157  13.664  0.5266 -2.4262 -0.8603
 5467TIP3   OH237815   0.555   1.675  12.576 -0.2619  0.0794  0.3173
 5467TIP3    H137816   0.649   1.695  12.573 -0.5139  1.2812  0.4658
 5467TIP3    H237817   0.548   1.590  12.532  0.7869  0.4103 -0.5264
 5468TIP3   OH237818   4.815   5.771  15.507 -0.2989 -0.0850 -0.1898
 5468TIP3    H137819   4.759   5.842  15.538  1.1565  0.6049  0.9679
 5468TIP3    H237820   4.758   5.694  15.505 -1.2496  0.5648  1.1356
 5469TIP3   OH237821   3.756   1.432  13.677  0.2805 -0.0373 -0.2186
 5469TIP3    H137822   3.693   1.361  13.686  0.2508  0.1241  0.9695
 5469TIP3    H237823   3.707   1.511  13.700  0.7135  0.1841 -0.0504
 5470TIP3   OH237824   6.493   1.115  13.442  0.3699 -0.2364  0.0098
 5470TIP3    H137825   6.425   1.122  13.508  1.4281  0.4719  1.0512
 5470TIP3    H237826   6.561   1.062  13.483  0.5288 -0.7728 -0.9442
 5471TIP3   OH237827   5.424   1.674  16.493 -0.4425 -0.1893 -0.3757
 5471TIP3    H137828   5.488   1.632  16.550  0.1077  2.1834  0.8104
 5471TIP3    H237829   5.475   1.706  16.419 -0.6497 -0.4563 -0.6350
 5472TIP3   OH237830   4.440   4.017   1.200  0.5283  0.5430 -0.7288
 5472TIP3    H137831   4.512   4.035   1.261 -1.3961  2.4302  1.0606
 5472TIP3    H237832   4.398   3.939   1.235  0.5291  0.5820 -0.6393
 5473TIP3   OH237833   6.596   0.533  11.075 -0.4092 -0.1827 -0.2648
 5473TIP3    H137834   6.596   0.556  10.982  0.0189 -0.2393 -0.2797
 5473TIP3    H237835   6.670   0.473  11.084 -1.1705 -1.0869 -0.1099
 5474TIP3   OH237836   1.370   2.956  14.993  0.2525 -0.2368 -0.0275
 5474TIP3    H137837   1.424   2.877  15.000  1.3652  0.3682 -1.5688
 5474TIP3    H237838   1.342   2.973  15.083 -0.1471 -2.4803  0.3020
 5475TIP3   OH237839   4.907   2.699   6.061 -0.1744  0.2113 -0.3095
 5475TIP3    H137840   4.941   2.621   6.105  0.0299  0.4340 -0.0644
 5475TIP3    H237841   4.892   2.761   6.132  0.3559  0.6494 -0.5744
 5476TIP3   OH237842   0.703   1.045   5.933 -0.0569  0.3097  0.0652
 5476TIP3    H137843   0.671   1.107   5.999 -2.2993  1.2279 -1.8271
 5476TIP3    H237844   0.795   1.068   5.922 -0.1227  1.3435  1.5347
 5477TIP3   OH237845   4.998   2.396  12.671  0.7018  0.2626  0.1427
 5477TIP3    H137846   5.045   2.414  12.589  3.8968  1.0129  2.0515
 5477TIP3    H237847   4.938   2.470  12.680  1.0205  0.6859 -1.0310
 5478TIP3   OH237848   3.313   1.602  15.765 -0.1915  0.5835 -0.2679
 5478TIP3    H137849   3.286   1.684  15.806 -0.5191 -0.1535  1.0211
 5478TIP3    H237850   3.232   1.556  15.745  0.0044 -0.1371  0.5174
 5479TIP3   OH237851   4.038   4.502  14.672  0.0527  0.4395  0.7731
 5479TIP3    H137852   4.007   4.499  14.581  0.7539  0.4004  0.5371
 5479TIP3    H237853   3.978   4.563  14.715 -0.7377 -0.1028  0.4611
 5480TIP3   OH237854   1.240   1.906  15.348 -0.4226  0.1654  0.4147
 5480TIP3    H137855   1.202   1.947  15.425  1.1159 -0.4846  1.5430
 5480TIP3    H237856   1.261   1.816  15.375 -0.2018 -0.1914 -0.8598
 5481TIP3   OH237857   3.945   1.216  12.825 -0.2182  0.1623 -0.4959
 5481TIP3    H137858   4.024   1.225  12.879 -0.7181  0.3238  0.2109
 5481TIP3    H237859   3.978   1.193  12.738  0.4474 -3.6269  0.6826
 5482TIP3   OH237860   2.623   2.274  13.726  0.0370  0.6169  0.1132
 5482TIP3    H137861   2.595   2.185  13.704  0.2834  0.9902 -1.8039
 5482TIP3    H237862   2.547   2.314  13.769 -0.3452 -0.2508  0.2467
 5483TIP3   OH237863   1.421   2.841  13.180  0.5697  0.2066 -0.0840
 5483TIP3    H137864   1.432   2.762  13.231 -0.6340  0.4460  0.5771
 5483TIP3    H237865   1.351   2.820  13.117  0.2335  0.7351  0.1056
 5484TIP3   OH237866   3.158   5.304  12.203 -0.7957 -0.0058  0.0346
 5484TIP3    H137867   3.214   5.377  12.176 -0.2859 -0.1459  0.7132
 5484TIP3    H237868   3.119   5.273  12.121 -0.2437  0.3913 -0.3839
 5485TIP3   OH237869   5.345   5.213  13.997  0.0277  0.3714  0.0944
 5485TIP3    H137870   5.429   5.235  13.956  0.0848 -2.4394 -1.4587
 5485TIP3    H237871   5.281   5.265  13.949  0.7592  1.8362  0.6722
 5486TIP3   OH237872   1.648   5.423  16.057  0.1866  0.2242  0.0163
 5486TIP3    H137873   1.590   5.352  16.084  0.3853  0.3592  0.8018
 5486TIP3    H237874   1.717   5.380  16.006 -0.8491  0.1199 -1.3162
 5487TIP3   OH237875   2.186   6.676   5.670 -0.2045  0.5569 -0.1631
 5487TIP3    H137876   2.230   6.591   5.677  1.3077  1.3830  0.7013
 5487TIP3    H237877   2.162   6.683   5.577 -1.3052 -1.2635 -0.0317
 5488TIP3   OH237878   0.473   2.005   4.756  0.1483  0.5028 -0.3645
 5488TIP3    H137879   0.521   2.064   4.814 -0.5677  0.2844  0.4575
 5488TIP3    H237880   0.410   2.061   4.711 -1.6746  0.1261  1.6397
 5489TIP3   OH237881   5.943   4.933   4.115 -0.0480  0.2231  0.3430
 5489TIP3    H137882   5.922   4.866   4.050  0.9618  0.0136  0.2247
 5489TIP3    H237883   5.865   4.988   4.119 -0.3767 -0.1725 -0.5335
 5490TIP3   OH237884   1.577   1.061   2.626  0.0144 -0.2442  0.1595
 5490TIP3    H137885   1.586   1.140   2.574  0.8484 -0.7594 -0.4861
 5490TIP3    H237886   1.640   1.071   2.697  1.0951 -0.9436 -0.6984
 5491TIP3   OH237887   6.427   5.056   0.047  0.4312 -0.2051  0.2309
 5491TIP3    H137888   6.464   5.058  -0.041 -1.4148 -1.2907 -0.5960
 5491TIP3    H237889   6.415   5.148   0.069 -0.0443  0.0647 -1.0797
 5492TIP3   OH237890   2.734   2.147  15.108 -0.0211 -0.0451 -0.2000
 5492TIP3    H137891   2.716   2.233  15.146  1.5138  0.0880  0.2865
 5492TIP3    H237892   2.818   2.158  15.063  1.1730 -1.7522  1.5058
 5493TIP3   OH237893   3.855   6.323  14.928 -0.0903 -0.1389 -0.3571
 5493TIP3    H137894   3.883   6.380  14.857 -0.8910  1.8337  0.8631
 5493TIP3    H237895   3.760   6.327  14.927 -0.0890  0.9430  1.6208
 5494TIP3   OH237896   1.108   0.829   5.763  0.3444  0.2870 -0.0062
 5494TIP3    H137897   1.198   0.797   5.751 -0.4809 -1.5345 -1.4911
 5494TIP3    H237898   1.075   0.779   5.838  1.0528  2.0856  1.5540
 5495TIP3   OH237899   5.634   4.006  14.278  0.2836 -0.0976  0.2451
 5495TIP3    H137900   5.632   4.031  14.186 -1.3445  2.0151  0.7940
 5495TIP3    H237901   5.686   4.074  14.321 -2.3631  1.2706  1.4423
 5496TIP3   OH237902   4.524   1.583   0.109 -0.1426 -0.4246  0.5634
 5496TIP3    H137903   4.430   1.564   0.107  0.0996 -1.6205  0.4251
 5496TIP3    H237904   4.547   1.597   0.017 -0.0401 -0.8744  0.5189
 5497TIP3   OH237905   5.031   3.177   5.994  0.1534 -0.0592  0.3441
 5497TIP3    H137906   4.947   3.195   6.037 -0.8110 -0.7032 -1.1982
 5497TIP3    H237907   5.039   3.081   5.997  0.0557 -0.1203 -0.8912
 5498TIP3   OH237908   5.908   3.162   0.191 -0.6063  0.0408 -0.4883
 5498TIP3    H137909   5.933   3.251   0.213 -0.6844  0.4543 -2.0287
 5498TIP3    H237910   5.965   3.107   0.246 -3.1305  1.0092  3.2317
 5499TIP3   OH237911   2.202   4.033  15.438  0.6171  0.0297 -0.5516
 5499TIP3    H137912   2.208   4.003  15.529  0.0176 -0.2237 -0.5935
 5499TIP3    H237913   2.128   4.094  15.438 -1.8090 -2.7889 -1.6268
 5500TIP3   OH237914   5.324   6.613   5.087  0.2752  0.1194 -0.1833
 5500TIP3    H137915   5.326   6.530   5.134 -0.9398  0.6989  0.9396
 5500TIP3    H237916   5.388   6.603   5.017  0.0344 -1.8108 -0.1540
 5501TIP3   OH237917   1.484   0.553   1.768 -0.4849 -0.3279  0.0245
 5501TIP3    H137918   1.409   0.602   1.733  0.2203  0.7860  0.0654
 5501TIP3    H237919   1.523   0.511   1.692 -0.1954  0.4017 -0.2337
 5502TIP3   OH237920   4.147   3.987  13.569 -0.5185  0.1288  0.5606
 5502TIP3    H137921   4.222   4.044  13.589  0.6210 -1.4733  0.8866
 5502TIP3    H237922   4.081   4.047  13.532  1.3210  1.3887 -0.7617
 5503TIP3   OH237923   0.865   1.725   0.464  0.7094 -0.0491  0.1437
 5503TIP3    H137924   0.874   1.705   0.371 -0.2319 -0.2429  0.0810
 5503TIP3    H237925   0.828   1.814   0.465 -1.6593 -0.9840  0.2529
 5504TIP3   OH237926   6.064   3.162   4.925 -0.4862  0.1828  0.5747
 5504TIP3    H137927   6.137   3.217   4.953 -0.1464 -1.5840  3.3958
 5504TIP3    H237928   6.100   3.106   4.856  0.4364  0.3601  0.9128
 5505TIP3   OH237929   5.661   5.789   3.435  0.2649 -0.7072 -0.3186
 5505TIP3    H137930   5.705   5.872   3.453  0.0631 -0.6181 -0.2379
 5505TIP3    H237931   5.569   5.807   3.449 -0.0431 -0.2565 -2.8082
 5506TIP3   OH237932   4.783   1.672   4.833  0.2222 -1.0631  0.9128
 5506TIP3    H137933   4.806   1.751   4.882 -0.7587 -1.3592  1.8771
 5506TIP3    H237934   4.687   1.666   4.841  0.3614 -2.7924  1.5738
 5507TIP3   OH237935   5.908   3.299  12.723  0.0276  0.3122 -0.1867
 5507TIP3    H137936   5.938   3.248  12.798  0.1928 -0.6094 -0.8693
 5507TIP3    H237937   5.955   3.381  12.729  0.1538  0.1830  0.6366
 5508TIP3   OH237938   5.333   2.654  15.639 -0.6372  0.5126 -0.1458
 5508TIP3    H137939   5.305   2.571  15.600  0.7855  0.3696 -0.9208
 5508TIP3    H237940   5.361   2.707  15.565 -0.8464  1.4261  0.4144
 5509TIP3   OH237941   3.702   1.457   3.459 -0.1702 -0.1597  0.4071
 5509TIP3    H137942   3.749   1.536   3.433  2.0166 -1.8097 -0.8153
 5509TIP3    H237943   3.629   1.452   3.397  0.4523  0.1809 -0.3671
 5510TIP3   OH237944   4.554   3.737   6.258 -0.3258 -0.1933 -0.0250
 5510TIP3    H137945   4.628   3.698   6.211  0.5242  3.0920 -1.6092
 5510TIP3    H237946   4.595   3.785   6.330 -0.9468  0.9199 -0.3955
 5511TIP3   OH237947   6.700   5.408  14.483 -0.2938 -0.2325  0.0004
 5511TIP3    H137948   6.762   5.455  14.539 -0.1235  0.1212 -0.4807
 5511TIP3    H237949   6.617   5.454  14.495 -0.7098 -1.2951  1.3925
 5512TIP3   OH237950   6.022   0.812   2.331 -0.0735 -0.0648  0.1288
 5512TIP3    H137951   5.988   0.887   2.282  1.4359  0.6397  0.1210
 5512TIP3    H237952   6.085   0.851   2.392  0.9497 -1.3669 -0.0846
 5513TIP3   OH237953   6.203   2.419   3.058  0.1869  0.0510 -0.1727
 5513TIP3    H137954   6.214   2.335   3.103 -0.9631 -0.1495 -0.2559
 5513TIP3    H237955   6.134   2.464   3.107  0.7131  0.8977 -0.2064
 5514TIP3   OH237956   5.228   4.236  12.271 -0.0013  0.0668  0.2631
 5514TIP3    H137957   5.190   4.288  12.200  0.7275  1.1365  0.6442
 5514TIP3    H237958   5.196   4.277  12.351 -1.1187 -1.3671  0.5583
 5515TIP3   OH237959   3.416   2.778  13.293  0.3389  0.0688  0.4045
 5515TIP3    H137960   3.482   2.800  13.359  1.0514  0.6871 -0.5096
 5515TIP3    H237961   3.464   2.780  13.210 -0.9249  0.9514 -0.3095
 5516TIP3   OH237962   4.949   0.246  15.704 -0.1627 -0.2853  0.2090
 5516TIP3    H137963   4.901   0.165  15.724  0.1921 -0.4628  0.3357
 5516TIP3    H237964   5.018   0.250  15.770 -1.8715  1.5620  1.9931
 5517TIP3   OH237965   2.992   1.053   1.859 -0.1851  0.1304  0.2452
 5517TIP3    H137966   2.968   1.134   1.812  0.9277  0.7624  0.7437
 5517TIP3    H237967   3.085   1.064   1.878  0.0733 -1.4861 -0.0858
 5518TIP3   OH237968   0.140   3.673  12.478 -0.5535  0.4291 -0.0608
 5518TIP3    H137969   0.230   3.672  12.445 -0.5886 -0.3139 -0.1286
 5518TIP3    H237970   0.086   3.670  12.399 -0.6371 -0.7255  0.0321
 5519TIP3   OH237971   4.848   4.371   1.838  0.5549 -0.0980  0.6244
 5519TIP3    H137972   4.823   4.446   1.785 -0.1387  0.0734  1.1776
 5519TIP3    H237973   4.767   4.321   1.848  0.7427 -0.2819  1.2574
 5520TIP3   OH237974   0.502   1.193  13.332  0.4256  0.3139  0.1306
 5520TIP3    H137975   0.553   1.241  13.267  0.6136  1.8081  1.3389
 5520TIP3    H237976   0.522   1.101  13.315  3.0597  0.8218  0.1659
 5521TIP3   OH237977   2.890   0.353   6.648  0.8248 -0.3948 -0.4439
 5521TIP3    H137978   2.981   0.326   6.633  0.4896 -1.4079 -0.6970
 5521TIP3    H237979   2.847   0.337   6.564 -0.0745 -1.9656  0.2853
 5522TIP3   OH237980   2.915   4.657  16.660 -0.2136 -0.7055  0.4516
 5522TIP3    H137981   2.938   4.750  16.654  0.7262 -0.8905  0.9793
 5522TIP3    H237982   2.901   4.629  16.570  0.9964 -0.4065  0.1665
 5523TIP3   OH237983   2.921   3.385   0.197  0.6274  0.0123 -0.1767
 5523TIP3    H137984   2.865   3.320   0.156  0.8259  0.2011 -0.7509
 5523TIP3    H237985   2.909   3.464   0.145  0.6179  0.3489  0.3347
 5524TIP3   OH237986   2.195   4.669  12.351  0.1710 -0.2934 -0.1810
 5524TIP3    H137987   2.188   4.724  12.273  0.2126  0.5318  0.3982
 5524TIP3    H237988   2.105   4.645  12.371  0.1449 -0.3583 -0.3676
 5525TIP3   OH237989   4.135   6.008   1.725  1.1458 -0.0522 -0.3404
 5525TIP3    H137990   4.189   5.983   1.650  0.5888 -2.0565 -0.1036
 5525TIP3    H237991   4.172   5.958   1.799  0.9038  0.9367  0.4622
 5526TIP3   OH237992   0.943   6.512   3.267  0.5761 -0.3824  0.2242
 5526TIP3    H137993   0.923   6.553   3.351  1.2669 -1.1652  0.7793
 5526TIP3    H237994   0.873   6.543   3.209  1.2362  1.7693  0.5377
 5527TIP3   OH237995   5.166   0.261  14.715 -0.3233 -0.0314  0.1319
 5527TIP3    H137996   5.234   0.238  14.779 -1.1921  3.2945  2.3965
 5527TIP3    H237997   5.212   0.315  14.650  0.0462 -1.4026 -0.7802
 5528TIP3   OH237998   6.660   5.496  16.997  0.3644 -0.3659 -0.6665
 5528TIP3    H137999   6.653   5.568  16.935  0.6203  0.5627  0.3633
 5528TIP3    H238000   6.575   5.492  17.040  0.3254 -0.7301 -0.7717
 5529TIP3   OH238001   1.392   0.252   5.841 -0.1683  0.0704 -0.6394
 5529TIP3    H138002   1.378   0.186   5.908 -1.0667 -0.3444 -1.2096
 5529TIP3    H238003   1.317   0.311   5.849  0.9320  1.3748  0.2557
 5530TIP3   OH238004   4.893   5.112   3.807 -0.3627 -0.1136 -0.0098
 5530TIP3    H138005   4.960   5.082   3.868  1.5349  0.2829 -1.8421
 5530TIP3    H238006   4.845   5.033   3.782  1.0150 -0.8074 -0.5339
 5531TIP3   OH238007   4.114   2.310   5.008  0.4288  0.0057 -0.1390
 5531TIP3    H138008   4.195   2.313   4.957  1.1601  0.7019  1.0323
 5531TIP3    H238009   4.138   2.349   5.092 -1.0376 -0.1189  0.3431
 5532TIP3   OH238010   6.164   2.449   5.215  0.2182  0.4417 -0.5471
 5532TIP3    H138011   6.150   2.434   5.121  2.1128 -0.4451 -0.7058
 5532TIP3    H238012   6.177   2.362   5.251  3.1427  1.0386 -0.0848
 5533TIP3   OH238013   0.738   1.030   3.834 -0.1636  0.3740  0.6413
 5533TIP3    H138014   0.678   1.059   3.903  0.2334 -0.8882  1.5378
 5533TIP3    H238015   0.702   0.947   3.804 -0.7439  1.2812 -1.2120
 5534TIP3   OH238016   5.203   0.415   4.184 -0.2633  0.0101  0.5126
 5534TIP3    H138017   5.234   0.497   4.147  0.9451  0.1392  1.7641
 5534TIP3    H238018   5.283   0.364   4.200 -0.7991 -0.3753  2.1167
 5535TIP3   OH238019   0.206   2.408  13.287 -0.5322  0.3300 -0.4819
 5535TIP3    H138020   0.115   2.404  13.260 -0.8725  0.1834  0.6786
 5535TIP3    H238021   0.204   2.444  13.376  0.5853  0.9655 -0.6966
 5536TIP3   OH238022   4.504   1.140  11.721  0.3232  0.5650  0.0672
 5536TIP3    H138023   4.502   1.051  11.684  1.5143  0.7781 -0.5440
 5536TIP3    H238024   4.573   1.184  11.672  1.2368  1.1712  1.8617
 5537TIP3   OH238025   2.331   1.045  15.031  0.2666 -0.0637  0.6084
 5537TIP3    H138026   2.416   1.072  14.995 -0.1979  0.7834  0.1345
 5537TIP3    H238027   2.272   1.118  15.011 -0.5868 -0.6671  0.9002
 5538TIP3   OH238028   4.717   2.816  11.423  0.0625 -0.2138  0.0379
 5538TIP3    H138029   4.810   2.822  11.399  0.2789  2.5639  1.4231
 5538TIP3    H238030   4.677   2.893  11.382 -1.7526 -1.5944 -0.8802
 5539TIP3   OH238031   4.117   5.216   2.733 -0.0381  0.0984  0.0397
 5539TIP3    H138032   4.043   5.203   2.792 -0.3357  0.8997 -0.1535
 5539TIP3    H238033   4.100   5.301   2.692  0.6760  0.0007 -0.4548
 5540TIP3   OH238034   3.260   4.391  13.606 -0.2940 -0.0972  0.5884
 5540TIP3    H138035   3.242   4.451  13.679 -2.0725  1.1672 -0.8722
 5540TIP3    H238036   3.224   4.434  13.529  2.7124 -0.8110 -1.3147
 5541TIP3   OH238037   5.013   0.889   5.405  0.5000  0.2791  0.7246
 5541TIP3    H138038   5.076   0.821   5.431  0.2044  0.3758  1.7348
 5541TIP3    H238039   4.962   0.848   5.336 -1.1145 -1.3497  2.8013
 5542TIP3   OH238040   6.639   0.553  12.671 -0.1297 -0.4550 -0.2178
 5542TIP3    H138041   6.691   0.542  12.751  1.0021  1.8764 -0.5992
 5542TIP3    H238042   6.699   0.535  12.599 -0.9718 -1.8810 -0.5859
 5543TIP3   OH238043   0.405   1.634   4.229  0.1291 -0.1570 -0.2685
 5543TIP3    H138044   0.362   1.559   4.270  0.9829 -0.3463  0.3047
 5543TIP3    H238045   0.375   1.710   4.279  0.1265 -0.2455 -0.1349
 5544TIP3   OH238046   5.985   2.665   4.876  0.7423 -0.3084 -0.2002
 5544TIP3    H138047   5.902   2.658   4.922  0.8715 -1.4744 -0.1229
 5544TIP3    H238048   5.971   2.734   4.811  0.3934  0.9874  1.2224
 5545TIP3   OH238049   0.058   6.771   1.832 -0.0069  0.2211  0.3159
 5545TIP3    H138050   0.135   6.735   1.787 -0.2555 -0.8221  0.7058
 5545TIP3    H238051   0.004   6.695   1.850 -0.5923  0.8196  1.0805
 5546TIP3   OH238052   2.270   1.827   1.993  0.5808  0.3827  0.2826
 5546TIP3    H138053   2.321   1.769   1.936 -0.4296 -0.4156  0.1800
 5546TIP3    H238054   2.313   1.819   2.079 -0.0469 -1.1735  0.4708
 5547TIP3   OH238055   5.810   1.009   2.978 -0.2456 -0.0824  0.1673
 5547TIP3    H138056   5.727   1.017   2.931  0.5635 -0.9945 -1.4566
 5547TIP3    H238057   5.795   0.939   3.042 -1.2988  1.0445  1.1737
 5548TIP3   OH238058   1.227   6.172   1.393 -0.0776  0.5442  0.4099
 5548TIP3    H138059   1.236   6.221   1.475 -1.2104  0.7765  0.3923
 5548TIP3    H238060   1.230   6.239   1.325 -1.2827  0.5677  0.3697
 5549TIP3   OH238061   2.827   5.924   4.624 -0.8971 -0.4523  0.0827
 5549TIP3    H138062   2.812   6.016   4.600  2.0317  0.9882  3.3339
 5549TIP3    H238063   2.802   5.875   4.546 -3.7220  2.9865 -1.3389
 5550TIP3   OH238064   3.684   2.737   5.480  0.3800 -0.4611  0.3580
 5550TIP3    H138065   3.621   2.747   5.552  0.3388  1.0471  0.1435
 5550TIP3    H238066   3.642   2.782   5.406  1.1638 -0.5188 -0.1250
 5551TIP3   OH238067   1.813   0.070  11.314  0.2985 -0.5399 -0.3745
 5551TIP3    H138068   1.750   0.017  11.266  2.3263 -2.7956 -0.6491
 5551TIP3    H238069   1.876   0.098  11.248  1.9045 -1.8502  0.5669
 5552TIP3   OH238070   0.314   5.830   4.685  0.2033  0.4259 -0.1773
 5552TIP3    H138071   0.358   5.754   4.723  0.2470  0.8389  0.6129
 5552TIP3    H238072   0.230   5.796   4.655  1.3185 -0.5141 -2.3127
 5553TIP3   OH238073   1.166   0.421  11.238 -0.3803 -0.7388 -0.2747
 5553TIP3    H138074   1.200   0.337  11.268  1.5917 -0.9191 -2.8079
 5553TIP3    H238075   1.179   0.419  11.143  0.4971  2.7708 -0.2844
 5554TIP3   OH238076   3.331   6.605  14.705 -0.4113  0.2785  0.0967
 5554TIP3    H138077   3.297   6.558  14.629 -0.6180  0.0572  0.3264
 5554TIP3    H238078   3.278   6.684  14.710 -1.2163 -0.2897  0.7352
 5555TIP3   OH238079   6.667   6.253  14.826  0.4232  0.4880  0.5793
 5555TIP3    H138080   6.714   6.180  14.784  0.8349  0.8882  0.3415
 5555TIP3    H238081   6.681   6.240  14.919 -0.9516 -0.7222  0.6360
 5556TIP3   OH238082   3.062   5.635   1.300 -0.0596  0.5303  0.2545
 5556TIP3    H138083   3.153   5.612   1.280 -0.7325 -0.9894 -1.2505
 5556TIP3    H238084   3.053   5.618   1.393  1.0344  0.0090  0.2767
 5557TIP3   OH238085   0.060   1.789  13.941 -0.2192 -0.2404  0.0568
 5557TIP3    H138086  -0.004   1.794  13.869  1.2954 -0.5683 -1.3334
 5557TIP3    H238087   0.061   1.696  13.965  1.6644 -0.6990 -1.7163
 5558TIP3   OH238088   2.845   1.253  12.344 -0.2449 -0.6188 -0.4619
 5558TIP3    H138089   2.936   1.268  12.319 -0.1895 -3.5616 -2.2903
 5558TIP3    H238090   2.846   1.167  12.387 -2.0723 -0.4371 -0.0019
 5559TIP3   OH238091   4.434   3.578   0.013 -0.5303 -0.4638  0.1459
 5559TIP3    H138092   4.354   3.622   0.041 -1.9704 -3.7131  1.4061
 5559TIP3    H238093   4.490   3.578   0.090  0.1239  0.5412 -0.3199
 5560TIP3   OH238094   6.720   4.634  12.221  0.3337 -1.1672  0.0951
 5560TIP3    H138095   6.775   4.571  12.268 -1.2373 -2.0903  0.7397
 5560TIP3    H238096   6.643   4.644  12.277  1.7702  3.4964  1.4649
 5561TIP3   OH238097   3.045   2.774   5.980  0.4296  0.6731  0.4759
 5561TIP3    H138098   2.963   2.750   5.937  0.2132  1.1239  0.6350
 5561TIP3    H238099   3.021   2.791   6.071  0.7840  0.3195  0.6391
 5562TIP3   OH238100   0.172   4.235  13.959  0.2315  0.6699  0.4849
 5562TIP3    H138101   0.120   4.315  13.949  0.3889  0.9115  1.5840
 5562TIP3    H238102   0.189   4.207  13.869 -2.2879  0.2573  0.0917
 5563TIP3   OH238103   0.594   0.037   1.736  0.7656 -0.0381 -0.6039
 5563TIP3    H138104   0.630   0.078   1.657  0.6427  1.7326  0.2611
 5563TIP3    H238105   0.582   0.108   1.798 -1.9225 -0.9740  0.0125
 5564TIP3   OH238106   5.649   3.701   4.635  0.6038 -0.0309  0.6128
 5564TIP3    H138107   5.593   3.775   4.611 -1.8372 -2.5297 -1.8322
 5564TIP3    H238108   5.682   3.669   4.551 -1.5636 -4.0911  1.2172
 5565TIP3   OH238109   1.345   1.004   5.958  0.1850  0.2609  0.7790
 5565TIP3    H138110   1.259   1.036   5.931  0.2654 -1.2943 -1.4390
 5565TIP3    H238111   1.326   0.927   6.012  0.1789  0.3951  0.9711
 5566TIP3   OH238112   2.210   4.344  16.535  0.4735 -0.2831 -0.7278
 5566TIP3    H138113   2.172   4.326  16.621 -0.6036  0.3632 -1.0600
 5566TIP3    H238114   2.292   4.295  16.534 -0.5221 -2.0090 -0.1281
 5567TIP3   OH238115   1.267   0.905   4.163 -0.2861  0.2463 -0.1862
 5567TIP3    H138116   1.347   0.925   4.116 -0.7402 -0.0329 -1.0852
 5567TIP3    H238117   1.197   0.928   4.102 -0.8751 -0.3845  0.2489
 5568TIP3   OH238118   3.507   3.644   1.072 -0.9387 -1.0315  0.0337
 5568TIP3    H138119   3.541   3.588   1.142  0.7098 -0.3589 -0.2050
 5568TIP3    H238120   3.530   3.733   1.099 -3.1501 -0.4716  0.1911
 5569TIP3   OH238121   4.985   4.823  13.941 -0.6005  0.1545  0.2087
 5569TIP3    H138122   5.080   4.834  13.942 -0.2551 -2.5049  0.2493
 5569TIP3    H238123   4.964   4.803  13.850 -0.8546 -1.1854  0.5472
 5570TIP3   OH238124   2.992   2.993   5.657  0.1759  0.5405 -0.1783
 5570TIP3    H138125   3.048   2.958   5.727  0.6257  1.1701 -0.2202
 5570TIP3    H238126   2.904   2.961   5.679  0.4475  0.0662  0.2324
 5571TIP3   OH238127   5.444   6.755  16.999 -0.2279  0.4436 -0.1531
 5571TIP3    H138128   5.376   6.802  16.950  1.0409  1.1851 -1.2333
 5571TIP3    H238129   5.483   6.695  16.934  0.5377  0.4360  0.3079
 5572TIP3   OH238130   0.817   4.567  15.955  0.6472 -0.1894  0.5129
 5572TIP3    H138131   0.835   4.610  15.871 -1.7498 -1.3120 -0.6134
 5572TIP3    H238132   0.729   4.531  15.945  0.7373 -1.2317  3.1625
 5573TIP3   OH238133   2.646   4.648  14.279  0.5038  0.5570  0.3080
 5573TIP3    H138134   2.597   4.576  14.318  0.9442  0.0833 -0.0022
 5573TIP3    H238135   2.587   4.723  14.285  0.8876  0.7069  2.6415
 5574TIP3   OH238136   1.075   6.277  17.106  0.9034  0.3427  0.0212
 5574TIP3    H138137   1.021   6.315  17.036  0.0447  1.6219  1.3680
 5574TIP3    H238138   1.111   6.352  17.153  1.7316 -0.5075  0.7859
 5575TIP3   OH238139   3.536   0.084  13.333  0.1734  0.5351  0.5240
 5575TIP3    H138140   3.476   0.010  13.343  0.6464  0.0789  0.0076
 5575TIP3    H238141   3.551   0.114  13.423 -3.7441  3.0377  0.4385
 5576TIP3   OH238142   2.450   0.853  14.454  0.0252  0.0783 -0.1783
 5576TIP3    H138143   2.509   0.794  14.500  1.9967  2.1690  0.0558
 5576TIP3    H238144   2.498   0.878  14.375 -1.0319  0.8941 -0.5819
 5577TIP3   OH238145   3.995   3.409   3.050 -0.1062 -0.2137  0.5448
 5577TIP3    H138146   3.930   3.345   3.079  0.7648 -1.3278  0.0955
 5577TIP3    H238147   4.059   3.412   3.121 -0.2231  0.2725  0.6301
 5578TIP3   OH238148   3.677   3.193  15.461  0.4306 -0.2230 -0.0642
 5578TIP3    H138149   3.644   3.149  15.538 -1.8246 -0.8594 -1.3665
 5578TIP3    H238150   3.773   3.189  15.470  0.2068 -2.0369  1.6753
 5579TIP3   OH238151   2.692   1.120  15.840 -0.6653  0.4238 -0.3786
 5579TIP3    H138152   2.683   1.141  15.933 -1.8242  0.6053 -0.5232
 5579TIP3    H238153   2.652   1.194  15.795  0.9626  0.9169 -1.0706
 5580TIP3   OH238154   2.767   5.096   2.240 -0.2337  0.1807  0.3776
 5580TIP3    H138155   2.704   5.038   2.197  0.1343 -1.4496  1.9943
 5580TIP3    H238156   2.715   5.144   2.304 -0.1123 -0.0627  0.6588
 5581TIP3   OH238157   5.140   5.501  13.369  0.2115  0.5232  0.3829
 5581TIP3    H138158   5.134   5.594  13.391 -0.5591  0.1809  1.6459
 5581TIP3    H238159   5.075   5.459  13.425 -0.1332 -0.6597 -0.8990
 5582TIP3   OH238160   2.083   4.095  15.172  0.6112 -0.0775  0.4181
 5582TIP3    H138161   2.090   4.058  15.260  0.5101  0.3501  0.6076
 5582TIP3    H238162   2.130   4.033  15.117  2.8854  0.9484  1.1342
 5583TIP3   OH238163   4.045   6.743  12.302  0.4278  0.6447  0.5849
 5583TIP3    H138164   4.067   6.668  12.358 -0.8243 -0.6241 -0.5877
 5583TIP3    H238165   3.959   6.722  12.266  1.4227  1.1753 -2.2204
 5584TIP3   OH238166   5.312   0.991   0.796  0.0383  0.1949  0.4947
 5584TIP3    H138167   5.387   1.014   0.742 -0.6864  0.3522 -0.4490
 5584TIP3    H238168   5.293   0.900   0.772 -0.2971  0.2723  0.4717
 5585TIP3   OH238169   2.916   1.709   3.790 -0.0518 -0.5437 -0.5915
 5585TIP3    H138170   2.883   1.659   3.865 -1.2001 -1.4646 -1.6964
 5585TIP3    H238171   2.985   1.764   3.827 -0.2323 -1.3811  1.0445
 5586TIP3   OH238172   6.419   0.804  12.604  0.1388 -0.3223  0.1381
 5586TIP3    H138173   6.435   0.768  12.691  1.2989 -0.7986 -0.2527
 5586TIP3    H238174   6.445   0.896  12.610  0.0782 -0.3187  0.3384
 5587TIP3   OH238175   1.601   2.131  10.375  0.1200  0.8285  0.3551
 5587TIP3    H138176   1.612   2.200  10.310 -0.3949  2.8275  2.3435
 5587TIP3    H238177   1.541   2.168  10.440 -0.0374 -1.4304  1.5451
 5588TIP3   OH238178   3.057   1.982   4.631 -0.4641 -0.0464 -0.1427
 5588TIP3    H138179   3.138   2.034   4.635 -0.3498 -0.2589  0.3696
 5588TIP3    H238180   3.030   1.986   4.539  0.1420  0.0025 -0.3190
 5589TIP3   OH238181   0.544   2.496  11.991 -0.5428 -0.2714  0.3786
 5589TIP3    H138182   0.477   2.543  11.941  0.1406  0.1358 -0.1672
 5589TIP3    H238183   0.588   2.440  11.927 -1.1587 -1.4480  0.9714
 5590TIP3   OH238184   5.384   1.418  13.566  0.2333  0.9747  0.2241
 5590TIP3    H138185   5.291   1.406  13.586  0.0828  2.5220  0.5095
 5590TIP3    H238186   5.395   1.381  13.478 -0.2234 -1.0173  0.9674
 5591TIP3   OH238187   3.490   4.303   5.013  0.0298 -0.4804  0.1881
 5591TIP3    H138188   3.441   4.289   4.932  0.1774  1.6156 -0.2934
 5591TIP3    H238189   3.565   4.357   4.986  0.7634 -0.8278  1.5050
 5592TIP3   OH238190   6.699   4.879   6.015 -0.9036 -0.7453 -0.5773
 5592TIP3    H138191   6.702   4.949   5.949  0.6288 -0.5550 -0.3144
 5592TIP3    H238192   6.685   4.799   5.964  0.6802 -0.6537 -1.1892
 5593TIP3   OH238193   6.008   1.564   2.704 -0.6077  0.3406 -0.1265
 5593TIP3    H138194   6.071   1.549   2.774 -0.7508  1.2655  0.2033
 5593TIP3    H238195   5.969   1.478   2.687  1.1533 -0.3603 -0.7287
 5594TIP3   OH238196   2.297   2.226   5.656 -0.0425  0.5509 -0.7375
 5594TIP3    H138197   2.350   2.289   5.706  0.0451 -0.6083  0.6475
 5594TIP3    H238198   2.360   2.184   5.597  0.4401 -0.2487  0.3336
 5595TIP3   OH238199   3.823   4.258   2.745 -0.7611  0.2904  0.3534
 5595TIP3    H138200   3.831   4.353   2.736 -3.0346  0.3469 -1.5543
 5595TIP3    H238201   3.824   4.225   2.655  1.2010 -1.6366  1.0337
 5596TIP3   OH238202   3.151   1.961  13.493  0.1498  0.0650  0.2935
 5596TIP3    H138203   3.216   1.890  13.493 -1.3729 -1.3442 -0.7100
 5596TIP3    H238204   3.113   1.959  13.581 -0.4911 -0.9272 -0.0014
 5597TIP3   OH238205   6.225   1.229  12.843 -0.3240 -0.0831 -0.3899
 5597TIP3    H138206   6.204   1.140  12.869  0.2709  0.3269  1.5945
 5597TIP3    H238207   6.316   1.241  12.872  0.0787  0.6859 -1.9396
 5598TIP3   OH238208   4.940   5.902   3.056  0.0458 -0.3311  0.4780
 5598TIP3    H138209   4.973   5.823   3.099  1.6248 -0.0486 -0.1747
 5598TIP3    H238210   4.972   5.974   3.110 -0.8890 -0.1057  0.7382
 5599TIP3   OH238211   1.496   3.119  16.395 -0.4012 -0.4779  0.5697
 5599TIP3    H138212   1.565   3.170  16.352 -0.2798 -1.8160 -0.8817
 5599TIP3    H238213   1.543   3.048  16.440 -0.6164  0.2851  1.9956
 5600TIP3   OH238214   6.417   1.573  14.646  0.6918 -0.1663 -0.5052
 5600TIP3    H138215   6.395   1.592  14.737 -1.3873 -1.9058 -0.6071
 5600TIP3    H238216   6.503   1.531  14.650  0.8998  0.3466  0.5903
 5601TIP3   OH238217   4.661   4.222  13.180  0.2471 -0.1480  0.4427
 5601TIP3    H138218   4.727   4.174  13.230 -0.2528 -1.5263 -0.2157
 5601TIP3    H238219   4.583   4.221  13.237  0.8983  1.8986  1.4356
 5602TIP3   OH238220   3.234   1.081  12.198  0.0199 -0.1247  0.3125
 5602TIP3    H138221   3.296   1.151  12.178 -1.3280  1.6791  2.2859
 5602TIP3    H238222   3.258   1.052  12.286 -0.5803 -0.9121  0.2268
 5603TIP3   OH238223   4.780   1.597  15.539  0.3965  0.6140  0.6031
 5603TIP3    H138224   4.782   1.506  15.567  0.1608  1.0896  2.2008
 5603TIP3    H238225   4.801   1.594  15.445  0.7837 -1.0341  0.7349
 5604TIP3   OH238226   5.307   0.848  12.512 -0.3278 -0.5074  0.3512
 5604TIP3    H138227   5.256   0.845  12.593  1.2191  0.1148  1.3666
 5604TIP3    H238228   5.378   0.785  12.525  1.6158  1.6696  0.6881
 5605TIP3   OH238229   0.244   6.017  11.776 -0.6164  0.0403 -0.2365
 5605TIP3    H138230   0.299   6.093  11.755  0.0342 -0.2367  0.4182
 5605TIP3    H238231   0.163   6.032  11.728 -0.6485  1.3433  0.1829
 5606TIP3   OH238232   5.118   6.546  13.076  0.0832  0.3867  0.6408
 5606TIP3    H138233   5.164   6.586  13.150  2.0700 -0.9517  0.1693
 5606TIP3    H238234   5.074   6.470  13.114 -0.4006  0.7383  0.7873
 5607TIP3   OH238235   2.220   5.465   0.431  0.6474 -0.2936 -0.0030
 5607TIP3    H138236   2.303   5.417   0.427  0.4958 -0.8265  2.4079
 5607TIP3    H238237   2.239   5.541   0.485 -0.2731 -0.0637  0.0047
 5608TIP3   OH238238   1.002   3.680   6.113 -0.9290  0.3522 -0.0280
 5608TIP3    H138239   0.971   3.671   6.203 -2.0236 -0.5139 -0.4838
 5608TIP3    H238240   1.082   3.627   6.110 -1.7038 -0.8305  0.0474
 5609TIP3   OH238241   3.499   0.447   1.199 -0.1249  0.3014  0.5606
 5609TIP3    H138242   3.422   0.431   1.253 -0.3637  1.4082  0.5437
 5609TIP3    H238243   3.477   0.409   1.114 -0.7976  0.9467  0.4459
 5610TIP3   OH238244   2.591   1.062   3.167  0.1102  0.2527 -0.4600
 5610TIP3    H138245   2.570   0.969   3.159 -1.5160  0.4822  0.7207
 5610TIP3    H238246   2.575   1.098   3.080 -2.5135  0.0067 -0.1208
 5611TIP3   OH238247   2.867   5.120  14.474  0.7496  0.0084 -0.2361
 5611TIP3    H138248   2.864   5.032  14.513 -0.5518 -0.7956 -2.0810
 5611TIP3    H238249   2.844   5.179  14.546 -2.9991 -1.5486 -0.0427
 5612TIP3   OH238250   5.834   3.592   3.047 -0.2984  0.0661  0.0744
 5612TIP3    H138251   5.823   3.591   2.952 -1.7625  1.7093  0.2001
 5612TIP3    H238252   5.751   3.627   3.080  0.9215  1.3439  1.8355
 5613TIP3   OH238253   3.986   1.420  15.355 -0.3230  0.2299 -0.1283
 5613TIP3    H138254   3.997   1.326  15.368 -1.3057  0.4987  3.0986
 5613TIP3    H238255   3.898   1.439  15.386 -0.6711  2.0108 -2.0982
 5614TIP3   OH238256   1.490   0.555   2.482  0.0563 -0.5229 -0.3073
 5614TIP3    H138257   1.585   0.544   2.472  0.2571  0.4320  0.5380
 5614TIP3    H238258   1.453   0.501   2.412  1.2781  1.0146 -2.2040
 5615TIP3   OH238259   3.350   5.943  14.664 -0.5720 -0.3730  0.4970
 5615TIP3    H138260   3.291   5.969  14.593  0.8579 -0.5001 -0.7731
 5615TIP3    H238261   3.292   5.926  14.738 -2.0707  0.1417 -0.5214
 5616TIP3   OH238262   1.738   0.842  13.687 -0.2666 -0.2801  0.8057
 5616TIP3    H138263   1.782   0.924  13.707 -0.3405 -0.6826  2.7254
 5616TIP3    H238264   1.645   0.864  13.685 -0.2134 -0.1018  0.1710
 5617TIP3   OH238265   4.614   3.046  11.359 -0.0021  0.2533  0.2389
 5617TIP3    H138266   4.567   3.062  11.277  3.4654  1.8866 -1.5625
 5617TIP3    H238267   4.583   3.114  11.418  0.2888  1.5248 -1.0255
 5618TIP3   OH238268   0.292   4.914   5.424  0.2132  0.3476  0.1966
 5618TIP3    H138269   0.358   4.869   5.371  1.4869  2.3218  0.0765
 5618TIP3    H238270   0.343   4.962   5.489 -1.1617  1.1411  0.6970
 5619TIP3   OH238271   5.017   5.973   2.793 -0.3724 -0.1318  0.7086
 5619TIP3    H138272   4.938   6.027   2.798  0.0555  0.4875  0.9156
 5619TIP3    H238273   5.024   5.933   2.880  0.0372  0.5313  0.9841
 5620TIP3   OH238274   1.703   5.553  12.211 -0.2968  0.1090  0.2015
 5620TIP3    H138275   1.616   5.534  12.246 -0.6923  0.3796 -0.6253
 5620TIP3    H238276   1.688   5.572  12.118  0.8824 -1.7550 -0.3880
 5621TIP3   OH238277   5.973   4.202  14.556  0.0137  0.0639  0.1699
 5621TIP3    H138278   6.064   4.216  14.530  0.5084 -0.7959  1.3780
 5621TIP3    H238279   5.972   4.219  14.650 -1.0094 -0.2506  0.2209
 5622TIP3   OH238280   5.793   1.933   5.804 -0.6820  0.4381 -0.0257
 5622TIP3    H138281   5.774   1.839   5.800  0.6979  0.1765 -0.7201
 5622TIP3    H238282   5.888   1.938   5.809 -0.7903  1.7798  1.0360
 5623TIP3   OH238283   3.679   6.296   0.514  0.0919 -0.4107  0.0368
 5623TIP3    H138284   3.617   6.224   0.501  0.1846 -0.4640 -0.1204
 5623TIP3    H238285   3.693   6.330   0.426 -0.3589  0.1389  0.1740
 5624TIP3   OH238286   6.264   1.199  14.113  0.3010  0.5150 -0.1486
 5624TIP3    H138287   6.305   1.213  14.198 -1.0665  0.2755  0.5586
 5624TIP3    H238288   6.195   1.136  14.129  0.5522 -0.1608 -1.6061
 5625TIP3   OH238289   3.388   4.224  13.353 -0.4471  0.2476 -0.2527
 5625TIP3    H138290   3.421   4.141  13.387  0.0413  0.9362  1.0042
 5625TIP3    H238291   3.440   4.290  13.398 -1.3304  1.2603 -0.6963
 5626TIP3   OH238292   0.193   1.967   5.253 -0.3662  0.3855 -0.7195
 5626TIP3    H138293   0.214   2.008   5.169 -1.7626  0.1720 -1.1901
 5626TIP3    H238294   0.251   1.892   5.259  0.4430  0.9793 -1.0253
 5627TIP3   OH238295   0.772   4.652   3.191  0.0710 -0.6298 -0.9398
 5627TIP3    H138296   0.826   4.711   3.138  0.9420 -0.9875 -0.4578
 5627TIP3    H238297   0.765   4.695   3.276 -0.4691 -0.5476 -1.0240
 5628TIP3   OH238298   1.807   2.300  12.066 -0.3542  0.5357  0.2175
 5628TIP3    H138299   1.822   2.369  12.129  0.0477 -0.6907  1.4913
 5628TIP3    H238300   1.866   2.320  11.993  0.0434  1.2908  0.7469
 5629TIP3   OH238301   6.429   1.847  16.733  0.2808 -0.8250 -0.7347
 5629TIP3    H138302   6.425   1.937  16.766  2.7058 -0.0568 -2.4052
 5629TIP3    H238303   6.365   1.845  16.663 -0.1533 -0.5525 -0.3535
 5630TIP3   OH238304   2.549   5.657  11.228 -0.2164 -0.3254  0.1572
 5630TIP3    H138305   2.455   5.645  11.237 -0.0806 -0.3865  1.6053
 5630TIP3    H238306   2.567   5.643  11.135 -2.0837  2.9498 -0.7656
 5631TIP3   OH238307   2.584   4.292   4.836 -0.6033  0.0994  0.1851
 5631TIP3    H138308   2.585   4.376   4.882 -0.4407 -0.7856  1.8507
 5631TIP3    H238309   2.610   4.313   4.747  2.2995  1.4505  1.2728
 5632TIP3   OH238310   2.890   4.600   0.977  0.0590 -0.6453 -0.3591
 5632TIP3    H138311   2.854   4.680   1.017  1.4263  0.0434 -0.4559
 5632TIP3    H238312   2.814   4.544   0.962 -0.7199 -0.1262  1.4393
 5633TIP3   OH238313   4.869   2.075  11.421  0.2151  0.5489 -0.1054
 5633TIP3    H138314   4.868   2.153  11.366  0.2042 -0.6217 -1.8068
 5633TIP3    H238315   4.783   2.035  11.406  1.2145 -1.2001 -1.3531
 5634TIP3   OH238316   2.031   0.196  15.502 -0.2272  0.9628  0.1281
 5634TIP3    H138317   1.968   0.256  15.463 -0.0151  1.1794  0.1190
 5634TIP3    H238318   2.096   0.252  15.545  0.4504  0.7694 -0.6173
 5635TIP3   OH238319   0.435   6.192   5.725  0.3781 -0.6841  0.4028
 5635TIP3    H138320   0.384   6.209   5.646  1.6067  1.6297  0.0414
 5635TIP3    H238321   0.397   6.249   5.792  1.4878 -0.0743  0.5382
 5636TIP3   OH238322   3.332   1.859   3.547 -0.4211 -0.3447  0.0581
 5636TIP3    H138323   3.426   1.841   3.546 -0.7508 -2.1059 -0.6551
 5636TIP3    H238324   3.316   1.910   3.467 -0.3654 -1.6403 -0.7871
 5637TIP3   OH238325   1.414   3.721   2.277  0.4020 -0.1053 -0.2086
 5637TIP3    H138326   1.445   3.773   2.202  0.6707 -1.6773 -1.2081
 5637TIP3    H238327   1.433   3.776   2.353  3.0087  0.2354 -1.0316
 5638TIP3   OH238328   5.783   3.058  14.851  0.9002  0.2261 -0.3963
 5638TIP3    H138329   5.746   3.135  14.895 -0.2526 -0.6311  0.1737
 5638TIP3    H238330   5.875   3.079  14.839  1.2991  0.3910  2.6738
 5639TIP3   OH238331   6.352   1.273  10.549  0.2846  0.3423 -0.2888
 5639TIP3    H138332   6.333   1.184  10.577 -2.7658  1.6330  2.0078
 5639TIP3    H238333   6.324   1.275  10.457 -0.8517 -0.6986  0.0218
 5640TIP3   OH238334   4.912   2.009   4.698 -0.3201 -0.1812  0.0930
 5640TIP3    H138335   4.954   2.082   4.744  1.3109 -1.2815  0.3856
 5640TIP3    H238336   4.823   2.040   4.680 -0.8009  0.4932  3.4123
 5641TIP3   OH238337   3.681   2.407  14.828 -0.1329 -1.1602 -0.2241
 5641TIP3    H138338   3.679   2.436  14.920  1.0009 -1.6992 -0.0270
 5641TIP3    H238339   3.603   2.447  14.790 -0.3300 -0.4829  0.8423
 5642TIP3   OH238340   2.019   1.430  13.111 -0.1745  0.0724  0.3296
 5642TIP3    H138341   2.091   1.481  13.148 -0.5845 -0.2188  1.5465
 5642TIP3    H238342   1.974   1.394  13.187  0.0494 -2.0277 -0.5037
 5643TIP3   OH238343   4.676   3.383  15.849 -0.4513  0.7145  0.0872
 5643TIP3    H138344   4.639   3.412  15.932  1.7729 -1.1920  1.8019
 5643TIP3    H238345   4.676   3.462  15.795 -1.3814  2.1401  2.0975
 5644TIP3   OH238346   1.376   1.611  11.124 -0.3134  0.1834  0.2851
 5644TIP3    H138347   1.310   1.602  11.193 -0.7702  1.5905  0.0523
 5644TIP3    H238348   1.330   1.584  11.044  0.1286 -1.1630  0.4694
 5645TIP3   OH238349   4.793   1.173   1.064 -0.7004  0.1490  0.3277
 5645TIP3    H138350   4.809   1.086   1.028 -0.7128  0.1795  0.2491
 5645TIP3    H238351   4.837   1.232   1.004 -1.1141  0.2346  0.1053
 5646TIP3   OH238352   6.204   6.462   3.439 -0.0041  0.0695 -0.1200
 5646TIP3    H138353   6.112   6.484   3.452 -0.9720 -2.1969 -2.8004
 5646TIP3    H238354   6.219   6.473   3.346  2.2074 -0.5391  0.1318
 5647TIP3   OH238355   1.275   0.781   5.007  0.2770 -0.2826  0.4092
 5647TIP3    H138356   1.210   0.713   4.991 -1.7296  1.7228 -0.0969
 5647TIP3    H238357   1.301   0.768   5.099 -2.0203 -0.0980  1.1129
 5648TIP3   OH238358   5.961   6.207  11.273  0.1414 -0.1436  0.1517
 5648TIP3    H138359   5.994   6.164  11.194  0.5090  0.0766  0.1859
 5648TIP3    H238360   5.946   6.297  11.247 -1.8024 -0.5646 -0.2602
 5649TIP3   OH238361   2.909   2.503   1.774  0.7489  0.0329 -0.4233
 5649TIP3    H138362   2.944   2.591   1.759  0.0582  0.0481 -2.0187
 5649TIP3    H238363   2.817   2.509   1.751  1.0303 -1.4764 -2.1111
 5650TIP3   OH238364   1.719   2.515  10.447 -0.3712  0.0085 -0.1935
 5650TIP3    H138365   1.688   2.498  10.358 -0.5448 -0.4400 -0.0511
 5650TIP3    H238366   1.687   2.603  10.467  0.0928  0.3015 -0.7551
 5651TIP3   OH238367   4.568   3.376  15.237 -0.2459 -0.1195  0.1902
 5651TIP3    H138368   4.553   3.467  15.262  1.1963  0.6634 -1.6381
 5651TIP3    H238369   4.583   3.379  15.143 -0.7583 -2.3400  0.0031
 5652TIP3   OH238370   3.260   0.594   5.989  0.0425 -0.2737  0.1159
 5652TIP3    H138371   3.227   0.559   6.072 -0.2174  0.5955  0.3859
 5652TIP3    H238372   3.344   0.633   6.011 -0.0351 -0.0262 -0.0301
 5653TIP3   OH238373   1.397   3.013   4.196  0.4645 -0.1378  0.5258
 5653TIP3    H138374   1.309   3.004   4.232 -0.5070  1.0848 -1.4655
 5653TIP3    H238375   1.413   2.929   4.152  0.3624 -0.4186  1.0201
 5654TIP3   OH238376   1.588   3.046   1.253 -0.6347  0.2479  0.1189
 5654TIP3    H138377   1.531   2.970   1.245 -0.0338 -0.2773  0.7389
 5654TIP3    H238378   1.655   3.034   1.186  0.8191 -0.9871  1.7510
 5655TIP3   OH238379   4.547   5.544  15.464  0.4200  0.0127  0.0364
 5655TIP3    H138380   4.465   5.514  15.427  0.5122  2.2254 -2.0128
 5655TIP3    H238381   4.537   5.530  15.559 -1.9575 -0.4580 -0.2634
 5656TIP3   OH238382   3.810   6.045  14.708 -0.3307 -0.5051  0.5305
 5656TIP3    H138383   3.897   6.064  14.674 -0.1036 -0.1269  1.3167
 5656TIP3    H238384   3.801   5.950  14.698  0.5223 -0.6694  1.2675
 5657TIP3   OH238385   3.726   3.879  15.471 -0.2097 -0.6618  0.6142
 5657TIP3    H138386   3.655   3.931  15.434  2.4330  1.4063 -1.8480
 5657TIP3    H238387   3.687   3.833  15.545 -3.2962  2.7911  1.2556
 5658TIP3   OH238388   0.435   3.825  14.646 -0.0599 -0.3419  0.0226
 5658TIP3    H138389   0.457   3.737  14.615 -1.1527 -0.5901 -0.0690
 5658TIP3    H238390   0.408   3.873  14.568  0.5829  0.0988  0.0647
 5659TIP3   OH238391   6.370   5.093  11.023 -0.1147  0.4539  0.5098
 5659TIP3    H138392   6.292   5.133  11.062 -0.3200  0.4892  0.0641
 5659TIP3    H238393   6.435   5.163  11.021 -0.2893  0.6053  0.2546
 5660TIP3   OH238394   5.625   2.727   1.020 -0.4183 -0.5034  0.0902
 5660TIP3    H138395   5.572   2.733   1.099  0.2303 -0.6522  0.5389
 5660TIP3    H238396   5.662   2.639   1.022  0.0193 -0.3281 -0.1108
 5661TIP3   OH238397   1.556   6.026   2.156  0.1276 -0.3288  0.0259
 5661TIP3    H138398   1.510   6.073   2.226 -0.6164 -1.2139  0.1372
 5661TIP3    H238399   1.604   6.095   2.109 -0.9748  0.5626  0.1584
 5662TIP3   OH238400   1.640   0.376   5.986  0.1863  0.4119 -0.2970
 5662TIP3    H138401   1.550   0.348   5.968  0.2513 -1.6629  2.3607
 5662TIP3    H238402   1.695   0.310   5.944  0.5208  1.9594 -2.3627
 5663TIP3   OH238403   1.783   4.540   0.236  0.2872 -0.3289  0.2218
 5663TIP3    H138404   1.797   4.630   0.264 -0.2147  0.2707 -1.3748
 5663TIP3    H238405   1.864   4.494   0.260 -0.0550  0.1672  2.4182
 5664TIP3   OH238406   5.012   2.447   1.211  0.2301  0.6288 -0.3781
 5664TIP3    H138407   4.983   2.382   1.275 -1.3771  0.7907 -0.9276
 5664TIP3    H238408   4.969   2.421   1.130  2.2157  0.4544 -1.4000
 5665TIP3   OH238409   1.282   4.524  15.645  0.9397 -0.3424 -0.3630
 5665TIP3    H138410   1.206   4.568  15.607 -0.3398 -1.2303  1.1444
 5665TIP3    H238411   1.300   4.452  15.585 -0.6837 -1.3608  0.3619
 5666TIP3   OH238412   5.105   4.046  12.480  0.1579 -0.5123  0.1505
 5666TIP3    H138413   5.166   3.974  12.463  2.2549  1.2974 -0.2276
 5666TIP3    H238414   5.112   4.061  12.574  1.4311  0.6354 -0.1072
 5667TIP3   OH238415   4.942   5.390  12.446 -0.1066 -0.2766  0.6270
 5667TIP3    H138416   4.863   5.411  12.496 -0.0027 -1.7618  1.4242
 5667TIP3    H238417   4.917   5.407  12.355 -1.4873 -1.1370  0.8306
 5668TIP3   OH238418   1.110   1.282   3.469 -0.2999  0.5790 -0.2490
 5668TIP3    H138419   1.144   1.370   3.455  1.4000  0.2760  1.8046
 5668TIP3    H238420   1.015   1.294   3.470 -0.0535  2.9379  3.1776
 5669TIP3   OH238421   5.129   6.305   4.496  0.9366  0.0249 -0.2114
 5669TIP3    H138422   5.110   6.312   4.403  0.1129  0.3793 -0.0230
 5669TIP3    H238423   5.220   6.274   4.500  1.3761  1.1439 -1.1244
 5670TIP3   OH238424   5.090   6.645  11.013 -0.0041  0.2998 -0.7194
 5670TIP3    H138425   5.163   6.598  10.972  0.0714  0.6927 -1.0371
 5670TIP3    H238426   5.012   6.597  10.987  0.2926 -1.3381  1.2895
 5671TIP3   OH238427   2.968   3.693  16.667 -0.0096  0.1263 -0.0519
 5671TIP3    H138428   2.882   3.650  16.658  0.2846 -0.7895  1.3861
 5671TIP3    H238429   3.027   3.622  16.691  0.2829  1.4808  3.4997
 5672TIP3   OH238430   1.825   0.453   5.735  0.1306 -0.1693 -0.1794
 5672TIP3    H138431   1.896   0.393   5.708  0.3545  1.0716 -2.4456
 5672TIP3    H238432   1.830   0.453   5.831  3.7730  0.5123 -0.2678
 5673TIP3   OH238433   4.842   3.068  16.957  0.1552 -0.1578 -0.2782
 5673TIP3    H138434   4.932   3.071  16.990 -0.2337  1.2141  0.6906
 5673TIP3    H238435   4.833   3.148  16.905 -0.6366 -0.0911 -0.0413
 5674TIP3   OH238436   4.481   1.432   4.631 -0.2795 -0.1580 -0.3897
 5674TIP3    H138437   4.500   1.396   4.544  0.5998  0.9843 -0.6920
 5674TIP3    H238438   4.518   1.520   4.628  0.7375 -0.5009  1.5128
 5675TIP3   OH238439   3.244   3.146   0.756  0.3044 -0.1740  0.0737
 5675TIP3    H138440   3.165   3.095   0.772  0.1340  0.3035  0.7459
 5675TIP3    H238441   3.215   3.237   0.752  1.0682  0.2083  2.2848
 5676TIP3   OH238442   0.464   1.231   3.676 -0.3490 -0.4319  0.0557
 5676TIP3    H138443   0.517   1.265   3.748  0.2248 -2.4674  0.6319
 5676TIP3    H238444   0.480   1.292   3.604 -0.5433  1.3543  1.4682
 5677TIP3   OH238445   1.273   1.916   1.352 -0.0460 -0.2451 -0.2609
 5677TIP3    H138446   1.286   1.968   1.273 -0.2137 -0.9922 -0.7892
 5677TIP3    H238447   1.215   1.970   1.407  0.5271  0.5200 -0.4006
 5678TIP3   OH238448   3.981   3.105  17.238  0.1521 -0.7300  0.2236
 5678TIP3    H138449   3.898   3.123  17.195 -0.4814 -1.0657  1.2759
 5678TIP3    H238450   4.047   3.149  17.185 -0.7960  0.2630 -0.1309
 5679TIP3   OH238451   5.847   2.368   4.754  0.2985  0.8337  0.4417
 5679TIP3    H138452   5.892   2.300   4.804 -0.6762 -0.0474  0.1553
 5679TIP3    H238453   5.772   2.323   4.716  0.3460  1.7918 -0.7988
 5680TIP3   OH238454   5.306   1.367  15.154  0.1273  0.2010 -0.0408
 5680TIP3    H138455   5.283   1.392  15.243  0.5627 -0.0352  0.1397
 5680TIP3    H238456   5.324   1.273  15.159  0.2626  0.2090 -0.3569
 5681TIP3   OH238457   6.342   5.473   2.486 -0.7212 -0.2118 -0.7870
 5681TIP3    H138458   6.374   5.560   2.511  1.7572 -1.9649  2.5607
 5681TIP3    H238459   6.278   5.451   2.554  0.0423 -1.6995 -0.5221
 5682TIP3   OH238460   5.741   0.206  10.924 -0.2710 -0.0359 -0.1862
 5682TIP3    H138461   5.761   0.299  10.909  2.7625 -0.9874 -2.5126
 5682TIP3    H238462   5.802   0.179  10.992  0.3114 -0.8301 -1.0175
 5683TIP3   OH238463   3.997   4.330  17.189  0.2176  0.4560  0.1369
 5683TIP3    H138464   3.940   4.281  17.248 -0.4560  0.5659 -0.4077
 5683TIP3    H238465   3.937   4.375  17.130  0.8858 -1.3610 -2.0051
 5684TIP3   OH238466   4.289   4.731   2.964  0.0584  0.3140 -0.0504
 5684TIP3    H138467   4.263   4.690   3.046  2.2239  2.7316  1.9224
 5684TIP3    H238468   4.290   4.825   2.983  3.5872  0.7268 -1.9457
 5685TIP3   OH238469   3.543   3.908   1.195  0.0993 -0.2653  0.3170
 5685TIP3    H138470   3.458   3.940   1.164  0.1260 -1.6876 -1.2541
 5685TIP3    H238471   3.607   3.956   1.142  0.2241 -0.5450  0.2136
 5686TIP3   OH238472   1.418   2.248   4.240  0.1708  0.4903 -0.4207
 5686TIP3    H138473   1.355   2.313   4.269 -0.0768  0.1748 -0.2360
 5686TIP3    H238474   1.410   2.177   4.305  1.7715  1.0939  0.4720
 5687TIP3   OH238475   0.593   5.972  11.064 -0.4827  0.4325 -0.2642
 5687TIP3    H138476   0.648   6.043  11.032  0.5870  1.2117  3.0954
 5687TIP3    H238477   0.508   6.012  11.080  0.4243  1.2983  2.6787
 5688TIP3   OH238478   4.736   0.943  14.446 -0.5182 -0.4158  0.1185
 5688TIP3    H138479   4.710   0.877  14.382  1.2689 -0.4049 -0.6417
 5688TIP3    H238480   4.829   0.928  14.460 -0.2201  1.5453  0.4026
 5689TIP3   OH238481   5.818   0.589  14.552  0.3170  0.0558  0.7950
 5689TIP3    H138482   5.892   0.632  14.510  0.3323  0.0191  0.7863
 5689TIP3    H238483   5.799   0.514  14.495 -0.2632  0.5484  0.3323
 5690TIP3   OH238484   3.437   3.397  12.092 -0.1829  0.3425 -0.3375
 5690TIP3    H138485   3.417   3.350  12.173 -0.9778 -0.0054 -0.7298
 5690TIP3    H238486   3.411   3.487  12.110 -0.5088  0.2341 -0.2597
 5691TIP3   OH238487   0.681   6.559  16.768  0.3068 -0.4000 -0.9289
 5691TIP3    H138488   0.675   6.654  16.763  2.9041 -0.2229 -1.3457
 5691TIP3    H238489   0.590   6.529  16.770 -0.5535  2.0213 -1.9481
 5692TIP3   OH238490   5.619   0.855  15.759  0.0522 -0.3389  0.4249
 5692TIP3    H138491   5.623   0.815  15.846 -1.0561 -0.1563  0.5665
 5692TIP3    H238492   5.545   0.916  15.764  1.3969  1.3830  0.0693
 5693TIP3   OH238493   6.675   5.403   0.687 -0.4563 -0.0680 -0.3665
 5693TIP3    H138494   6.583   5.411   0.664 -0.1026  3.5105 -0.9093
 5693TIP3    H238495   6.674   5.382   0.781 -1.8167 -1.2373 -0.6339
 5694TIP3   OH238496   1.199   2.410   5.826 -0.0286 -0.2096 -0.1364
 5694TIP3    H138497   1.157   2.327   5.801 -1.5975  0.4800  0.1768
 5694TIP3    H238498   1.174   2.471   5.756  1.5197 -0.1011 -0.6198
 5695TIP3   OH238499   5.755   1.627  16.594 -0.1909 -0.2067 -0.0889
 5695TIP3    H138500   5.781   1.576  16.517  0.0281  0.4012 -0.4216
 5695TIP3    H238501   5.787   1.716  16.577 -2.0171  0.4512 -0.2814
 5696TIP3   OH238502   4.754   5.393  11.521  0.3957  0.1406 -0.1173
 5696TIP3    H138503   4.815   5.423  11.589  1.1866  0.8704 -1.1310
 5696TIP3    H238504   4.688   5.342  11.569  1.7666 -0.6130  1.0106
 5697TIP3   OH238505   2.575   0.429   0.889 -0.5668 -0.1616  0.1935
 5697TIP3    H138506   2.649   0.378   0.857  0.3307  0.0476  1.8967
 5697TIP3    H238507   2.526   0.368   0.944 -3.2164 -1.1149 -3.0584
 5698TIP3   OH238508   4.725   5.297  14.934 -0.0153 -0.4813 -0.3861
 5698TIP3    H138509   4.722   5.278  15.028  1.9594 -1.0694 -0.4177
 5698TIP3    H238510   4.717   5.212  14.892 -1.5127 -0.1566 -0.7752
 5699TIP3   OH238511   1.434   2.178  12.913 -0.6265 -0.4789  0.1182
 5699TIP3    H138512   1.499   2.114  12.940  0.2510  1.0665  1.8188
 5699TIP3    H238513   1.480   2.233  12.850  0.0725  1.1873  2.0161
 5700TIP3   OH238514   1.147   0.366   3.856 -0.0413  0.2207 -0.2420
 5700TIP3    H138515   1.100   0.295   3.812  0.1646  0.5860 -1.0457
 5700TIP3    H238516   1.140   0.440   3.797  1.0206  0.4611 -0.0769
 5701TIP3   OH238517   4.063   1.162  12.132  0.3307 -0.2829 -0.3258
 5701TIP3    H138518   4.134   1.137  12.073 -0.2265  0.3315 -1.2659
 5701TIP3    H238519   3.990   1.183  12.075 -0.2002  0.3978  0.5803
 5702TIP3   OH238520   2.262   0.771   1.677 -0.3956  0.0966  0.2939
 5702TIP3    H138521   2.229   0.744   1.762 -1.6039  0.5816 -0.0080
 5702TIP3    H238522   2.350   0.804   1.694 -0.1566 -0.9586  1.1516
 5703TIP3   OH238523   1.304   0.853   4.753 -0.0687  0.4851  0.2308
 5703TIP3    H138524   1.235   0.918   4.767 -1.9013 -1.3671  0.0456
 5703TIP3    H238525   1.310   0.805   4.836  0.4278  0.1070 -0.0153
 5704TIP3   OH238526   5.783   5.813  15.910  0.2749 -0.3020  0.1673
 5704TIP3    H138527   5.802   5.731  15.956 -0.4496 -1.4593 -1.5826
 5704TIP3    H238528   5.705   5.795  15.859 -0.8837  2.0096  1.0603
 5705TIP3   OH238529   0.084   2.528   2.373 -1.0809  0.5366  0.4176
 5705TIP3    H138530   0.028   2.556   2.300 -1.0078 -0.5136 -0.0570
 5705TIP3    H238531   0.119   2.443   2.345 -1.8332 -0.3597  2.0712
 5706TIP3   OH238532   5.245   6.333  11.967 -0.1427  0.1033 -0.3569
 5706TIP3    H138533   5.232   6.427  11.968  0.7975  0.2430 -0.0798
 5706TIP3    H238534   5.221   6.305  11.879  0.4363  0.7403 -0.7222
 5707TIP3   OH238535   3.394   6.508  14.996  0.2703 -0.2624 -0.4578
 5707TIP3    H138536   3.344   6.428  15.013  1.0609 -0.5083  0.7401
 5707TIP3    H238537   3.379   6.526  14.903 -0.7887 -1.1962 -0.4776
 5708TIP3   OH238538   0.449   4.118   5.520 -0.7113 -0.1131 -0.3254
 5708TIP3    H138539   0.365   4.150   5.554 -0.6292 -0.2876  0.0541
 5708TIP3    H238540   0.435   4.025   5.505 -0.3461 -0.3180  0.5313
 5709TIP3   OH238541   6.174   3.180   2.744 -0.3389  0.3025  0.0799
 5709TIP3    H138542   6.096   3.199   2.796 -0.7482  1.1105 -0.8084
 5709TIP3    H238543   6.140   3.163   2.656  0.4058 -0.3486 -0.0876
 5710TIP3   OH238544   1.298   1.994   3.664 -0.3215 -0.1685 -0.6074
 5710TIP3    H138545   1.387   1.985   3.631 -0.5587 -0.4332 -1.1907
 5710TIP3    H238546   1.268   1.904   3.676 -0.1737 -0.0759  0.5208
 5711TIP3   OH238547   2.660   6.422   3.226 -0.1101  0.3851 -0.3517
 5711TIP3    H138548   2.620   6.353   3.279 -0.5977  0.9020 -0.0545
 5711TIP3    H238549   2.626   6.406   3.138  0.3157 -0.1706 -0.4234
 5712TIP3   OH238550   3.078   4.352   4.345  0.3543  0.0239 -0.1004
 5712TIP3    H138551   3.087   4.289   4.273  1.3168 -0.8763  0.7811
 5712TIP3    H238552   3.091   4.299   4.424 -0.0566  1.1168  0.7074
 5713TIP3   OH238553   5.711   4.192   3.422  0.6614  0.8460  0.7171
 5713TIP3    H138554   5.617   4.206   3.428  0.7400  1.4231  0.6207
 5713TIP3    H238555   5.749   4.280   3.416  1.1721  0.6088  0.3274
 5714TIP3   OH238556   5.268   1.267   2.673  0.6547 -0.1132 -0.1227
 5714TIP3    H138557   5.185   1.232   2.642  0.2567  0.4304  0.3038
 5714TIP3    H238558   5.288   1.216   2.751 -0.5803  1.4323  1.2477
 5715TIP3   OH238559   6.716   2.521  16.332 -0.0292 -0.3828 -0.2403
 5715TIP3    H138560   6.685   2.549  16.419 -0.6088 -2.2009  0.1454
 5715TIP3    H238561   6.785   2.458  16.351  2.5614  2.0810 -1.1003
 5716TIP3   OH238562   6.462   0.609  15.176  0.2045  0.3738 -0.3652
 5716TIP3    H138563   6.532   0.673  15.190  2.5368 -1.9955 -0.7995
 5716TIP3    H238564   6.481   0.571  15.090 -0.9372 -1.1143  0.0259
 5717TIP3   OH238565   2.174   2.326   0.219  0.0688  0.2666 -0.1549
 5717TIP3    H138566   2.182   2.257   0.285 -0.4583 -0.1547 -0.5280
 5717TIP3    H238567   2.227   2.399   0.253 -0.4788  0.1752  0.8965
 5718TIP3   OH238568   2.479   5.591  12.649  0.7020 -0.2419  0.3871
 5718TIP3    H138569   2.418   5.519  12.664  1.6727 -1.1667 -0.0193
 5718TIP3    H238570   2.544   5.555  12.587  0.4731  1.3796 -0.8298
 5719TIP3   OH238571   3.812   0.541   6.200  0.0478  0.2758  0.0081
 5719TIP3    H138572   3.720   0.565   6.207 -0.1708 -0.5084 -0.1692
 5719TIP3    H238573   3.815   0.480   6.126  0.3581 -1.5323  1.5004
 5720TIP3   OH238574   1.242   0.651   4.137 -0.1432  0.3380  0.0298
 5720TIP3    H138575   1.268   0.742   4.155 -0.5186  0.2109  1.2538
 5720TIP3    H238576   1.150   0.657   4.112 -0.1349  0.3060 -0.0088
 5721TIP3   OH238577   1.937   2.844  12.774  0.2198  0.3399  0.4812
 5721TIP3    H138578   1.872   2.890  12.826 -0.9937 -2.5821  1.6044
 5721TIP3    H238579   1.887   2.798  12.707  1.3060 -0.4241  0.1763
 5722TIP3   OH238580   5.020   1.437   1.786 -0.2500  0.0385  0.5042
 5722TIP3    H138581   5.057   1.521   1.758 -0.4591 -0.3737 -1.0575
 5722TIP3    H238582   4.929   1.457   1.807  0.1207  0.5114  1.6961
 5723TIP3   OH238583   5.947   4.643   3.997 -0.2156  0.4790 -0.1456
 5723TIP3    H138584   5.903   4.559   4.009  0.1749  0.6255  2.8806
 5723TIP3    H238585   6.032   4.620   3.960 -0.9087 -0.2522 -1.3158
 5724TIP3   OH238586   1.302   6.692  16.142  0.4823  0.5175  0.4735
 5724TIP3    H138587   1.230   6.703  16.204  0.9175  0.0374  1.0644
 5724TIP3    H238588   1.297   6.600  16.115 -0.7032  1.1142 -1.4610
 5725TIP3   OH238589   3.999   5.886  13.085  0.4878 -0.2785  0.1779
 5725TIP3    H138590   4.080   5.834  13.088  1.5217  1.2779 -0.3894
 5725TIP3    H238591   3.971   5.881  12.994  0.9073  0.6471 -0.0011
 5726TIP3   OH238592   2.004   0.170   5.660  0.3557 -0.5440 -0.5869
 5726TIP3    H138593   2.028   0.219   5.582 -0.8256  1.1761  0.1112
 5726TIP3    H238594   2.085   0.125   5.686  1.7722  1.9282 -0.5900
 5727TIP3   OH238595   5.495   6.140  14.392 -0.6501 -0.1767 -0.2445
 5727TIP3    H138596   5.553   6.169  14.462  0.4432  0.6596 -1.4760
 5727TIP3    H238597   5.527   6.053  14.369 -0.2088  0.0662 -0.5594
 5728TIP3   OH238598   0.900   2.827  13.140 -0.1643  0.0693 -0.2030
 5728TIP3    H138599   0.949   2.906  13.118 -0.8872  0.9754  1.3300
 5728TIP3    H238600   0.893   2.779  13.058  2.4706  0.3639 -0.6359
 5729TIP3   OH238601   2.927   4.596  16.374 -0.3359  0.0477 -0.6945
 5729TIP3    H138602   2.871   4.558  16.306  1.2525  0.1391 -2.1064
 5729TIP3    H238603   3.003   4.539  16.377  0.1180  0.6948  0.2267
 5730TIP3   OH238604   3.860   4.487  10.560 -0.0921  0.0604  0.2176
 5730TIP3    H138605   3.814   4.507  10.479  0.3701  0.9986  0.1849
 5730TIP3    H238606   3.794   4.496  10.628 -0.5510 -1.0042 -0.0739
 5731TIP3   OH238607   0.284   6.502  14.637 -0.1047 -0.5852  0.8222
 5731TIP3    H138608   0.273   6.543  14.551  2.1139  1.1898  1.3637
 5731TIP3    H238609   0.259   6.410  14.622  2.2369 -0.8165 -2.2247
 5732TIP3   OH238610   5.497   0.892   3.138  0.1038 -1.1501 -0.8361
 5732TIP3    H138611   5.531   0.828   3.199  1.0520 -1.0943 -1.3046
 5732TIP3    H238612   5.491   0.973   3.189 -1.4238 -1.6814 -0.1513
 5733TIP3   OH238613   3.873   0.309   0.746 -0.4963 -0.2314  0.1574
 5733TIP3    H138614   3.943   0.372   0.733  0.1006 -0.9765 -0.2645
 5733TIP3    H238615   3.793   0.362   0.748  0.1228  0.6630  1.2043
 5734TIP3   OH238616   3.237   3.690   3.048 -0.6777 -0.3292 -0.0186
 5734TIP3    H138617   3.151   3.711   3.012 -0.5187 -0.8595 -0.7287
 5734TIP3    H238618   3.220   3.669   3.140 -1.1562  0.5771  0.1001
 5735TIP3   OH238619   0.583   0.217  15.168 -0.3628  0.5186  0.3267
 5735TIP3    H138620   0.584   0.127  15.202 -2.8108 -0.0798 -1.0599
 5735TIP3    H238621   0.505   0.220  15.112  0.4527  3.1244 -0.7083
 5736TIP3   OH238622   0.815   6.207  11.723  0.3007  0.3502 -0.5405
 5736TIP3    H138623   0.870   6.132  11.747 -0.2221  0.2791  0.4802
 5736TIP3    H238624   0.817   6.263  11.800 -0.3212  0.7877 -0.8416
 5737TIP3   OH238625   1.781   6.325   2.430  1.0584  0.4458 -0.7861
 5737TIP3    H138626   1.804   6.303   2.520 -2.4228 -1.6380 -0.3137
 5737TIP3    H238627   1.829   6.263   2.377  3.4339  1.9335 -0.4294
 5738TIP3   OH238628   0.953   5.221   4.375 -0.2229 -0.2543  0.4548
 5738TIP3    H138629   0.877   5.182   4.332 -0.1966 -0.3739  0.5154
 5738TIP3    H238630   0.943   5.315   4.362 -0.0900 -0.3021 -0.0293
 5739TIP3   OH238631   1.655   4.058   0.419 -0.1326 -0.4269  0.0871
 5739TIP3    H138632   1.749   4.044   0.430 -0.2692 -1.7944 -0.4198
 5739TIP3    H238633   1.614   3.994   0.478 -0.7485  1.0654  1.3186
 5740TIP3   OH238634   0.800   6.205  15.214  0.3494  0.4307 -0.7726
 5740TIP3    H138635   0.798   6.301  15.215  1.8168  0.4871 -1.0237
 5740TIP3    H238636   0.759   6.181  15.132  0.9181  0.8873 -1.1945
 5741TIP3   OH238637   2.153   1.505   3.104  0.1031  0.4056  0.5006
 5741TIP3    H138638   2.176   1.414   3.089 -0.3328  0.3066  0.4373
 5741TIP3    H238639   2.098   1.529   3.029 -1.4665  0.1187  1.5399
 5742TIP3   OH238640   6.666   0.250  12.376 -0.0354 -0.3565 -0.5489
 5742TIP3    H138641   6.647   0.158  12.360 -1.0457 -0.3528  0.6300
 5742TIP3    H238642   6.580   0.291  12.386  0.4667  0.2862  1.2849
 5743TIP3   OH238643   4.898   3.788  11.322  0.1725  0.5494 -0.3734
 5743TIP3    H138644   4.978   3.829  11.290  1.1695  0.1059  1.4769
 5743TIP3    H238645   4.890   3.707  11.271  1.1110  0.4109 -0.3026
 5744TIP3   OH238646   3.017   5.803  13.235  0.2059  0.2904 -0.3846
 5744TIP3    H138647   3.101   5.803  13.189  0.6734  0.9641  0.4461
 5744TIP3    H238648   3.026   5.872  13.301  0.7838 -2.7867  2.9388
 5745TIP3   OH238649   4.026   0.919  14.801 -0.1544 -0.1383  0.5010
 5745TIP3    H138650   4.101   0.972  14.771  0.1185 -1.1063 -0.5652
 5745TIP3    H238651   4.005   0.864  14.726  0.1098 -2.1721  1.8852
 5746TIP3   OH238652   5.935   2.365   0.765 -0.7719  0.1333 -0.1933
 5746TIP3    H138653   5.995   2.291   0.765 -0.8930 -0.0085  2.1640
 5746TIP3    H238654   5.882   2.354   0.686  0.5726 -1.1478 -0.9309
 5747TIP3   OH238655   3.317   0.342   4.071 -0.1950  0.1212  0.1204
 5747TIP3    H138656   3.266   0.280   4.019  2.0987 -1.0728 -0.7645
 5747TIP3    H238657   3.290   0.428   4.038 -0.3267 -0.5490 -1.5776
 5748TIP3   OH238658   2.037   0.807  12.944  0.1889  0.5282 -0.0296
 5748TIP3    H138659   2.109   0.750  12.972  0.2111  0.6776  0.2199
 5748TIP3    H238660   2.022   0.865  13.019 -0.7653 -0.0596  0.2340
 5749TIP3   OH238661   5.099   3.999   5.891  0.2800  0.0104 -0.5412
 5749TIP3    H138662   5.185   4.023   5.856 -0.1645  0.7091 -1.1506
 5749TIP3    H238663   5.119   3.941   5.964  1.3775  2.3898  1.1094
 5750TIP3   OH238664   5.444   6.786   0.294  0.4014 -0.0554  1.1514
 5750TIP3    H138665   5.361   6.778   0.340  0.4592  1.2769  1.5075
 5750TIP3    H238666   5.433   6.734   0.214 -1.2489  1.2337  0.5319
 5751TIP3   OH238667   6.332   1.054  13.849 -1.2659 -0.6455 -0.4719
 5751TIP3    H138668   6.324   1.066  13.944  0.9030 -1.1430 -0.1911
 5751TIP3    H238669   6.341   0.960  13.838 -1.9154 -0.6193 -1.2183
 5752TIP3   OH238670   6.240   4.347   4.228 -0.0243  0.2373  0.2901
 5752TIP3    H138671   6.145   4.343   4.239  0.1039  0.0091  1.3086
 5752TIP3    H238672   6.270   4.404   4.299  0.3330  2.5088 -1.5886
 5753TIP3   OH238673   4.108   3.738  11.088  0.3026  0.0319 -0.1361
 5753TIP3    H138674   4.203   3.748  11.093  0.1662  1.5181 -0.4117
 5753TIP3    H238675   4.089   3.733  10.994 -0.1293  2.2593 -0.1847
 5754TIP3   OH238676   6.276   5.667  16.988 -0.2324  0.0729  0.1540
 5754TIP3    H138677   6.205   5.619  17.030 -2.0509  1.0930 -1.6547
 5754TIP3    H238678   6.254   5.760  17.000  1.6449  0.4587  0.9532
 5755TIP3   OH238679   5.613   5.597  15.923 -0.3176 -0.2211 -0.3040
 5755TIP3    H138680   5.600   5.516  15.972 -0.3765 -1.4168 -2.2347
 5755TIP3    H238681   5.536   5.650  15.943 -1.2095 -1.4206 -0.5098
 5756TIP3   OH238682   0.309   5.931   5.531  0.2930  0.1051 -0.5224
 5756TIP3    H138683   0.358   5.856   5.565  0.0999 -0.1170 -0.7323
 5756TIP3    H238684   0.352   5.951   5.448 -0.8835 -1.0101 -1.4187
 5757TIP3   OH238685   4.388   2.568   2.456 -0.0150 -0.2587 -0.3054
 5757TIP3    H138686   4.306   2.519   2.454  0.9301 -1.9352  1.0978
 5757TIP3    H238687   4.361   2.658   2.476 -1.4971 -0.8634  0.5045
 5758TIP3   OH238688   6.028   6.214   3.166  0.0659 -0.2272  0.2867
 5758TIP3    H138689   6.091   6.149   3.135  0.0151  0.1498 -0.6092
 5758TIP3    H238690   5.981   6.241   3.087 -1.1230 -0.4019  0.9284
 5759TIP3   OH238691   6.696   1.349   4.062 -0.3663  0.3066 -0.1630
 5759TIP3    H138692   6.749   1.269   4.074 -1.4237 -0.0611  2.1685
 5759TIP3    H238693   6.639   1.328   3.987  1.7353  0.1791 -1.7901
 5760TIP3   OH238694   1.008   5.027   2.660 -0.1911  0.6004 -0.3297
 5760TIP3    H138695   1.067   5.001   2.590  0.5788 -1.7021  1.1047
 5760TIP3    H238696   1.053   5.099   2.704 -0.4934  1.7748 -1.8915
 5761TIP3   OH238697   1.623   3.708  12.260  0.5802  0.2363  0.3789
 5761TIP3    H138698   1.650   3.741  12.174  0.2828 -0.2416  0.1010
 5761TIP3    H238699   1.538   3.667  12.244  0.3666  0.4419  0.9667
 5762TIP3   OH238700   4.950   4.725   0.047  0.2736 -0.0034  1.1960
 5762TIP3    H138701   5.023   4.679   0.090  1.1781  0.0139 -0.3129
 5762TIP3    H238702   4.970   4.720  -0.046 -1.3057  0.6198  0.8109
 5763TIP3   OH238703   3.758   0.334   0.207  0.2697 -0.7965 -0.4243
 5763TIP3    H138704   3.706   0.414   0.218  2.1544  0.6508 -1.8423
 5763TIP3    H238705   3.847   0.365   0.193  0.8033 -3.1124 -2.3686
 5764TIP3   OH238706   3.957   3.509  16.710  0.6161 -0.3368 -0.2193
 5764TIP3    H138707   3.990   3.446  16.774 -0.7438 -0.8476 -0.0127
 5764TIP3    H238708   3.862   3.501  16.715  0.4184  1.7007 -0.2153
 5765TIP3   OH238709   5.366   0.340   2.454  0.3196 -0.3112  0.2879
 5765TIP3    H138710   5.311   0.280   2.505 -1.7694  0.3318 -1.1222
 5765TIP3    H238711   5.386   0.412   2.514 -1.3829  0.0047  0.5081
 5766TIP3   OH238712   1.077   1.195   4.133  0.1612  0.1093 -0.4189
 5766TIP3    H138713   1.081   1.289   4.115 -1.3736 -0.0898 -1.9200
 5766TIP3    H238714   1.149   1.179   4.194  0.3851  2.2706 -0.0862
 5767TIP3   OH238715   3.427   3.048   1.349  0.0227  0.0277 -0.0880
 5767TIP3    H138716   3.355   3.057   1.411 -1.8789  1.0291 -2.3776
 5767TIP3    H238717   3.449   2.955   1.351 -1.2462 -0.2660  0.7030
 5768TIP3   OH238718   0.148   3.869   1.373 -0.3581 -0.0563  0.1078
 5768TIP3    H138719   0.082   3.928   1.337  0.5512  0.5908 -0.5064
 5768TIP3    H238720   0.221   3.927   1.398  0.3484 -0.8613 -0.0719
 5769TIP3   OH238721   4.245   1.578   0.158 -0.2570 -0.3573  0.2135
 5769TIP3    H138722   4.193   1.502   0.132  2.2790 -1.0883 -3.1154
 5769TIP3    H238723   4.193   1.654   0.131 -0.2555 -1.0615 -1.8698
 5770TIP3   OH238724   2.607   1.384   1.455 -0.6014  0.2848 -0.0979
 5770TIP3    H138725   2.635   1.394   1.546 -0.1604  2.3559 -0.4336
 5770TIP3    H238726   2.681   1.417   1.404 -1.1016 -0.2712 -1.1901
 5771TIP3   OH238727   5.432   1.167  11.964  0.3875 -0.2043  0.0717
 5771TIP3    H138728   5.513   1.217  11.954  0.5569 -0.5307 -0.1977
 5771TIP3    H238729   5.445   1.118  12.045  0.0469  0.5082  0.5624
 5772TIP3   OH238730   0.606   0.194  13.127  0.2712 -0.0636  0.1075
 5772TIP3    H138731   0.688   0.168  13.085  1.0087  0.8271  0.9990
 5772TIP3    H238732   0.589   0.282  13.095  1.6797  1.2702  2.8876
 5773TIP3   OH238733   1.326   6.344   4.666  0.0479 -0.3113 -0.4364
 5773TIP3    H138734   1.401   6.336   4.606  1.9779  1.5735  1.6070
 5773TIP3    H238735   1.310   6.255   4.697  3.2620 -0.4206  1.1536
 5774TIP3   OH238736   4.486   4.208   0.110  0.0961 -0.6929 -0.7112
 5774TIP3    H138737   4.534   4.243   0.036  0.6430 -1.0772 -0.5378
 5774TIP3    H238738   4.552   4.167   0.165 -0.0948  0.8645  0.7280
 5775TIP3   OH238739   3.201   6.563   3.865  0.1760 -0.5509  0.3301
 5775TIP3    H138740   3.172   6.651   3.844  0.3082 -0.4690  0.4865
 5775TIP3    H238741   3.295   6.564   3.846  0.2284 -0.5796  0.5737
 5776TIP3   OH238742   5.137   1.647   3.054  0.5797  0.2698  0.0028
 5776TIP3    H138743   5.199   1.667   3.125  0.0187  0.4986  0.4379
 5776TIP3    H238744   5.155   1.712   2.987  1.2499 -0.0700 -0.1501
 5777TIP3   OH238745   0.039   1.552   1.000 -0.3678  0.1411  0.2584
 5777TIP3    H138746   0.115   1.543   0.943 -0.2783  1.3284  0.1891
 5777TIP3    H238747  -0.035   1.519   0.948 -0.0823  0.0324 -0.0760
 5778TIP3   OH238748   1.750   2.061  13.379 -0.8614 -0.0979  0.0102
 5778TIP3    H138749   1.727   2.136  13.324 -0.3078 -0.6869 -1.0548
 5778TIP3    H238750   1.836   2.083  13.415  0.3806 -1.1696 -2.1488
 5779TIP3   OH238751   0.433   0.776   3.549 -0.4103  0.6283  0.5084
 5779TIP3    H138752   0.468   0.860   3.520  2.7438 -0.4397  1.0147
 5779TIP3    H238753   0.399   0.794   3.637  0.2350  1.3903  0.6130
 5780TIP3   OH238754   3.792   5.209  12.163  0.1961  0.1159 -0.4967
 5780TIP3    H138755   3.717   5.269  12.164  0.2302  0.1523  0.7692
 5780TIP3    H238756   3.868   5.266  12.157  0.2026  0.1713  0.1036
 5781TIP3   OH238757   1.516   5.368  14.380  0.7975  0.2464 -0.4642
 5781TIP3    H138758   1.423   5.386  14.370  0.0795 -2.0571  1.5350
 5781TIP3    H238759   1.544   5.338  14.293 -0.9080 -1.3667 -0.4966
 5782TIP3   OH238760   1.497   5.707   0.206 -0.0084  0.2011 -0.1546
 5782TIP3    H138761   1.542   5.707   0.291  1.2381 -0.2116 -0.8048
 5782TIP3    H238762   1.423   5.767   0.218  1.4496  1.9141  0.5526
 5783TIP3   OH238763   1.997   1.724   4.451  0.4231  0.1752 -0.2509
 5783TIP3    H138764   2.028   1.676   4.374 -1.3050  0.8036 -1.3504
 5783TIP3    H238765   2.066   1.788   4.468  1.1379 -0.4263 -0.8547
 5784TIP3   OH238766   5.809   5.206  14.923  0.2129  0.1922 -0.2804
 5784TIP3    H138767   5.781   5.273  14.986  0.0076  0.2580 -0.4416
 5784TIP3    H238768   5.760   5.128  14.948 -3.0507  1.2884 -2.9011
 5785TIP3   OH238769   3.644   6.468   2.304 -0.4484  0.5325  0.2452
 5785TIP3    H138770   3.650   6.377   2.333  1.3686  0.7375  0.6087
 5785TIP3    H238771   3.721   6.510   2.342  1.0250  1.2516 -3.2715
 5786TIP3   OH238772   4.732   5.954   0.049  0.6659 -0.3633  1.0817
 5786TIP3    H138773   4.684   6.033   0.074  2.2059  0.9672 -0.0779
 5786TIP3    H238774   4.823   5.974   0.069  1.0722 -1.8553  0.7877
 5787TIP3   OH238775   1.470   3.884   3.396 -0.4110 -0.0070 -0.2390
 5787TIP3    H138776   1.409   3.811   3.389 -0.7267  0.3776 -1.4863
 5787TIP3    H238777   1.549   3.854   3.350 -0.1542  0.0410  0.1598
 5788TIP3   OH238778   1.189   5.596  13.664 -0.2353 -0.0462 -0.7267
 5788TIP3    H138779   1.166   5.652  13.589  2.1384  1.7677 -0.1370
 5788TIP3    H238780   1.174   5.507  13.632  1.3653  0.6514 -3.6231
 5789TIP3   OH238781   2.119   6.327   5.488 -0.0652  0.2180 -0.4123
 5789TIP3    H138782   2.122   6.303   5.581 -0.2437  0.1577 -0.4228
 5789TIP3    H238783   2.209   6.316   5.458 -0.1315 -0.3719 -0.3990
 5790TIP3   OH238784   3.805   1.311   2.614 -0.2910 -0.1367 -0.2887
 5790TIP3    H138785   3.896   1.294   2.590  0.5674  1.7425  1.5428
 5790TIP3    H238786   3.775   1.229   2.654  0.2045 -1.1377 -1.8839
 5791TIP3   OH238787   3.019   6.766  13.619  0.0661 -0.0259  0.1219
 5791TIP3    H138788   2.998   6.830  13.687 -1.1897 -0.3251  0.0397
 5791TIP3    H238789   2.945   6.771  13.558 -1.1788 -3.0972  1.2589
 5792TIP3   OH238790   5.060   1.629  13.811 -0.2231  0.0604 -0.4374
 5792TIP3    H138791   5.025   1.614  13.899  1.5908 -0.6453  0.1983
 5792TIP3    H238792   5.083   1.722  13.810  2.2089 -0.4834  0.7993
 5793TIP3   OH238793   6.372   4.160  12.985 -0.3946 -0.4920  0.2524
 5793TIP3    H138794   6.302   4.106  12.950 -0.5991 -0.5723  0.7827
 5793TIP3    H238795   6.331   4.245  13.002 -1.2103 -1.4810  3.6583
 5794TIP3   OH238796   2.201   4.855   2.933 -0.8263  0.0609  0.6102
 5794TIP3    H138797   2.111   4.837   2.905 -1.0178  1.6147  0.1907
 5794TIP3    H238798   2.254   4.837   2.855 -1.1485  2.4216 -0.1975
 5795TIP3   OH238799   2.351   2.707  16.584 -0.5194  0.2237 -0.2532
 5795TIP3    H138800   2.351   2.617  16.553 -0.6579 -0.0643  0.5830
 5795TIP3    H238801   2.416   2.751  16.529 -1.0979 -0.1724 -1.2707
 5796TIP3   OH238802   6.121   2.097   0.303  0.1419  0.0813  0.3424
 5796TIP3    H138803   6.156   2.175   0.260  1.3808 -0.6068  0.0808
 5796TIP3    H238804   6.034   2.086   0.267 -0.0598  1.3800  0.4167
 5797TIP3   OH238805   2.927   5.354   0.637  0.2334  0.0227  0.0144
 5797TIP3    H138806   2.995   5.289   0.656 -0.4351 -0.9489 -0.8321
 5797TIP3    H238807   2.966   5.411   0.571  0.4329 -0.1803 -0.0446
 5798TIP3   OH238808   2.700   3.522   0.870 -0.1463 -0.2469 -0.3054
 5798TIP3    H138809   2.758   3.574   0.926 -1.5249  1.4486 -0.4278
 5798TIP3    H238810   2.669   3.452   0.927  1.6435 -0.9147 -0.1054
 5799TIP3   OH238811   5.605   0.404  15.439 -0.7696  0.3690  0.0746
 5799TIP3    H138812   5.547   0.451  15.499  1.2826  1.4213  1.3244
 5799TIP3    H238813   5.645   0.473  15.386 -1.2979 -0.4165 -1.3726
 5800TIP3   OH238814   4.240   6.294   4.490 -0.3633 -0.3531  0.0723
 5800TIP3    H138815   4.280   6.212   4.463  1.6995  0.8398 -0.6487
 5800TIP3    H238816   4.147   6.274   4.501 -0.0865 -2.4660 -1.2736
 5801TIP3   OH238817   2.763   4.275  11.463  0.2647 -0.1118  0.0579
 5801TIP3    H138818   2.701   4.204  11.477 -0.4388  0.3430 -0.6706
 5801TIP3    H238819   2.788   4.303  11.551 -0.0225 -0.7704  0.3497
 5802TIP3   OH238820   2.596   3.604  12.119  0.0677 -0.2444  0.2107
 5802TIP3    H138821   2.636   3.680  12.077  1.9837 -1.8176 -0.8852
 5802TIP3    H238822   2.625   3.610  12.210 -0.8885  1.0473  0.4451
 5803TIP3   OH238823   0.793   2.557   4.129 -0.0608  0.0682 -0.0205
 5803TIP3    H138824   0.791   2.650   4.149  0.5161  0.4218 -1.5048
 5803TIP3    H238825   0.707   2.524   4.157  0.1948  0.7801  1.6363
 5804TIP3   OH238826   1.499   0.895  13.320 -0.1424  0.0143 -0.0723
 5804TIP3    H138827   1.461   0.819  13.365 -0.3965  0.1219 -0.1001
 5804TIP3    H238828   1.593   0.884  13.329 -0.1673 -0.5726 -0.5224
 5805TIP3   OH238829   5.427   4.584  16.356  0.4719  0.4763 -0.3314
 5805TIP3    H138830   5.341   4.585  16.397  0.6599  0.8941  0.0607
 5805TIP3    H238831   5.412   4.607  16.265  0.4416  2.7931  0.2376
 5806TIP3   OH238832   4.072   2.669  11.729  0.1470 -0.2053  0.2653
 5806TIP3    H138833   4.143   2.667  11.794  0.7159  1.3478 -0.2845
 5806TIP3    H238834   4.112   2.634  11.649  1.0446  2.8431 -0.7106
 5807TIP3   OH238835   2.772   0.413  15.764 -0.0588  0.3066 -0.2063
 5807TIP3    H138836   2.734   0.500  15.753  0.0560  0.2802 -0.8676
 5807TIP3    H238837   2.823   0.399  15.684 -0.5433 -0.6069 -0.3602
 5808TIP3   OH238838   6.360   4.502  14.167 -0.2649  0.5097 -0.2579
 5808TIP3    H138839   6.346   4.593  14.191  0.5917  0.4906  0.3754
 5808TIP3    H238840   6.453   4.497  14.146 -0.2976 -0.2273 -0.2412
 5809TIP3   OH238841   1.641   1.518  16.626  0.0170 -0.2902 -0.7392
 5809TIP3    H138842   1.695   1.450  16.585  2.4414  0.5969  0.9048
 5809TIP3    H238843   1.647   1.500  16.720  2.1530  3.1880 -0.1248
 5810TIP3   OH238844   5.507   5.103  11.574 -1.0179 -0.5853 -0.1274
 5810TIP3    H138845   5.521   5.030  11.514 -0.9235 -0.5424 -0.1577
 5810TIP3    H238846   5.422   5.139  11.548 -1.0244 -0.6299 -0.1682
 5811TIP3   OH238847   4.576   0.871   2.470 -0.3183  0.3057  0.6680
 5811TIP3    H138848   4.546   0.962   2.473  2.6509  1.3499 -0.0986
 5811TIP3    H238849   4.638   0.863   2.542  1.6909 -0.2455 -1.0719
 5812TIP3   OH238850   4.420   3.699  13.470 -0.2578  0.4066  0.1334
 5812TIP3    H138851   4.506   3.691  13.511  0.0778  0.2802 -0.5885
 5812TIP3    H238852   4.398   3.611  13.440 -0.9633  0.2950  0.9456
 5813TIP3   OH238853   5.178   1.670  16.353  0.5996 -0.1105 -0.1033
 5813TIP3    H138854   5.251   1.681  16.414  0.7399 -0.7786 -0.1465
 5813TIP3    H238855   5.146   1.581  16.369 -0.2688  0.2115 -0.0155
 5814TIP3   OH238856   0.423   6.049  15.539 -0.0307 -0.3147  0.5787
 5814TIP3    H138857   0.478   6.126  15.549  0.2938 -0.8034  2.7846
 5814TIP3    H238858   0.439   5.997  15.618  0.0630 -2.8392 -1.0167
 5815TIP3   OH238859   1.159   1.100   5.741 -0.0248  0.4319 -0.0792
 5815TIP3    H138860   1.119   1.015   5.759  1.4049 -0.3968 -0.6850
 5815TIP3    H238861   1.170   1.102   5.646  0.6994  0.9391  0.0092
 5816TIP3   OH238862   5.930   3.732   2.509  0.4326  0.2421 -0.4493
 5816TIP3    H138863   5.974   3.789   2.447  1.5938  0.0051  0.1401
 5816TIP3    H238864   5.852   3.702   2.463  0.9833  0.5222 -1.5813
 5817TIP3   OH238865   0.845   4.801   1.961 -0.2566  0.0610 -0.1439
 5817TIP3    H138866   0.916   4.768   2.016 -0.0870 -0.8513 -0.8954
 5817TIP3    H238867   0.766   4.791   2.014  0.0780  0.4415  0.4346
 5818TIP3   OH238868   2.430   5.948  16.537 -0.2266 -0.2652 -0.3189
 5818TIP3    H138869   2.481   5.908  16.467 -0.6462  0.8453 -1.2727
 5818TIP3    H238870   2.496   5.990  16.593 -0.0127  0.2025 -0.9241
 5819TIP3   OH238871   2.240   3.814  14.632 -0.4662  0.0899  0.6269
 5819TIP3    H138872   2.250   3.871  14.556  0.8817 -0.0726  0.6694
 5819TIP3    H238873   2.202   3.733  14.597  0.8537 -0.2700 -0.0080
 5820TIP3   OH238874   3.799   1.246   0.894 -0.5092 -0.1279 -0.4588
 5820TIP3    H138875   3.843   1.328   0.872  0.1980 -0.2191  0.5716
 5820TIP3    H238876   3.817   1.188   0.820 -1.7478  0.9185 -1.5940
 5821TIP3   OH238877   3.098   0.004  11.915 -0.0659 -0.0598  0.0213
 5821TIP3    H138878   3.072   0.033  12.002  0.4713  0.4310  0.0229
 5821TIP3    H238879   3.092  -0.091  11.918 -0.8254 -0.0088  0.3435
 5822TIP3   OH238880   4.257   5.314  14.067 -0.0497 -0.1599  0.8900
 5822TIP3    H138881   4.188   5.381  14.064  1.4819  1.4358  0.0005
 5822TIP3    H238882   4.256   5.283  14.158 -1.0094  0.8733  1.2436
 5823TIP3   OH238883   2.048   1.166  14.425 -0.0174 -0.0659 -0.4647
 5823TIP3    H138884   2.011   1.139  14.341 -1.7037  0.8890 -0.0529
 5823TIP3    H238885   2.125   1.109  14.437 -0.5887 -1.1856 -1.9577
 5824TIP3   OH238886   0.973   3.074  11.906 -0.3561 -0.0064 -0.0287
 5824TIP3    H138887   0.879   3.076  11.921 -0.3428 -2.5476  0.7073
 5824TIP3    H238888   0.990   3.145  11.845 -2.6875  0.7439  0.1809
 5825TIP3   OH238889   5.507   0.263   2.747  0.1559 -0.2471  0.0613
 5825TIP3    H138890   5.442   0.200   2.715  0.4353 -0.9263  0.8255
 5825TIP3    H238891   5.532   0.230   2.833  0.4116  0.8354  0.4004
 5826TIP3   OH238892   5.401   0.520   2.696 -0.9113  0.3538  0.8576
 5826TIP3    H138893   5.440   0.586   2.753  0.3010  1.5278 -1.2776
 5826TIP3    H238894   5.446   0.438   2.718  0.9880  1.1991  0.1700
 5827TIP3   OH238895   3.215   5.909   2.786 -0.5016  0.5670 -0.1052
 5827TIP3    H138896   3.249   5.982   2.735 -0.4721  0.8259  0.2898
 5827TIP3    H238897   3.293   5.869   2.826 -0.2565 -0.9884 -2.0298
 5828TIP3   OH238898   2.486   6.189   5.597 -0.0797  0.1401  0.3524
 5828TIP3    H138899   2.578   6.212   5.581 -0.2911  0.6145 -0.1855
 5828TIP3    H238900   2.484   6.161   5.688  0.1624  2.4307  1.1018
 5829TIP3   OH238901   6.581   4.217  13.831 -0.6812  0.1806 -0.4838
 5829TIP3    H138902   6.612   4.308  13.833 -0.3131  0.0803 -1.3443
 5829TIP3    H238903   6.584   4.193  13.738 -1.2595 -0.5457 -0.3197
 5830TIP3   OH238904   6.364   5.779   2.294 -0.4686  0.5540 -0.3877
 5830TIP3    H138905   6.305   5.822   2.232 -0.4778  1.0846 -0.0194
 5830TIP3    H238906   6.329   5.804   2.380 -1.6209 -1.7373 -0.1490
 5831TIP3   OH238907   1.557   0.608  17.008  0.2714  1.0266 -0.2264
 5831TIP3    H138908   1.623   0.653  16.957  0.0108  2.8487  1.0189
 5831TIP3    H238909   1.492   0.675  17.029 -2.5567 -0.9191 -2.3169
 5832TIP3   OH238910   6.195   5.954  15.808 -0.2166 -0.0300 -0.2514
 5832TIP3    H138911   6.215   5.894  15.736  1.5896  0.7523 -0.4197
 5832TIP3    H238912   6.202   6.041  15.769  0.7567  0.4002  0.8568
 5833TIP3   OH238913   0.903   2.132   1.603 -0.1486  0.2928  0.2201
 5833TIP3    H138914   0.856   2.182   1.669  0.0371  0.8485 -0.0667
 5833TIP3    H238915   0.840   2.124   1.531 -0.5108 -0.7009  0.6403
 5834TIP3   OH238916   1.361   0.912  15.119 -0.2901 -0.1881  0.4850
 5834TIP3    H138917   1.377   0.840  15.181  0.7921  0.6742  1.2312
 5834TIP3    H238918   1.420   0.893  15.046  0.0071 -0.0659  0.6892
 5835TIP3   OH238919   6.105   6.311   0.676  0.3823  0.3267 -1.1649
 5835TIP3    H138920   6.170   6.340   0.612  0.2638  0.9750 -0.9922
 5835TIP3    H238921   6.103   6.216   0.666  2.4695  0.1438 -0.1173
 5836TIP3   OH238922   4.300   3.281  15.479 -0.4197  0.2221 -0.0834
 5836TIP3    H138923   4.208   3.305  15.490 -0.2803 -0.0243  1.9451
 5836TIP3    H238924   4.346   3.333  15.545  0.5466 -1.6155  0.7277
 5837TIP3   OH238925   4.858   0.235  16.493  0.3628 -0.4894 -0.6509
 5837TIP3    H138926   4.798   0.310  16.483  0.4726 -0.0801  1.3678
 5837TIP3    H238927   4.924   0.247  16.425  1.7532  2.6539  1.1123
 5838TIP3   OH238928   5.128   5.919   4.785 -0.2331 -0.0638  0.0380
 5838TIP3    H138929   5.102   6.005   4.751 -1.0317  0.0279  0.8730
 5838TIP3    H238930   5.196   5.889   4.724  0.3655  1.3532 -0.0264
 5839TIP3   OH238931   3.434   6.538   3.363  0.2327 -0.0748 -0.3034
 5839TIP3    H138932   3.441   6.610   3.301 -1.7431 -0.5854 -1.1887
 5839TIP3    H238933   3.341   6.515   3.362  0.7582 -2.3664  0.2400
 5840TIP3   OH238934   1.388   0.869   5.313  0.9944  0.2956 -0.2846
 5840TIP3    H138935   1.448   0.936   5.280  0.0721  2.8364  2.9878
 5840TIP3    H238936   1.442   0.816   5.373  0.3545  1.7211  1.5832
 5841TIP3   OH238937   0.711   0.785   4.236 -0.5741 -0.7942 -0.4846
 5841TIP3    H138938   0.719   0.700   4.192  1.4453  1.0075 -3.7511
 5841TIP3    H238939   0.667   0.841   4.172  1.2559  1.5615  0.2449
 5842TIP3   OH238940   5.833   3.596  13.276 -0.8270 -0.2129  0.0531
 5842TIP3    H138941   5.826   3.613  13.370 -1.4029  0.8448 -0.1738
 5842TIP3    H238942   5.908   3.648  13.247  0.4542 -1.9038  0.2263
 5843TIP3   OH238943   3.115   1.135  11.650  0.2277  0.1632 -0.0501
 5843TIP3    H138944   3.088   1.171  11.566 -0.8437  0.7001  0.5121
 5843TIP3    H238945   3.047   1.070  11.671  0.6915 -0.2400  0.2283
 5844TIP3   OH238946   2.568   5.789  16.114  0.1464  0.1910  0.9123
 5844TIP3    H138947   2.472   5.789  16.117  0.0996  1.1809 -0.0761
 5844TIP3    H238948   2.588   5.803  16.021  1.2507 -0.1660  1.0973
 5845TIP3   OH238949   0.342   5.135  12.049  0.0647  0.0700  0.5356
 5845TIP3    H138950   0.265   5.078  12.057  1.0599 -1.2251  1.0259
 5845TIP3    H238951   0.307   5.224  12.058 -1.8300 -0.3002 -2.2769
 5846TIP3   OH238952   1.322   0.016   5.968 -0.1965  0.5316  0.3824
 5846TIP3    H138953   1.316  -0.075   5.940 -0.3214  0.1548  1.6122
 5846TIP3    H238954   1.366   0.013   6.052 -1.3100  1.4871  1.0287
 5847TIP3   OH238955   5.301   1.451  11.286 -0.5132 -0.0162 -0.9085
 5847TIP3    H138956   5.246   1.492  11.220  3.2100 -0.5633 -4.5536
 5847TIP3    H238957   5.294   1.357  11.268 -0.4357 -0.2797  0.3401
 5848TIP3   OH238958   5.465   3.351  12.563  0.4852 -0.0063 -0.3785
 5848TIP3    H138959   5.437   3.442  12.553 -0.7180 -0.3426 -0.1633
 5848TIP3    H238960   5.533   3.354  12.631 -0.3933  0.5721  0.4886
 5849TIP3   OH238961   4.287   0.112  12.809  0.0663  0.0547 -0.0003
 5849TIP3    H138962   4.303   0.018  12.818  0.2633  0.1426  0.5907
 5849TIP3    H238963   4.371   0.148  12.778 -0.2227 -0.0624 -0.9406
 5850TIP3   OH238964   2.176   5.561  16.308 -0.4427 -0.5658 -0.2267
 5850TIP3    H138965   2.103   5.593  16.362  1.2611 -1.5514  2.7902
 5850TIP3    H238966   2.169   5.466  16.313 -0.4714 -0.6750 -2.1003
 5851TIP3   OH238967   4.987   1.121   0.354  0.1620 -0.1738  0.7228
 5851TIP3    H138968   5.023   1.201   0.393 -1.4897  0.3123  1.2743
 5851TIP3    H238969   5.014   1.126   0.262  0.7491  0.6101  0.9254
 5852TIP3   OH238970   6.256   1.498   5.393 -0.1574  0.8836 -0.1587
 5852TIP3    H138971   6.272   1.518   5.485  1.6339 -1.4864  0.0879
 5852TIP3    H238972   6.267   1.582   5.348  1.9830  1.4937  1.4254
 5853TIP3   OH238973   0.548   6.111  16.359 -0.3598  0.2083  0.3628
 5853TIP3    H138974   0.592   6.169  16.297  1.4372 -0.2726  1.1532
 5853TIP3    H238975   0.455   6.132  16.351 -0.0117  1.0573 -1.5437
 5854TIP3   OH238976   3.822   5.990  11.895 -0.1166  0.0172 -0.3551
 5854TIP3    H138977   3.904   5.990  11.944  0.1298  0.0346 -0.7602
 5854TIP3    H238978   3.791   5.900  11.901 -2.2006  0.8718  3.2853
 5855TIP3   OH238979   4.520   6.368  11.895  0.4940 -0.4182 -0.1257
 5855TIP3    H138980   4.534   6.435  11.828 -0.5104 -0.0955 -0.0182
 5855TIP3    H238981   4.452   6.311  11.859  1.4287 -1.4569 -0.2686
 5856TIP3   OH238982   3.160   3.708  12.679 -0.3768  0.4107 -0.1015
 5856TIP3    H138983   3.116   3.722  12.763 -0.9085  0.0158 -0.3103
 5856TIP3    H238984   3.173   3.613  12.675 -0.1923  0.4481 -0.3858
 5857TIP3   OH238985   1.820   2.158   1.121 -0.3970  0.1829  0.2951
 5857TIP3    H138986   1.864   2.163   1.036 -0.5759 -0.9263  0.1257
 5857TIP3    H238987   1.803   2.249   1.145  1.6052  0.6113  0.1675
 5858TIP3   OH238988   5.774   1.484   0.555  0.9007  0.0855 -0.2236
 5858TIP3    H138989   5.708   1.521   0.614  2.3166 -0.5079  1.7810
 5858TIP3    H238990   5.788   1.395   0.588  2.4988  0.1088 -0.7947
 5859TIP3   OH238991   0.511   0.653  16.097 -0.2084 -0.4319 -0.2487
 5859TIP3    H138992   0.505   0.560  16.115  2.6220 -0.6320 -0.0419
 5859TIP3    H238993   0.535   0.692  16.182 -1.1763  0.4638 -0.3756
 5860TIP3   OH238994   2.702   2.522   2.915  0.3161 -0.0296  0.3780
 5860TIP3    H138995   2.652   2.490   2.991  0.6984  0.7489  0.9684
 5860TIP3    H238996   2.782   2.558   2.953 -0.3031  2.0282 -0.2132
 5861TIP3   OH238997   6.312   4.211  14.535  0.8607  0.3085  0.2653
 5861TIP3    H138998   6.389   4.168  14.497  0.1063 -0.0593 -0.8827
 5861TIP3    H238999   6.252   4.139  14.556  0.7239  0.6077  0.8936
 5862TIP3   OH239000   4.716   2.766  14.898 -0.2968 -0.0330  0.1409
 5862TIP3    H139001   4.710   2.772  14.994 -0.6800  2.1282  0.0100
 5862TIP3    H239002   4.641   2.712  14.873 -0.3243 -0.4245  1.0417
 5863TIP3   OH239003   1.395   4.916  12.279 -0.6867 -0.1449 -0.3236
 5863TIP3    H139004   1.477   4.939  12.235  0.3296 -1.6421  0.7048
 5863TIP3    H239005   1.351   4.857  12.218  1.0592 -2.8040  0.8692
 5864TIP3   OH239006   5.272   0.008   2.835  0.1007  0.1088 -0.3331
 5864TIP3    H139007   5.361  -0.028   2.841  0.6350  1.3527 -0.6382
 5864TIP3    H239008   5.215  -0.069   2.839  1.1664 -0.6563  0.4512
 5865TIP3   OH239009   2.948   2.624   2.257  0.2242 -0.5227  0.1449
 5865TIP3    H139010   2.921   2.565   2.327 -0.2024  0.6279  0.9805
 5865TIP3    H239011   3.039   2.602   2.240  0.8299  0.2550  2.2033
 5866TIP3   OH239012   0.458   4.453  16.410  1.0665 -0.0446  0.2324
 5866TIP3    H139013   0.368   4.465  16.438  1.2183  1.3664  0.1460
 5866TIP3    H239014   0.464   4.360  16.388 -0.3491 -0.1519  0.2629
 5867TIP3   OH239015   6.598   3.404  17.133 -0.6308  0.0623  0.6364
 5867TIP3    H139016   6.650   3.447  17.201 -0.2889  0.6035  0.0434
 5867TIP3    H239017   6.663   3.364  17.075 -0.9801 -3.3957  2.5069
 5868TIP3   OH239018   4.427   4.444   4.173  0.7324 -0.3091  0.3110
 5868TIP3    H139019   4.508   4.494   4.188  1.5031 -1.4428 -0.0164
 5868TIP3    H239020   4.411   4.400   4.256 -0.0701  0.6321  0.6694
 5869TIP3   OH239021   6.634   2.248  13.394  0.1375  0.5908  0.3576
 5869TIP3    H139022   6.676   2.165  13.415  0.0970  0.5793  0.3933
 5869TIP3    H239023   6.682   2.281  13.318 -0.4941  0.0397 -0.2976
 5870TIP3   OH239024   5.207   2.375   4.978  0.2425  0.1833 -0.8124
 5870TIP3    H139025   5.303   2.376   4.975  0.3124  0.0861  1.1948
 5870TIP3    H239026   5.185   2.306   5.041 -1.0566  2.6373  1.4943
 5871TIP3   OH239027   3.504   2.538   6.265  0.7609  0.0176 -0.3709
 5871TIP3    H139028   3.412   2.516   6.274  1.2307 -1.3994  1.3743
 5871TIP3    H239029   3.530   2.572   6.350  2.3363 -1.6304 -0.1372
 5872TIP3   OH239030   5.235   1.518   0.204 -0.0548 -0.2672  0.0902
 5872TIP3    H139031   5.175   1.537   0.276  2.9044 -0.3759  2.7545
 5872TIP3    H239032   5.231   1.595   0.148 -1.4483  0.4194  1.0890
 5873TIP3   OH239033   1.943   4.521  12.427 -0.1603  0.0882  0.7936
 5873TIP3    H139034   1.866   4.576  12.437  0.5991  0.9906  1.7832
 5873TIP3    H239035   1.978   4.511  12.515  0.2382 -1.2225  0.5005
 5874TIP3   OH239036   4.289   0.003   1.689  0.9989  0.3518 -0.7533
 5874TIP3    H139037   4.333  -0.007   1.774  1.1430 -0.5681 -0.9294
 5874TIP3    H239038   4.206   0.046   1.710  1.2058  0.4880 -0.1970
 5875TIP3   OH239039   6.561   6.374   6.382 -0.0352 -0.3999  0.2149
 5875TIP3    H139040   6.526   6.285   6.387 -0.4692 -0.1206  2.6357
 5875TIP3    H239041   6.656   6.362   6.387 -0.1346 -0.6831  1.7852
 5876TIP3   OH239042   6.605   1.088   3.518 -0.5092 -0.1977 -0.0677
 5876TIP3    H139043   6.579   0.996   3.510 -0.4298 -0.2740  0.5352
 5876TIP3    H239044   6.631   1.097   3.610 -0.2942  0.3686 -0.1865
 5877TIP3   OH239045   0.509   1.189  14.473 -0.3352  0.0713 -0.6983
 5877TIP3    H139046   0.443   1.253  14.499 -1.2696 -0.6086 -1.3702
 5877TIP3    H239047   0.564   1.236  14.410 -1.8190 -0.1566 -2.2166
 5878TIP3   OH239048   3.864   2.535   5.844  0.4691  0.1721 -0.0569
 5878TIP3    H139049   3.808   2.611   5.860  2.4247  1.5576  0.2346
 5878TIP3    H239050   3.828   2.496   5.764 -1.0045  0.9445  0.1979
 5879TIP3   OH239051   2.507   4.374  15.656  0.1714 -0.3276 -0.4325
 5879TIP3    H139052   2.507   4.287  15.695 -0.5982  0.2288  0.8546
 5879TIP3    H239053   2.434   4.373  15.595 -2.0223  0.4425  2.0590
 5880TIP3   OH239054   6.159   3.862   1.551 -0.3229 -0.2102  0.4400
 5880TIP3    H139055   6.218   3.902   1.488 -0.5193 -0.4911  0.0823
 5880TIP3    H239056   6.079   3.913   1.545 -0.0785  0.2610  1.0259
 5881TIP3   OH239057   3.845   1.711  11.760 -0.0198  0.3422 -0.1715
 5881TIP3    H139058   3.778   1.736  11.823  0.1167 -0.5951  0.3539
 5881TIP3    H239059   3.807   1.638  11.712  1.1563 -1.1379  1.0969
 5882TIP3   OH239060   6.307   0.956   4.195 -0.6079 -0.9154 -0.1025
 5882TIP3    H139061   6.341   1.045   4.191  0.9478 -1.4993 -0.5404
 5882TIP3    H239062   6.212   0.965   4.186 -0.5315  0.7319  0.5663
 5883TIP3   OH239063   1.393   6.364  16.558  0.2496 -0.0289  0.6085
 5883TIP3    H139064   1.415   6.397  16.645  1.0035 -0.9755  0.7947
 5883TIP3    H239065   1.478   6.354  16.515  0.0375 -1.5100  0.4967
 5884TIP3   OH239066   1.703   6.244   0.428  0.5770 -0.7569  0.1523
 5884TIP3    H139067   1.769   6.308   0.401 -0.6605  0.0509 -1.0335
 5884TIP3    H239068   1.691   6.187   0.351 -0.8450 -0.2528 -0.0180
 5885TIP3   OH239069   5.593   3.469  13.285  0.0820  0.3584 -0.3010
 5885TIP3    H139070   5.567   3.475  13.377 -1.3773 -1.0300 -0.6041
 5885TIP3    H239071   5.674   3.521  13.280  0.9354 -0.6661  2.0269
 5886TIP3   OH239072   1.151   5.691  13.922 -0.2159 -0.2411 -0.4220
 5886TIP3    H139073   1.246   5.697  13.914 -0.1123 -2.8572 -1.6541
 5886TIP3    H239074   1.122   5.664  13.835 -1.9969 -0.5324  0.2535
 5887TIP3   OH239075   1.306   3.177  11.602  0.1687 -0.8434 -0.0815
 5887TIP3    H139076   1.234   3.120  11.575  1.2307 -2.6163  0.7504
 5887TIP3    H239077   1.284   3.203  11.692 -1.1023  1.3981 -0.9881
 5888TIP3   OH239078   1.995   0.522  15.920  0.3936 -0.3604 -0.0548
 5888TIP3    H139079   1.914   0.477  15.943  0.1220  0.3976  0.4892
 5888TIP3    H239080   1.968   0.610  15.897  0.8865 -0.5700 -1.4552
 5889TIP3   OH239081   0.404   2.007  16.410 -0.2077 -0.1130  0.2490
 5889TIP3    H139082   0.423   1.962  16.327  0.6728  0.6115  0.0563
 5889TIP3    H239083   0.324   2.056  16.392  0.2566  0.4412 -0.3260
 5890TIP3   OH239084   2.238   1.995  14.656  0.1403  0.3300  0.0995
 5890TIP3    H139085   2.276   2.081  14.637  1.0412 -0.3105 -1.0766
 5890TIP3    H239086   2.182   1.977  14.581  1.9754 -1.2316 -0.9494
 5891TIP3   OH239087   6.097   3.823   2.880 -0.1110 -0.7490  0.0112
 5891TIP3    H139088   6.015   3.826   2.931  0.3619 -0.5155  0.7662
 5891TIP3    H239089   6.160   3.872   2.934  0.5390 -0.9682 -0.5498
 5892TIP3   OH239090   6.303   2.968  14.911 -0.0641 -0.1623 -0.5788
 5892TIP3    H139091   6.379   3.021  14.938 -0.2903  0.3002 -0.8522
 5892TIP3    H239092   6.327   2.879  14.936  0.8467 -0.1138 -1.2429
 5893TIP3   OH239093   1.043   3.341   1.119  0.4647 -0.4540  0.5072
 5893TIP3    H139094   1.058   3.394   1.041  1.9615  0.1286  1.1718
 5893TIP3    H239095   0.950   3.353   1.138  0.6089  1.3447  0.2026
 5894TIP3   OH239096   6.229   6.383   0.442 -0.1047 -0.0959 -0.3284
 5894TIP3    H139097   6.264   6.471   0.456  1.8280 -0.8047 -0.5042
 5894TIP3    H239098   6.157   6.394   0.380  1.0514  1.1787 -1.4601
 5895TIP3   OH239099   3.047   3.030   3.064  0.4377 -0.0094 -0.2127
 5895TIP3    H139100   3.120   3.040   3.125  2.0450 -1.0007 -1.9199
 5895TIP3    H239101   3.042   3.114   3.018  0.1286  0.2486  0.2845
 5896TIP3   OH239102   0.089   6.634  14.905 -0.0824  0.2306  0.7319
 5896TIP3    H139103   0.114   6.688  14.830  0.9095  1.5245  1.9627
 5896TIP3    H239104   0.019   6.579  14.872  0.1600  0.9615 -1.0818
 5897TIP3   OH239105   0.257   0.685  10.597 -0.5330  0.2210 -0.5889
 5897TIP3    H139106   0.202   0.607  10.593 -0.6674  0.2487  0.5750
 5897TIP3    H239107   0.203   0.751  10.640  0.2731  0.3530  0.2444
 5898TIP3   OH239108   1.581   4.219   2.501 -0.0089 -0.0676  0.0462
 5898TIP3    H139109   1.636   4.265   2.564 -0.1849 -0.7092  0.6906
 5898TIP3    H239110   1.587   4.269   2.420 -0.4236  1.2328  0.8139
 5899TIP3   OH239111   1.433   6.039   5.392 -0.1843  0.0645  0.0340
 5899TIP3    H139112   1.384   5.985   5.453 -0.5631 -0.2492 -0.5350
 5899TIP3    H239113   1.496   5.980   5.351 -0.9824 -0.0989 -1.0054
 5900TIP3   OH239114   3.735   4.672  12.084  0.3705 -0.2047  0.3099
 5900TIP3    H139115   3.746   4.699  12.175  1.1831 -0.9695  0.4373
 5900TIP3    H239116   3.809   4.712  12.038  0.8583 -1.1537  0.2701
 5901TIP3   OH239117   3.730   4.397   2.265 -0.1197 -0.1407  0.4448
 5901TIP3    H139118   3.675   4.353   2.330 -0.0225  1.6283  1.7407
 5901TIP3    H239119   3.694   4.369   2.181 -2.2015  0.0128  1.2584
 5902TIP3   OH239120   4.652   2.353   3.492  0.1768 -0.0544 -0.6881
 5902TIP3    H139121   4.745   2.373   3.502  0.2573 -1.3173  1.3695
 5902TIP3    H239122   4.645   2.260   3.514 -1.4790 -0.0987 -1.3779
 5903TIP3   OH239123   2.704   5.815  17.055  0.0216  0.4373  0.0927
 5903TIP3    H139124   2.798   5.834  17.060  0.0366 -0.0912  3.3113
 5903TIP3    H239125   2.699   5.722  17.036  0.1293  0.5501 -0.4980
 5904TIP3   OH239126   2.937   3.831   6.265 -0.2358 -0.0931 -1.0782
 5904TIP3    H139127   2.921   3.848   6.172 -2.2163  0.2994 -0.6871
 5904TIP3    H239128   3.010   3.890   6.288 -0.7975  0.9859 -1.9975
 5905TIP3   OH239129   5.729   5.845   0.973  0.0946 -0.2932  0.0850
 5905TIP3    H139130   5.665   5.877   0.909  0.5547 -0.2268 -0.3396
 5905TIP3    H239131   5.753   5.923   1.023  1.1337  0.0023 -0.8791
 5906TIP3   OH239132   0.791   1.426  11.878 -0.1304  0.3163  0.1787
 5906TIP3    H139133   0.856   1.445  11.810 -0.5213 -0.7962 -0.5261
 5906TIP3    H239134   0.707   1.446  11.837 -0.2914  0.8339  0.7603
 5907TIP3   OH239135   3.296   2.501  13.369 -0.2123  0.7829  0.1005
 5907TIP3    H139136   3.298   2.592  13.342 -2.8307  0.9283  0.2839
 5907TIP3    H239137   3.299   2.451  13.287 -1.5954  1.0849 -0.1308
 5908TIP3   OH239138   3.834   0.978  14.389  0.4385 -0.0944  0.2690
 5908TIP3    H139139   3.904   0.915  14.373 -0.6337 -0.8449 -1.5858
 5908TIP3    H239140   3.785   0.942  14.464  1.9431  0.3876  1.5055
 5909TIP3   OH239141   1.478   3.880   2.072 -0.2228 -0.5665 -0.3273
 5909TIP3    H139142   1.481   3.956   2.131 -3.3979 -0.4419 -0.2140
 5909TIP3    H239143   1.559   3.886   2.021  1.6500  0.4496  2.6247
 5910TIP3   OH239144   2.298   1.362  12.822  0.1162 -0.7493 -0.2230
 5910TIP3    H139145   2.376   1.390  12.870  0.1148 -0.6518 -0.2782
 5910TIP3    H239146   2.319   1.273  12.793 -0.2350 -1.1514  0.7257
 5911TIP3   OH239147   2.060   4.282   5.638 -0.3104 -0.2400 -0.2078
 5911TIP3    H139148   2.109   4.357   5.604 -2.4994  0.8585 -1.0724
 5911TIP3    H239149   2.119   4.207   5.627  0.9246  0.9313 -1.7729
 5912TIP3   OH239150   1.495   4.669   4.010 -0.1942  0.0094 -0.4428
 5912TIP3    H139151   1.457   4.626   3.933 -2.0027  0.0061  0.4471
 5912TIP3    H239152   1.490   4.604   4.079  4.0089 -1.0221 -0.9264
 5913TIP3   OH239153   3.837   0.793   6.053  0.2342  0.1424  0.3485
 5913TIP3    H139154   3.882   0.823   6.132 -0.6948 -1.0438  1.3398
 5913TIP3    H239155   3.751   0.833   6.057  0.2918  0.3387 -0.2422
 5914TIP3   OH239156   5.117   1.314  10.858  0.0270 -0.1495 -0.7134
 5914TIP3    H139157   5.115   1.323  10.763 -1.6982  1.4792 -0.5385
 5914TIP3    H239158   5.085   1.397  10.891  1.0302 -0.5379  1.3256
 5915TIP3   OH239159   2.657   5.553   2.431 -0.5342  0.1341 -0.3156
 5915TIP3    H139160   2.626   5.494   2.499  0.2564 -0.3534 -0.3785
 5915TIP3    H239161   2.670   5.497   2.354  1.7027  0.1085  0.0558
 5916TIP3   OH239162   4.220   3.635  16.150 -0.8194 -0.4104  0.2654
 5916TIP3    H139163   4.205   3.729  16.161  1.0808  0.0305 -0.6392
 5916TIP3    H239164   4.252   3.605  16.235 -2.3358 -0.4541  0.8385
 5917TIP3   OH239165   2.749   3.060   0.651 -0.3892  0.1276  0.0878
 5917TIP3    H139166   2.683   3.125   0.627 -1.0572 -0.7782 -0.5663
 5917TIP3    H239167   2.714   3.017   0.728 -0.5364 -0.3295 -0.2368
 5918TIP3   OH239168   5.305   0.881   2.770 -0.2323 -0.6257  0.1898
 5918TIP3    H139169   5.322   0.817   2.839 -0.0625 -2.1540 -1.2335
 5918TIP3    H239170   5.266   0.829   2.699  0.2533  0.7824 -1.1272
 5919TIP3   OH239171   3.108   0.631  15.616  0.1193  0.0886 -0.8130
 5919TIP3    H139172   3.122   0.557  15.556 -1.4028 -1.1714  0.3509
 5919TIP3    H239173   3.036   0.680  15.577  0.2201  0.1823 -0.8792
 5920TIP3   OH239174   0.103   3.875   4.250 -0.5789  0.0998 -0.1400
 5920TIP3    H139175   0.011   3.900   4.241 -0.3781  0.5916 -0.8914
 5920TIP3    H239176   0.111   3.794   4.200 -0.4919  0.3421 -0.5234
 5921TIP3   OH239177   5.346   2.003  15.942 -0.1973  0.2727 -0.1463
 5921TIP3    H139178   5.424   1.950  15.923 -0.7507 -0.0591 -1.5934
 5921TIP3    H239179   5.376   2.093  15.934 -0.2929  0.1516 -2.2935
 5922TIP3   OH239180   2.613   0.871  15.088 -0.3265  0.5358  0.3591
 5922TIP3    H139181   2.626   0.867  14.993 -1.8646 -1.3322  0.2018
 5922TIP3    H239182   2.671   0.942  15.117  0.3432  0.9691 -1.9324
 5923TIP3   OH239183   4.907   1.175   4.337  0.6755  0.1483  0.4995
 5923TIP3    H139184   4.928   1.195   4.428  0.3174  0.4739  0.5117
 5923TIP3    H239185   4.983   1.204   4.287  0.2590  1.3326  0.5419
 5924TIP3   OH239186   5.214   4.785  11.187  0.1135  0.1967 -0.2303
 5924TIP3    H139187   5.118   4.779  11.189  0.2184 -2.6501 -1.9154
 5924TIP3    H239188   5.233   4.850  11.119 -0.5828 -0.7165 -1.3027
 5925TIP3   OH239189   4.941   5.401  13.565  0.1944  0.3853 -0.7357
 5925TIP3    H139190   4.983   5.315  13.566  0.5502  0.5592 -0.2515
 5925TIP3    H239191   4.848   5.382  13.562  0.2386 -0.0343  0.3103
 5926TIP3   OH239192   2.330   0.620  11.861  0.0917 -0.3713  0.2854
 5926TIP3    H139193   2.304   0.589  11.948 -1.3616 -1.7802 -0.6252
 5926TIP3    H239194   2.356   0.541  11.814 -0.8853  0.1233 -1.1358
 5927TIP3   OH239195   1.867   5.246   4.939  0.2203 -0.2505  0.3974
 5927TIP3    H139196   1.959   5.224   4.950  0.1034 -0.4976  0.9241
 5927TIP3    H239197   1.831   5.244   5.028 -0.6340 -1.7003  0.0349
 5928TIP3   OH239198   1.874   0.068  16.501 -0.1666  0.1737  1.0074
 5928TIP3    H139199   1.933   0.114  16.441 -1.2077  1.2794  0.8018
 5928TIP3    H239200   1.919  -0.014  16.521  0.7166  0.2926 -0.3891
 5929TIP3   OH239201   0.252   2.611  13.102  0.0409 -0.8097 -0.3043
 5929TIP3    H139202   0.214   2.572  13.181  0.4224 -1.8605 -0.6390
 5929TIP3    H239203   0.198   2.576  13.030 -0.4486  0.3188 -0.4971
 5930TIP3   OH239204   2.598   5.970   0.539  0.2683  0.2723  0.4436
 5930TIP3    H139205   2.638   5.927   0.615 -0.7026 -0.7227  0.3894
 5930TIP3    H239206   2.541   6.037   0.577  0.0906  0.0439  0.5778
 5931TIP3   OH239207   4.484   3.173  14.063  0.1824  0.7996 -0.3246
 5931TIP3    H139208   4.565   3.126  14.044  1.0605  1.8525  0.8025
 5931TIP3    H239209   4.504   3.265  14.048 -1.4126  0.9089 -2.0785
 5932TIP3   OH239210   0.287   1.343  14.498 -0.2071 -0.3122 -0.6180
 5932TIP3    H139211   0.279   1.345  14.403  0.3616 -0.8970 -0.6808
 5932TIP3    H239212   0.277   1.434  14.525  2.8251  0.3058 -1.4891
 5933TIP3   OH239213   4.950   0.285   1.053 -0.2297  0.7656 -0.2454
 5933TIP3    H139214   5.016   0.218   1.038  0.6117  1.2363  1.2176
 5933TIP3    H239215   4.898   0.252   1.127 -0.8667  0.9652 -0.5947
 5934TIP3   OH239216   6.172   6.263  14.752 -0.1524  0.0105  0.2850
 5934TIP3    H139217   6.239   6.331  14.751 -0.8669  0.7403 -2.1228
 5934TIP3    H239218   6.124   6.277  14.834  1.0041  1.1002  0.7931
 5935TIP3   OH239219   3.351   3.967  15.101  0.3519 -0.5277 -0.3865
 5935TIP3    H139220   3.408   3.891  15.085  0.6872 -0.1081 -1.1741
 5935TIP3    H239221   3.298   3.974  15.022 -2.8212 -2.6488  1.4476
 5936TIP3   OH239222   5.759   4.656  13.681  0.5533  0.3171 -0.6130
 5936TIP3    H139223   5.840   4.637  13.729  0.4578 -1.5267 -1.1735
 5936TIP3    H239224   5.786   4.722  13.616  1.7875 -0.8401 -1.2973
 5937TIP3   OH239225   0.567   0.736  17.238 -1.0135  0.2508  0.8452
 5937TIP3    H139226   0.516   0.693  17.170 -0.2459 -0.7098  0.8612
 5937TIP3    H239227   0.514   0.811  17.265 -0.1826  2.1712 -2.6369
 5938TIP3   OH239228   5.019   0.088  12.415  0.0185  0.7925  0.3281
 5938TIP3    H139229   5.045   0.172  12.377 -1.8872  0.6716 -1.3487
 5938TIP3    H239230   5.045   0.024  12.350  0.0291  0.2396  0.8790
 5939TIP3   OH239231   1.656   2.103   2.051  0.6146  0.3855  0.3060
 5939TIP3    H139232   1.667   2.041   1.979  0.2523  0.4168  0.2235
 5939TIP3    H239233   1.725   2.168   2.037  0.8325  0.1428  0.2475
 5940TIP3   OH239234   1.088   0.752  13.609 -0.5590 -0.4949  0.2048
 5940TIP3    H139235   1.071   0.709  13.693  0.0174 -0.0947  0.5276
 5940TIP3    H239236   1.180   0.733  13.590 -1.0956 -1.8767 -1.0858
 5941TIP3   OH239237   6.161   1.283   4.665 -0.1307 -0.1296 -0.0749
 5941TIP3    H139238   6.198   1.350   4.608 -0.2038 -1.5686 -1.8637
 5941TIP3    H239239   6.225   1.271   4.735  0.7239  0.4928 -0.7591
 5942TIP3   OH239240   1.871   5.209   3.284  0.5318  0.1871  0.0095
 5942TIP3    H139241   1.783   5.240   3.303  0.7923  0.2768  1.1275
 5942TIP3    H239242   1.903   5.176   3.368  1.2371 -0.6504 -0.5810
 5943TIP3   OH239243   1.737   6.453  13.869  0.1288 -0.0092  0.6321
 5943TIP3    H139244   1.733   6.401  13.788  1.3583  0.2931  0.3721
 5943TIP3    H239245   1.687   6.532  13.849  1.3069  0.5369 -0.1909
 5944TIP3   OH239246   4.035   1.391   4.270 -0.8040  0.4866  0.3019
 5944TIP3    H139247   4.071   1.422   4.354 -2.1280  1.9793  0.3526
 5944TIP3    H239248   4.094   1.428   4.204 -0.2582  0.0371  0.5346
 5945TIP3   OH239249   1.636   5.589   0.678  0.0670  0.3589  0.2868
 5945TIP3    H139250   1.609   5.636   0.599  0.9454 -1.4411 -1.1272
 5945TIP3    H239251   1.584   5.628   0.748 -0.2046  2.4923 -1.0475
 5946TIP3   OH239252   6.566   5.677  15.519  0.3380 -0.2784  0.3068
 5946TIP3    H139253   6.639   5.724  15.479  1.8155 -2.1650  0.7273
 5946TIP3    H239254   6.501   5.671  15.449  0.6996  1.1032 -0.1793
 5947TIP3   OH239255   3.432   5.847  15.868 -0.1842  0.2737  1.1913
 5947TIP3    H139256   3.437   5.942  15.875 -0.5245  0.3466  0.4455
 5947TIP3    H239257   3.375   5.821  15.941 -1.2857  0.7721  0.5195
 5948TIP3   OH239258   6.672   5.406  14.209 -0.4744 -0.6930 -0.2988
 5948TIP3    H139259   6.698   5.313  14.213 -1.3916 -1.0007 -1.3351
 5948TIP3    H239260   6.671   5.434  14.300 -0.9165 -1.9157  0.0884
 5949TIP3   OH239261   5.022   1.581  10.830 -0.4936 -0.2917 -0.0823
 5949TIP3    H139262   5.015   1.594  10.735 -0.4019 -1.0765 -0.2014
 5949TIP3    H239263   4.934   1.596  10.863 -0.6464 -0.5689 -0.3643
 5950TIP3   OH239264   3.899   1.776  12.313  1.0224  0.3834  0.0947
 5950TIP3    H139265   3.930   1.742  12.396  1.2889 -0.1170 -0.2097
 5950TIP3    H239266   3.965   1.750  12.249 -0.1227 -0.9133 -0.5979
 5951TIP3   OH239267   1.830   3.691   0.575  0.0755  0.6211  0.3436
 5951TIP3    H139268   1.808   3.652   0.491 -1.6238  1.1291  0.5303
 5951TIP3    H239269   1.886   3.765   0.553 -0.2011  0.6334 -0.3285
 5952TIP3   OH239270   2.881   5.360  12.354 -0.2262  0.6627 -0.2749
 5952TIP3    H139271   2.952   5.366  12.290  0.2483  0.4945  0.2293
 5952TIP3    H239272   2.861   5.267  12.359 -0.2223  0.6674 -0.1445
 5953TIP3   OH239273   5.111   4.785   4.944  0.1317 -0.2621 -0.4875
 5953TIP3    H139274   5.114   4.750   5.033 -2.2798  0.8726  0.1030
 5953TIP3    H239275   5.076   4.713   4.891 -0.4540 -0.2589 -0.1147
 5954TIP3   OH239276   0.548   0.631  16.389  0.1433  0.3835  0.5834
 5954TIP3    H139277   0.477   0.625  16.453  0.2674 -0.4836  0.6490
 5954TIP3    H239278   0.528   0.564  16.324  0.4464  0.7199  0.1380
 5955TIP3   OH239279   1.987   0.015   1.012  0.1588  0.0767 -0.6117
 5955TIP3    H139280   2.077   0.002   0.982  0.9903  3.5406  0.1431
 5955TIP3    H239281   1.977  -0.045   1.086  1.2684 -1.5119 -1.7053
 5956TIP3   OH239282   1.355   2.550  14.690  0.6323  0.7838 -0.0137
 5956TIP3    H139283   1.274   2.579  14.650  1.1174  0.1865 -1.4560
 5956TIP3    H239284   1.414   2.624  14.683  1.1244  0.2642 -1.5894
 5957TIP3   OH239285   4.789   3.253   0.848 -0.0026 -0.2043  0.3878
 5957TIP3    H139286   4.734   3.274   0.924 -0.4984 -1.9634  0.5325
 5957TIP3    H239287   4.859   3.199   0.884  0.9429  0.6869 -0.0796
 5958TIP3   OH239288   5.110   4.279  14.934 -0.2308  0.0490  0.2265
 5958TIP3    H139289   5.120   4.285  14.839  0.1451 -1.5217  0.1521
 5958TIP3    H239290   5.199   4.278  14.968 -0.3340 -0.6594  0.4939
 5959TIP3   OH239291   2.600   4.507   4.456  0.9793 -0.5651 -0.7089
 5959TIP3    H139292   2.593   4.412   4.448 -2.4120 -0.2573 -2.3986
 5959TIP3    H239293   2.680   4.529   4.409  2.4637 -2.6600  0.7357
 5960TIP3   OH239294   5.341   2.899  17.190  0.0428 -0.2745 -0.2769
 5960TIP3    H139295   5.313   2.913  17.099 -1.9030  2.8520  0.7019
 5960TIP3    H239296   5.260   2.880  17.237  0.7769  0.0141  1.1156
 5961TIP3   OH239297   2.341   1.165  13.797  0.3153 -0.1496 -0.3448
 5961TIP3    H139298   2.390   1.157  13.879  1.8906  0.1207 -1.2257
 5961TIP3    H239299   2.272   1.100  13.804  0.3409 -0.0295  1.2628
 5962TIP3   OH239300   6.068   4.486   0.959 -0.4307 -0.2645 -0.3824
 5962TIP3    H139301   6.148   4.538   0.955 -0.2292 -0.6139 -0.8521
 5962TIP3    H239302   6.051   4.460   0.869 -0.9775 -0.3411 -0.2601
 5963TIP3   OH239303   4.633   5.617  12.119 -0.0262  0.7165 -0.5251
 5963TIP3    H139304   4.685   5.674  12.176 -1.8997  0.7381  1.2238
 5963TIP3    H239305   4.576   5.676  12.071 -1.3240  0.4203  0.6132
 5964TIP3   OH239306   3.662   5.110  16.433  0.4548 -0.8331  0.2424
 5964TIP3    H139307   3.726   5.178  16.454  0.2005 -0.1413 -1.1857
 5964TIP3    H239308   3.700   5.063  16.359 -0.3357 -0.9115 -0.1139
 5965TIP3   OH239309   4.155   4.986  11.807 -0.1151 -0.2767  0.1773
 5965TIP3    H139310   4.107   5.066  11.829  0.8758 -0.1840  2.1248
 5965TIP3    H239311   4.239   4.995  11.853 -0.7030 -3.2372  1.9659
 5966TIP3   OH239312   2.644   4.415   0.403  0.1066  0.2224  0.2128
 5966TIP3    H139313   2.660   4.374   0.488  1.1078 -0.8089 -0.4511
 5966TIP3    H239314   2.728   4.453   0.378  0.6302 -2.0457 -1.6426
 5967TIP3   OH239315   1.252   5.987   2.901  0.2277 -0.4202  0.3251
 5967TIP3    H139316   1.276   5.941   2.981 -0.7665 -0.6850  0.4821
 5967TIP3    H239317   1.333   5.992   2.850  0.5058 -1.6815  0.6332
 5968TIP3   OH239318   5.202   2.040  13.499 -0.2202  0.2008 -0.2623
 5968TIP3    H139319   5.135   2.106  13.514 -1.2464 -0.7279 -0.6396
 5968TIP3    H239320   5.272   2.061  13.561 -1.7841 -0.0586  1.6469
 5969TIP3   OH239321   6.771   1.356  14.939  0.0825 -0.1868 -0.9540
 5969TIP3    H139322   6.681   1.387  14.948  0.2676 -0.6860  3.6317
 5969TIP3    H239323   6.821   1.433  14.910 -1.0675  1.3593  1.0316
 5970TIP3   OH239324   2.865   0.210   4.828  0.0928  0.2039  0.2263
 5970TIP3    H139325   2.838   0.277   4.765 -0.9047  0.6871  1.1553
 5970TIP3    H239326   2.956   0.232   4.849  0.7220 -0.4797 -1.6910
 5971TIP3   OH239327   6.353   1.369  17.214  0.2398 -0.7486 -0.1806
 5971TIP3    H139328   6.372   1.419  17.135 -1.2552  1.1722  0.6309
 5971TIP3    H239329   6.272   1.322  17.193  1.0260 -1.9781 -0.5368
 5972TIP3   OH239330   4.113   1.311   0.787 -0.0701 -0.7770  0.1360
 5972TIP3    H139331   4.200   1.296   0.824 -0.1819  0.0833  0.7558
 5972TIP3    H239332   4.119   1.397   0.746 -0.2872 -1.2279 -0.8535
 5973TIP3   OH239333   5.803   4.631  12.941  0.0049  0.0362 -0.4758
 5973TIP3    H139334   5.833   4.655  12.853  1.9993  0.1333  0.2171
 5973TIP3    H239335   5.821   4.537  12.947  0.7625  0.2231  0.1760
 5974TIP3   OH239336   2.353   3.228  11.688 -0.0957  0.0635 -0.5830
 5974TIP3    H139337   2.289   3.168  11.725 -1.5268 -0.0622 -3.1138
 5974TIP3    H239338   2.316   3.254  11.603  0.7549  4.0240  0.1374
 5975TIP3   OH239339   0.239   6.003  15.291 -0.1546 -0.0673  0.1451
 5975TIP3    H139340   0.192   6.053  15.358 -0.9664  0.5732 -0.8838
 5975TIP3    H239341   0.324   6.047  15.283 -0.6753  0.8471 -0.4006
 5976TIP3   OH239342   4.218   0.802  11.752 -0.3167  0.0722 -0.3814
 5976TIP3    H139343   4.201   0.784  11.659  1.6848 -0.9488 -0.5832
 5976TIP3    H239344   4.151   0.752  11.799  0.5160 -1.8503 -1.1928
 5977TIP3   OH239345   2.701   0.254   4.386 -0.3132  0.5775  0.3663
 5977TIP3    H139346   2.788   0.292   4.381  0.9036 -2.0570  0.4440
 5977TIP3    H239347   2.689   0.232   4.479 -0.5143 -0.2596  0.1488
 5978TIP3   OH239348   0.992   0.309  16.998 -0.5455  0.3598 -0.0365
 5978TIP3    H139349   0.993   0.384  16.938  0.6083  2.4135  2.4766
 5978TIP3    H239350   1.078   0.268  16.986 -1.1058 -0.4917 -1.2737
 5979TIP3   OH239351   1.027   6.641  16.282 -0.2026  0.3022 -0.2170
 5979TIP3    H139352   1.001   6.684  16.200 -1.9667 -0.3575 -0.0300
 5979TIP3    H239353   0.985   6.694  16.350  0.2740  0.1542  0.1921
 5980TIP3   OH239354   0.520   0.552   3.226  0.5967  0.1809  0.1913
 5980TIP3    H139355   0.443   0.553   3.282  1.1362 -1.5227  1.0193
 5980TIP3    H239356   0.573   0.626   3.256  0.1554  0.2110  0.9036
 5981TIP3   OH239357   4.285   2.951   0.168  0.0336 -0.4873  0.0114
 5981TIP3    H139358   4.352   2.885   0.188 -0.8793 -1.0995  1.1250
 5981TIP3    H239359   4.224   2.905   0.111 -0.1134 -0.3218  0.0373
 5982TIP3   OH239360   1.713   0.468  15.568  0.0354 -0.6039 -0.0655
 5982TIP3    H139361   1.745   0.423  15.490 -0.8442 -1.8101  0.2481
 5982TIP3    H239362   1.663   0.401  15.615  0.3500  0.1714  1.4072
 5983TIP3   OH239363   1.202   1.823   4.488  1.1652 -0.3547  0.2661
 5983TIP3    H139364   1.253   1.904   4.496  0.0956  0.1285  2.6550
 5983TIP3    H239365   1.132   1.833   4.552 -0.3099 -2.2118 -1.0207
 5984TIP3   OH239366   4.813   5.856  15.900 -0.4522 -0.0895  0.0066
 5984TIP3    H139367   4.764   5.815  15.971 -0.2441  2.4288  1.6665
 5984TIP3    H239368   4.905   5.846  15.926 -0.1911 -1.9045 -1.4842
 5985TIP3   OH239369   6.165   1.202   5.044 -0.0046  0.4127  0.2036
 5985TIP3    H139370   6.076   1.234   5.031 -1.1857 -3.1464 -1.2609
 5985TIP3    H239371   6.156   1.131   5.108  1.9367  0.6937  0.8240
 5986TIP3   OH239372   1.593   1.262  12.317  0.0060  0.4544  0.3112
 5986TIP3    H139373   1.676   1.216  12.331  0.0367  0.0700 -1.1134
 5986TIP3    H239374   1.595   1.334  12.381 -0.5666 -2.1727  3.4144
 5987TIP3   OH239375   3.498   5.378   3.619  0.2244  0.4581  0.1088
 5987TIP3    H139376   3.588   5.372   3.651  0.3457  0.7886 -0.1647
 5987TIP3    H239377   3.450   5.417   3.692  0.0735 -0.7849  0.6796
 5988TIP3   OH239378   4.623   6.153  14.444 -0.2160 -0.4489  0.5012
 5988TIP3    H139379   4.530   6.130  14.444 -0.6536  1.1884 -2.2025
 5988TIP3    H239380   4.631   6.220  14.512 -1.1030 -0.2380  0.4015
 5989TIP3   OH239381   3.548   0.270   1.896  0.1079  0.6224  0.0545
 5989TIP3    H139382   3.577   0.353   1.858 -0.1766  1.5148  1.7359
 5989TIP3    H239383   3.628   0.218   1.903  0.0978  0.2620 -2.1435
 5990TIP3   OH239384   4.592   4.142  12.913  0.0344  0.6871 -0.2191
 5990TIP3    H139385   4.541   4.067  12.943  3.3094 -1.8478 -0.8419
 5990TIP3    H239386   4.623   4.183  12.994 -0.3154  0.3531  0.0891
 5991TIP3   OH239387   3.150   6.143  16.852  0.3033  0.0995 -0.4867
 5991TIP3    H139388   3.078   6.091  16.818  0.4851 -0.5945  0.1762
 5991TIP3    H239389   3.131   6.153  16.945  0.8795  0.2052 -0.3759
 5992TIP3   OH239390   1.711   4.220  12.724 -0.0503 -0.3756 -0.2804
 5992TIP3    H139391   1.693   4.297  12.777 -0.0485 -0.4781 -0.1314
 5992TIP3    H239392   1.807   4.215  12.720 -0.0424  0.6949 -1.8303
 5993TIP3   OH239393   2.733   2.872  15.617 -0.4247  0.1195  0.9393
 5993TIP3    H139394   2.666   2.839  15.558  0.7976  0.7782 -0.8805
 5993TIP3    H239395   2.764   2.794  15.664 -1.8288 -0.3139  1.1617
 5994TIP3   OH239396   0.334   2.603  14.200  0.1298  0.6227  0.1323
 5994TIP3    H139397   0.405   2.552  14.160 -0.6041 -0.1105 -0.2689
 5994TIP3    H239398   0.255   2.572  14.155 -0.2441  2.7977 -0.7835
 5995TIP3   OH239399   2.539   6.494   2.085 -0.1173  0.1637 -0.1285
 5995TIP3    H139400   2.618   6.549   2.083 -0.2795  0.4103  0.2479
 5995TIP3    H239401   2.469   6.554   2.109 -0.6418  0.2082 -1.7164
 5996TIP3   OH239402   5.283   2.400  16.648  0.3456 -0.2660 -0.0108
 5996TIP3    H139403   5.296   2.323  16.592  0.4042 -0.5971  0.4558
 5996TIP3    H239404   5.268   2.363  16.735 -3.7403  0.0603 -0.4620
 5997TIP3   OH239405   4.198   1.432  16.466  0.1192 -0.2440 -0.5530
 5997TIP3    H139406   4.176   1.505  16.408  2.2168  0.0079 -1.0880
 5997TIP3    H239407   4.202   1.471  16.554 -0.3660 -0.0499 -0.6215
 5998TIP3   OH239408   5.258   4.360   2.911 -0.4582  0.3106 -0.9044
 5998TIP3    H139409   5.191   4.358   2.978 -0.1877 -0.1011 -0.6426
 5998TIP3    H239410   5.275   4.267   2.892  2.5614  0.3005  1.5587
 5999TIP3   OH239411   5.929   4.906   5.655  0.2750 -0.6547 -0.5592
 5999TIP3    H139412   5.873   4.842   5.612 -0.1277 -0.7453  0.0976
 5999TIP3    H239413   5.886   4.990   5.640  0.7523 -0.5379 -1.3367
 6000TIP3   OH239414   2.772   5.117  15.498  0.5324 -0.4081  0.5284
 6000TIP3    H139415   2.680   5.094  15.484  0.0005  1.9385 -0.0718
 6000TIP3    H239416   2.820   5.065  15.433 -0.4148 -1.3132  0.5430
 6001TIP3   OH239417   4.050   2.206  13.905  0.1006 -0.3363 -0.6556
 6001TIP3    H139418   4.101   2.213  13.824  0.1754 -0.4689 -0.6201
 6001TIP3    H239419   3.981   2.272  13.896  0.3373 -0.0885 -0.6614
 6002TIP3   OH239420   6.514   4.024  12.777  0.6916  0.1704 -0.0332
 6002TIP3    H139421   6.574   4.049  12.847 -0.7989  1.0243  0.9784
 6002TIP3    H239422   6.468   4.105  12.755 -0.3162 -0.5319 -0.5490
 6003TIP3   OH239423   0.459   1.442  13.094  0.2588 -0.5110  0.0049
 6003TIP3    H139424   0.506   1.380  13.151  1.1872 -2.8211 -3.1537
 6003TIP3    H239425   0.477   1.411  13.005 -0.8493  3.2193 -1.5968
 6004TIP3   OH239426   1.469   4.673  12.610  0.5267  0.0864  0.1762
 6004TIP3    H139427   1.374   4.670  12.618  0.3399  1.9812 -1.0398
 6004TIP3    H239428   1.491   4.604  12.548 -0.1766  0.4811 -0.5117
 6005TIP3   OH239429   0.654   2.474   3.338 -0.2586 -0.2481 -0.1437
 6005TIP3    H139430   0.678   2.565   3.355 -0.1635 -0.3423  0.2299
 6005TIP3    H239431   0.571   2.462   3.384 -0.8129 -0.0512 -1.0650
 6006TIP3   OH239432   4.214   6.678   0.980 -0.3420  0.1732 -0.2710
 6006TIP3    H139433   4.220   6.632   1.064  2.5146 -2.0998 -1.6249
 6006TIP3    H239434   4.136   6.641   0.938  0.7391 -1.9361 -0.4580
 6007TIP3   OH239435   4.633   5.293   4.731  0.0310 -0.4118  0.2466
 6007TIP3    H139436   4.682   5.375   4.718  0.0760  0.2933  4.3833
 6007TIP3    H239437   4.613   5.263   4.642  0.6549  3.6955 -1.3808
 6008TIP3   OH239438   2.296   4.169   0.317  0.2238 -0.3704  0.1772
 6008TIP3    H139439   2.370   4.209   0.270 -0.9120  0.5933 -0.8519
 6008TIP3    H239440   2.272   4.235   0.382 -0.5470 -0.1007 -0.3674
 6009TIP3   OH239441   5.356   6.727   3.368  0.6710 -0.1204 -0.1726
 6009TIP3    H139442   5.388   6.815   3.390  0.7196 -0.0176 -0.6431
 6009TIP3    H239443   5.418   6.668   3.411  0.9947  0.0771 -0.3654
 6010TIP3   OH239444   2.826   5.767  15.348  0.3234  0.0583  0.4590
 6010TIP3    H139445   2.839   5.677  15.377 -0.5133 -0.4681 -0.7616
 6010TIP3    H239446   2.732   5.773  15.331  0.3129  1.2836  0.9477
 6011TIP3   OH239447   0.366   1.448   5.127  0.3429 -0.0364 -0.2505
 6011TIP3    H139448   0.335   1.523   5.179  1.2453  0.5136 -0.4951
 6011TIP3    H239449   0.288   1.396   5.112 -0.1670  0.4807  0.5530
 6012TIP3   OH239450   4.439   4.630   0.135  0.0336 -0.2753  0.3108
 6012TIP3    H139451   4.496   4.687   0.083 -0.1372 -0.2318  0.1728
 6012TIP3    H239452   4.499   4.584   0.194 -0.0378  1.5239  1.8347
 6013TIP3   OH239453   2.547   4.796   0.887  0.0560 -0.1035  0.0354
 6013TIP3    H139454   2.616   4.742   0.849  1.8143  1.3953  1.0022
 6013TIP3    H239455   2.575   4.886   0.871 -1.5085  0.5292  0.7456
 6014TIP3   OH239456   3.433   0.140  15.156  0.2299  0.5856  0.1000
 6014TIP3    H139457   3.377   0.106  15.226 -0.1481  0.5504 -0.2154
 6014TIP3    H239458   3.514   0.165  15.200  0.7142 -1.1990  0.2644
 6015TIP3   OH239459   5.417   0.770   4.366  0.1742 -0.0841 -0.3582
 6015TIP3    H139460   5.440   0.697   4.309 -0.0951 -1.2764  1.0378
 6015TIP3    H239461   5.397   0.730   4.450 -1.8840  1.4036 -0.0797
 6016TIP3   OH239462   5.707   2.862  13.989 -0.1492  0.0913  0.0104
 6016TIP3    H139463   5.681   2.779  14.029 -0.0599 -0.5122 -1.1380
 6016TIP3    H239464   5.668   2.929  14.045  0.4511 -0.7013  1.4042
 6017TIP3   OH239465   0.995   3.230   4.017 -0.0585  0.7803  0.4334
 6017TIP3    H139466   0.978   3.279   4.098  0.1065  1.9231 -0.2034
 6017TIP3    H239467   1.059   3.284   3.970  0.6484 -0.4020  0.0156
 6018TIP3   OH239468   2.637   3.178  15.162  0.1401  0.6141  0.2573
 6018TIP3    H139469   2.717   3.131  15.189 -1.0146 -1.1524  0.6893
 6018TIP3    H239470   2.630   3.161  15.068 -0.2351 -0.0203  0.3998
 6019TIP3   OH239471   6.354   1.065   3.713 -0.5448  0.4154 -0.2012
 6019TIP3    H139472   6.293   1.080   3.785 -0.4252 -1.2335  0.2791
 6019TIP3    H239473   6.371   1.151   3.676  0.4267  1.4452  2.5976
 6020TIP3   OH239474   4.357   1.187  13.083  0.2316  0.4272  0.1711
 6020TIP3    H139475   4.435   1.235  13.056  1.1579 -0.5895  0.9693
 6020TIP3    H239476   4.391   1.102  13.113 -1.1046  0.2451  1.2077
 6021TIP3   OH239477   0.866   3.513   5.409 -0.2229 -0.2161 -0.0025
 6021TIP3    H139478   0.771   3.506   5.421 -0.3941  1.1352 -0.4526
 6021TIP3    H239479   0.901   3.526   5.497 -0.3966 -1.2694  0.2258
 6022TIP3   OH239480   5.593   5.425   3.416  0.9957  0.0757  0.3947
 6022TIP3    H139481   5.627   5.477   3.344  1.4375  0.5237  0.9198
 6022TIP3    H239482   5.497   5.429   3.406  1.0598 -0.2009 -0.3878
 6023TIP3   OH239483   0.786   0.196  16.849  0.1079  0.3680  0.3407
 6023TIP3    H139484   0.719   0.138  16.885  0.9768 -1.1998 -0.5031
 6023TIP3    H239485   0.845   0.212  16.923  0.6745 -1.0491  0.2200
 6024TIP3   OH239486   1.950   0.325  15.142 -0.1286  0.2164 -0.3187
 6024TIP3    H139487   1.879   0.324  15.077 -0.6791 -0.5613  0.2899
 6024TIP3    H239488   2.025   0.286  15.097 -0.3111  0.3088 -0.7033
 6025TIP3   OH239489   1.789   1.491   6.408  0.8592 -0.0029  0.1925
 6025TIP3    H139490   1.853   1.531   6.468  2.3962  0.6190 -1.7900
 6025TIP3    H239491   1.838   1.422   6.364  0.3702  0.9249 -1.8570
 6026TIP3   OH239492   2.582   1.860   2.701 -0.0591 -0.1738  0.4029
 6026TIP3    H139493   2.618   1.771   2.698 -0.9239 -0.5082 -0.2272
 6026TIP3    H239494   2.594   1.893   2.612 -2.3050 -0.7021 -0.1286
 6027TIP3   OH239495   5.162   1.137  12.634  0.2290  0.7602  0.0788
 6027TIP3    H139496   5.204   1.186  12.705  1.8935 -1.3188  0.5765
 6027TIP3    H239497   5.079   1.106  12.672  0.5094  0.7466  0.6893
 6028TIP3   OH239498   5.147   2.808  14.130 -0.0326  0.5343 -0.1315
 6028TIP3    H139499   5.174   2.724  14.092  1.6200  0.3625  1.3647
 6028TIP3    H239500   5.230   2.852  14.153 -0.8773 -0.5726  5.8571
 6029TIP3   OH239501   4.768   6.434   5.525 -0.2788 -0.2824 -0.2625
 6029TIP3    H139502   4.837   6.440   5.458 -0.2232 -1.0780 -0.2816
 6029TIP3    H239503   4.781   6.512   5.579  1.6994 -1.2626  0.7253
 6030TIP3   OH239504   4.044   0.927   4.839 -0.6849  0.1532  0.1084
 6030TIP3    H139505   4.035   0.836   4.809 -0.8107  0.0131  0.5581
 6030TIP3    H239506   4.038   0.921   4.935  5.6972 -0.2237  0.7383
 6031TIP3   OH239507   2.368   0.408   1.251  0.0236  0.2826 -0.6598
 6031TIP3    H139508   2.452   0.425   1.294 -0.7896  1.0234  0.6890
 6031TIP3    H239509   2.378   0.322   1.210  0.7562 -0.5813  1.2619
 6032TIP3   OH239510   6.720   1.945  12.828 -0.7214  0.0715 -0.3484
 6032TIP3    H139511   6.777   2.022  12.820 -1.0973  0.3162 -0.6525
 6032TIP3    H239512   6.748   1.905  12.911 -0.2116  0.2750 -0.4147
 6033TIP3   OH239513   0.656   2.790   3.844 -0.0008  0.2521  0.4219
 6033TIP3    H139514   0.709   2.838   3.781  0.8121 -0.0326  0.8742
 6033TIP3    H239515   0.705   2.798   3.926 -2.0497  2.3670  1.5084
 6034TIP3   OH239516   4.633   4.832  16.890  0.2626  0.0669  0.2893
 6034TIP3    H139517   4.653   4.828  16.983  1.2451  1.1685  0.1356
 6034TIP3    H239518   4.701   4.779  16.848  0.2912  0.2313  0.1269
 6035TIP3   OH239519   3.503   1.988  11.482  0.2792 -0.8193  0.5368
 6035TIP3    H139520   3.590   2.029  11.481  1.2454 -2.8112  0.4353
 6035TIP3    H239521   3.477   1.985  11.390  0.2513 -0.5418  0.5348
 6036TIP3   OH239522   4.069   3.584   3.479 -0.1225  0.2618  0.5150
 6036TIP3    H139523   4.022   3.511   3.438 -0.6403  0.5152  0.6560
 6036TIP3    H239524   4.049   3.575   3.572  0.5112  0.0809  0.6342
 6037TIP3   OH239525   2.072   3.507   4.561 -0.3759  0.4469  0.0607
 6037TIP3    H139526   2.119   3.580   4.521  1.7627 -0.7965  0.2795
 6037TIP3    H239527   1.990   3.502   4.512 -0.4138  2.7668 -0.1897
 6038TIP3   OH239528   6.230   0.233  16.939 -0.0622  0.5524 -0.2612
 6038TIP3    H139529   6.211   0.164  17.003  1.2886  0.5160  0.1092
 6038TIP3    H239530   6.148   0.281  16.932 -0.8687 -0.7893 -0.1526
 6039TIP3   OH239531   5.452   2.397   5.382 -0.6231  0.3148 -0.0350
 6039TIP3    H139532   5.513   2.424   5.451  1.2773  0.5167 -1.7355
 6039TIP3    H239533   5.446   2.302   5.391  2.2668 -0.0774 -1.6387
 6040TIP3   OH239534   5.512   0.749  14.628 -0.0449 -0.0386  0.1801
 6040TIP3    H139535   5.522   0.703  14.544 -0.5161  3.4376 -1.8497
 6040TIP3    H239536   5.426   0.790  14.624 -0.0669  0.2223  2.3781
 6041TIP3   OH239537   4.891   1.261   4.613  0.0080 -0.2509 -0.3511
 6041TIP3    H139538   4.902   1.294   4.703 -2.0763  2.0412 -0.8756
 6041TIP3    H239539   4.809   1.212   4.615  0.0759 -0.3894 -0.9406
 6042TIP3   OH239540   2.275   2.555   0.374  0.4369 -0.0728  0.0539
 6042TIP3    H139541   2.247   2.533   0.463 -1.4346  0.4932 -0.3623
 6042TIP3    H239542   2.265   2.650   0.368  1.4882  0.0058 -0.4442
 6043TIP3   OH239543   4.273   0.111   1.169  0.0154 -0.1648  0.2910
 6043TIP3    H139544   4.349   0.066   1.207  1.3761  0.4518 -1.6161
 6043TIP3    H239545   4.246   0.053   1.098 -0.3458  0.3803 -0.0090
 6044TIP3   OH239546   3.006   1.552  11.297  1.1547 -0.2899  0.3009
 6044TIP3    H139547   3.061   1.593  11.229  2.4095 -0.0757  1.4274
 6044TIP3    H239548   2.972   1.473  11.254  1.0024  0.4338 -0.9559
 6045TIP3   OH239549   6.623   3.520   3.926  0.3940 -0.1819  0.1904
 6045TIP3    H139550   6.718   3.512   3.931  0.4561 -0.7086 -1.6429
 6045TIP3    H239551   6.596   3.453   3.864 -1.4869 -1.8738  2.7177
 6046TIP3   OH239552   4.047   5.166  11.057  0.0404 -0.0991  0.4581
 6046TIP3    H139553   4.125   5.162  11.112  0.6837 -0.2358 -0.4531
 6046TIP3    H239554   4.060   5.097  10.992  0.6482  1.8997 -1.6169
 6047TIP3   OH239555   6.570   1.527   3.579  0.5626 -0.2747 -0.2643
 6047TIP3    H139556   6.666   1.533   3.572  0.5198 -0.3746 -1.0135
 6047TIP3    H239557   6.538   1.583   3.508  0.0559  0.7374  0.7487
 6048TIP3   OH239558   3.389   0.122  10.745  0.2837 -0.0669 -0.1587
 6048TIP3    H139559   3.344   0.200  10.779  0.0532 -0.3545  0.2005
 6048TIP3    H239560   3.457   0.104  10.809 -0.9217 -1.3205  0.7874
 6049TIP3   OH239561   3.545   3.431  11.047 -0.6066  0.1828 -0.2294
 6049TIP3    H139562   3.541   3.490  10.972  0.8964  0.0599 -0.4007
 6049TIP3    H239563   3.517   3.346  11.013  0.8748 -0.0622 -0.8375
 6050TIP3   OH239564   6.266   0.390   1.308  0.6813 -0.3511 -0.6394
 6050TIP3    H139565   6.210   0.425   1.239 -1.5528 -0.3013  1.1437
 6050TIP3    H239566   6.281   0.464   1.367 -0.9375 -1.3791  1.1273
 6051TIP3   OH239567   1.920   1.607  13.756 -0.1435 -0.3166  0.6687
 6051TIP3    H139568   1.902   1.528  13.807 -1.4320 -0.2890  0.2593
 6051TIP3    H239569   1.947   1.672  13.821  0.7492 -1.0370  1.0250
 6052TIP3   OH239570   4.311   5.849   1.874 -0.0543  0.0560  0.7405
 6052TIP3    H139571   4.274   5.810   1.953 -0.3551 -2.0455 -0.4157
 6052TIP3    H239572   4.390   5.894   1.905 -0.5741 -0.0839  2.3484
 6053TIP3   OH239573   2.570   2.890   5.421  0.0378  0.6053  0.7153
 6053TIP3    H139574   2.591   2.809   5.466 -1.1819  0.7735  1.6328
 6053TIP3    H239575   2.534   2.863   5.337  1.1506  0.2463  0.3559
 6054TIP3   OH239576   3.174   3.521  16.751 -0.0561 -1.0297  0.0020
 6054TIP3    H139577   3.177   3.477  16.835  2.6541  0.1371  0.5874
 6054TIP3    H239578   3.238   3.475  16.697  0.6720  0.3106 -0.3080
 6055TIP3   OH239579   6.659   6.725  12.425  0.1244 -0.3026 -0.3205
 6055TIP3    H139580   6.670   6.727  12.330 -0.1349 -2.5361 -0.4266
 6055TIP3    H239581   6.575   6.682  12.439  1.7555 -3.2125  0.9674
 6056TIP3   OH239582   1.654   6.328  14.310  0.0519 -0.0925  0.2553
 6056TIP3    H139583   1.587   6.301  14.373 -0.6150  1.5876  0.3211
 6056TIP3    H239584   1.618   6.408  14.271  1.1999 -0.1974 -1.0636
 6057TIP3   OH239585   0.606   5.142  14.147 -0.1482  0.1179  0.2755
 6057TIP3    H139586   0.632   5.229  14.175  0.2623  1.2984 -3.5528
 6057TIP3    H239587   0.686   5.102  14.113 -1.0168 -0.4718 -1.1210
 6058TIP3   OH239588   3.535   0.769   0.514  0.0952 -0.2862 -0.3671
 6058TIP3    H139589   3.498   0.714   0.444 -0.5812  0.5172 -0.6577
 6058TIP3    H239590   3.468   0.835   0.530  1.4815  1.3177 -1.0268
 6059TIP3   OH239591   2.074   5.025  15.499  0.4486  0.2700  0.2713
 6059TIP3    H139592   2.135   5.074  15.555  2.3337 -1.9135  0.2094
 6059TIP3    H239593   2.094   5.053  15.410  1.8464 -0.9256  0.1982
 6060TIP3   OH239594   5.202   1.704  13.566  0.3722 -0.4085  0.3011
 6060TIP3    H139595   5.289   1.716  13.604  0.6990  0.5068 -0.7377
 6060TIP3    H239596   5.158   1.645  13.627  1.2297  0.2574  1.5873
 6061TIP3   OH239597   3.218   0.414   5.803 -0.0828 -0.0888  0.7193
 6061TIP3    H139598   3.222   0.472   5.880  1.6718  2.2103 -1.0319
 6061TIP3    H239599   3.308   0.411   5.771 -0.2546 -3.4258  0.4418
 6062TIP3   OH239600   5.237   6.595  15.067 -0.1313 -0.1812 -0.2211
 6062TIP3    H139601   5.281   6.546  15.136 -0.6883 -1.0822 -0.4939
 6062TIP3    H239602   5.234   6.535  14.992  0.8698  0.9391 -1.1992
 6063TIP3   OH239603   0.638   5.272  16.579  0.4086  0.2906 -0.6431
 6063TIP3    H139604   0.688   5.280  16.497  0.7463 -0.0634 -0.4728
 6063TIP3    H239605   0.660   5.351  16.628  2.1074 -0.6494  0.1512
 6064TIP3   OH239606   4.181   6.602   0.344  0.3255  0.0095 -0.1619
 6064TIP3    H139607   4.108   6.562   0.296  2.0804 -3.0822 -0.4186
 6064TIP3    H239608   4.140   6.648   0.417 -1.9549 -0.6837 -0.9650
 6065TIP3   OH239609   0.095   0.144   0.034 -0.2320 -0.2111 -0.3690
 6065TIP3    H139610   0.068   0.061   0.072  0.5752 -0.2150  0.1848
 6065TIP3    H239611   0.048   0.210   0.085 -0.2264 -0.2783 -0.2775
 6066TIP3   OH239612   0.144   0.540  10.305  0.3571 -0.3509  0.8527
 6066TIP3    H139613   0.211   0.604  10.327 -1.0869  1.8258 -0.8941
 6066TIP3    H239614   0.101   0.521  10.389  1.4905  0.1584  1.5551
 6067TIP3   OH239615   5.969   1.170  13.560  0.0181 -0.0553 -0.0741
 6067TIP3    H139616   5.891   1.197  13.510  0.2255  3.6449  1.4698
 6067TIP3    H239617   6.017   1.113  13.500 -2.4646 -0.1405 -2.0766
 6068TIP3   OH239618   2.073   6.544   1.421  0.0161 -0.4330  0.5714
 6068TIP3    H139619   2.034   6.621   1.463  1.6325  0.1548  1.0193
 6068TIP3    H239620   2.167   6.558   1.426  0.2971 -1.5200 -1.1114
 6069TIP3   OH239621   3.939   5.572  12.318  0.2912 -0.0381  0.2663
 6069TIP3    H139622   3.850   5.603  12.334  1.4487  3.2866  0.7355
 6069TIP3    H239623   3.933   5.521  12.237 -2.2115 -0.8293  0.9137
 6070TIP3   OH239624   2.408   1.256  13.404 -0.0352  0.4796 -0.2701
 6070TIP3    H139625   2.408   1.311  13.326 -2.0265 -0.5310 -1.0186
 6070TIP3    H239626   2.500   1.239  13.422  0.4049 -0.9322 -3.5960
 6071TIP3   OH239627   5.324   4.367  13.428 -0.7110  1.0422  0.1796
 6071TIP3    H139628   5.250   4.310  13.448 -0.6109  0.9118  0.1768
 6071TIP3    H239629   5.351   4.403  13.512  1.4706 -1.6613  0.7039
 6072TIP3   OH239630   3.488   6.206   4.197 -0.4773  0.2034  0.5116
 6072TIP3    H139631   3.471   6.292   4.158  0.1506  0.3030  0.4614
 6072TIP3    H239632   3.431   6.146   4.149 -0.0125  0.3872 -0.2785
 6073TIP3   OH239633   1.970   3.074   4.443  0.1273  0.0397  0.0448
 6073TIP3    H139634   2.037   3.142   4.453  0.7162 -0.4775 -0.3331
 6073TIP3    H239635   1.991   3.033   4.359 -1.1037  0.3559 -0.4315
 6074TIP3   OH239636   4.538   3.851  14.773  0.3742 -0.4590  0.0520
 6074TIP3    H139637   4.558   3.879  14.683  4.1836  0.2747  1.0416
 6074TIP3    H239638   4.535   3.932  14.823  0.2558 -1.0260  0.9685
 6075TIP3   OH239639   4.449   0.608   4.423  0.4026 -0.7771  0.6391
 6075TIP3    H139640   4.420   0.623   4.333  0.8140 -1.4311  0.3961
 6075TIP3    H239641   4.413   0.682   4.472  0.7603 -0.0535 -0.1836
 6076TIP3   OH239642   0.719   4.270   5.958 -0.1864 -0.1187  0.7461
 6076TIP3    H139643   0.683   4.317   5.882  0.2310  0.0488  0.6480
 6076TIP3    H239644   0.723   4.179   5.930  0.0827 -0.0391  0.5215
 6077TIP3   OH239645   3.651   3.407   0.116  0.5109 -0.0385  0.0137
 6077TIP3    H139646   3.564   3.440   0.095  1.3672  1.8277 -0.6880
 6077TIP3    H239647   3.678   3.357   0.039 -0.4679 -1.7975  0.7727
 6078TIP3   OH239648   5.474   6.085  14.743  0.0603 -0.0162 -0.3389
 6078TIP3    H139649   5.379   6.074  14.747  0.1693 -0.9828 -0.3308
 6078TIP3    H239650   5.486   6.166  14.693 -0.7801  0.6546  0.5213
 6079TIP3   OH239651   0.473   0.799   3.844  0.2424  0.3046  0.0164
 6079TIP3    H139652   0.545   0.736   3.844  0.9657  1.0963 -2.7137
 6079TIP3    H239653   0.417   0.770   3.916  2.2027 -1.5481  0.8584
 6080TIP3   OH239654   0.611   2.964  11.461  0.1875  0.0163  0.1476
 6080TIP3    H139655   0.528   2.997  11.494  0.4908 -0.1249  1.0614
 6080TIP3    H239656   0.589   2.884  11.414 -0.0933 -0.4794  1.1127
 6081TIP3   OH239657   0.481   5.881  15.030  0.5797  0.4936  0.3633
 6081TIP3    H139658   0.576   5.888  15.040  0.2769 -0.1109  4.5766
 6081TIP3    H239659   0.451   5.971  15.018  1.6837  0.6597 -1.2152
 6082TIP3   OH239660   6.522   2.975  14.553 -0.1824 -0.2596  0.4107
 6082TIP3    H139661   6.520   3.068  14.576 -0.2136 -0.1294 -0.1051
 6082TIP3    H239662   6.433   2.957  14.522 -0.0556 -0.3500  0.0929
 6083TIP3   OH239663   0.118   1.870   4.564  0.1135  0.2825  0.2360
 6083TIP3    H139664   0.079   1.929   4.499 -1.1817 -2.0828 -1.1910
 6083TIP3    H239665   0.212   1.880   4.551 -0.1209  0.1708 -1.7282
 6084TIP3   OH239666   6.592   3.661   3.610 -0.0473 -0.2107 -0.2495
 6084TIP3    H139667   6.518   3.661   3.670  1.1004 -2.1690  1.2393
 6084TIP3    H239668   6.645   3.736   3.637 -0.7666  0.3503 -0.3925
 6085TIP3   OH239669   3.426   0.236   2.392  0.1367 -0.0151  0.0027
 6085TIP3    H139670   3.478   0.185   2.454 -0.8014  1.7453  2.3054
 6085TIP3    H239671   3.336   0.222   2.420 -0.3338  0.4163 -1.2906
 6086TIP3   OH239672   0.779   5.212   4.798 -0.2302  0.2661  0.3161
 6086TIP3    H139673   0.739   5.245   4.718  0.3205 -2.0917 -0.9730
 6086TIP3    H239674   0.738   5.126   4.813  1.4623 -0.4411  1.1480
 6087TIP3   OH239675   3.855   3.730  13.058  0.1345  0.3390 -0.0792
 6087TIP3    H139676   3.890   3.645  13.086 -2.3044 -0.9746 -0.8600
 6087TIP3    H239677   3.835   3.718  12.965 -0.6175  1.6573 -0.0935
 6088TIP3   OH239678   5.626   5.426  11.937  0.7948 -0.1843 -0.2922
 6088TIP3    H139679   5.589   5.338  11.938 -0.9094  0.5121  0.9150
 6088TIP3    H239680   5.659   5.439  12.026 -2.0789  1.6301  0.5796
 6089TIP3   OH239681   3.351   4.629   1.393  0.1207 -0.2114  0.5859
 6089TIP3    H139682   3.381   4.609   1.304 -1.5683  1.5832 -0.4558
 6089TIP3    H239683   3.318   4.546   1.426  0.4328 -0.8292 -0.6189
 6090TIP3   OH239684   1.497   0.025   1.507  0.5315 -0.8357 -0.4035
 6090TIP3    H139685   1.534  -0.002   1.422  2.3288 -0.3138  0.1849
 6090TIP3    H239686   1.562   0.085   1.543 -0.6355 -0.3704  0.9665
 6091TIP3   OH239687   2.259   1.988  14.292  0.1780  0.1450  0.1336
 6091TIP3    H139688   2.242   2.071  14.337  1.7668  0.1004  0.8656
 6091TIP3    H239689   2.202   1.989  14.216 -2.1524  0.4961  1.8414
 6092TIP3   OH239690   2.912   5.673   4.177  0.2341 -0.7470  0.2512
 6092TIP3    H139691   2.823   5.645   4.156 -0.1796  0.4986  0.3117
 6092TIP3    H239692   2.962   5.592   4.184 -1.2164 -1.5195  1.6605
 6093TIP3   OH239693   0.046   5.712   0.655 -0.4162  0.2194  0.3575
 6093TIP3    H139694  -0.031   5.763   0.629 -0.2045 -0.0962 -0.9547
 6093TIP3    H239695   0.016   5.622   0.656 -0.6420  0.2985  2.1111
 6094TIP3   OH239696   4.223   2.182   5.334 -0.2053  0.9374  0.1296
 6094TIP3    H139697   4.218   2.194   5.429 -0.2157 -1.2559  0.4237
 6094TIP3    H239698   4.306   2.223   5.309  0.5356  0.1860  1.3120
 6095TIP3   OH239699   4.121   5.036   4.649 -0.1902  0.0960  0.2345
 6095TIP3    H139700   4.148   5.045   4.557  0.7612  3.1226  0.7535
 6095TIP3    H239701   4.203   5.037   4.698 -0.7648 -0.3792  1.2072
 6096TIP3   OH239702   6.106   2.333   1.162 -0.4914 -0.3701  0.9491
 6096TIP3    H139703   6.106   2.423   1.194  0.1008  0.4109 -1.1121
 6096TIP3    H239704   6.193   2.323   1.122 -2.1510 -0.2590 -2.9650
 6097TIP3   OH239705   6.543   1.065  16.545  0.5000  0.6029  0.3189
 6097TIP3    H139706   6.589   1.101  16.621  0.4179  2.2691 -0.4025
 6097TIP3    H239707   6.612   1.021  16.495  0.8603  0.9361  0.5154
 6098TIP3   OH239708   5.060   2.191   5.492  0.1858  0.2859 -0.0651
 6098TIP3    H139709   5.099   2.162   5.575  1.4124 -0.6502 -0.9440
 6098TIP3    H239710   4.984   2.134   5.480  0.5806 -0.2451 -0.0675
 6099TIP3   OH239711   0.859   4.913   4.888 -0.0692 -0.4128 -0.0329
 6099TIP3    H139712   0.868   4.921   4.794  0.9943  1.8965  0.2223
 6099TIP3    H239713   0.769   4.881   4.901 -1.0269  1.4365 -1.7664
 6100TIP3   OH239714   2.344   5.261   1.755 -0.1174  0.1295 -0.4873
 6100TIP3    H139715   2.432   5.294   1.740 -0.5662  0.6697 -2.0171
 6100TIP3    H239716   2.311   5.239   1.667 -2.3208  2.0592 -0.1794
 6101TIP3   OH239717   6.305   4.123  13.581 -0.1098 -0.3257 -0.1020
 6101TIP3    H139718   6.220   4.163  13.599  0.3031  0.8749 -0.7870
 6101TIP3    H239719   6.298   4.035  13.619 -1.6132 -0.2021 -0.0411
 6102TIP3   OH239720   0.982   6.003  11.892  0.1355 -0.1344 -0.4499
 6102TIP3    H139721   1.053   6.054  11.929  1.2030 -0.9377 -1.3377
 6102TIP3    H239722   0.938   5.964  11.968  1.0152 -0.1255  0.0683
 6103TIP3   OH239723   0.189   0.539  10.884 -0.1827  0.1059 -0.0971
 6103TIP3    H139724   0.180   0.445  10.870 -0.1852  0.0099  0.5463
 6103TIP3    H239725   0.117   0.578  10.834  0.9848 -0.0951 -1.9994
 6104TIP3   OH239726   2.371   5.233   0.175 -0.0167 -0.5481  0.8411
 6104TIP3    H139727   2.406   5.259   0.261  0.5879 -1.7907  0.9856
 6104TIP3    H239728   2.395   5.141   0.167 -1.1520 -0.7656 -0.1379
 6105TIP3   OH239729   3.495   2.609  12.359  0.0467 -0.1207 -0.6727
 6105TIP3    H139730   3.587   2.584  12.348  0.5217  0.7077  1.0458
 6105TIP3    H239731   3.493   2.702  12.336  0.0327  0.3197  1.0234
 6106TIP3   OH239732   0.095   0.628   5.066 -0.5602 -0.5004  0.1592
 6106TIP3    H139733   0.055   0.687   5.130 -1.8958 -0.0836 -1.0329
 6106TIP3    H239734   0.175   0.598   5.108 -1.2079  0.0820  1.8706
 6107TIP3   OH239735   1.100   4.205  14.186 -0.3051  0.3903  0.3003
 6107TIP3    H139736   1.135   4.161  14.108  1.3581 -0.1844  1.3549
 6107TIP3    H239737   1.005   4.207  14.171 -0.0385  0.0865 -1.6349
 6108TIP3   OH239738   6.051   0.722   0.686 -0.3905 -0.2113 -0.0428
 6108TIP3    H139739   5.971   0.669   0.688 -0.8896  0.4903 -0.9546
 6108TIP3    H239740   6.029   0.797   0.630  0.9283 -0.0450 -0.3583
 6109TIP3   OH239741   2.767   3.663  12.378 -0.3570  1.0221  0.0436
 6109TIP3    H139742   2.854   3.641  12.344  0.6824  2.2513  1.8431
 6109TIP3    H239743   2.774   3.754  12.406 -1.9875  0.8885  0.9825
 6110TIP3   OH239744   2.913   1.572   1.605 -0.3142 -0.3371  0.1779
 6110TIP3    H139745   2.854   1.507   1.641 -0.6472  0.1198  0.4734
 6110TIP3    H239746   2.985   1.522   1.566  0.7972 -0.8320  2.7427
 6111TIP3   OH239747   5.152   1.753   2.285  0.4760  0.8342 -0.7136
 6111TIP3    H139748   5.234   1.708   2.267  0.1141  0.7903 -2.3024
 6111TIP3    H239749   5.155   1.772   2.379  0.5290 -2.6883  0.0508
 6112TIP3   OH239750   3.195   1.701   0.369 -0.5274 -0.2798  0.5594
 6112TIP3    H139751   3.235   1.617   0.392 -0.5801  0.0035  1.7013
 6112TIP3    H239752   3.246   1.767   0.416  1.4142  0.6441 -2.6815
 6113TIP3   OH239753   0.871   0.379  13.322  0.7312  0.2703 -0.4121
 6113TIP3    H139754   0.797   0.428  13.357 -0.4883 -0.1277 -2.3728
 6113TIP3    H239755   0.867   0.393  13.228  2.8968 -0.1279 -0.5942
 6114TIP3   OH239756   0.359   4.332   5.326 -0.8559  0.6369 -0.0948
 6114TIP3    H139757   0.427   4.300   5.266  0.5213  1.0203  1.2447
 6114TIP3    H239758   0.323   4.252   5.365 -3.2662  0.2081 -2.9480
 6115TIP3   OH239759   5.915   2.684  15.372  0.5190  0.2846  0.3351
 6115TIP3    H139760   5.922   2.646  15.460 -1.2625  1.6820  1.1171
 6115TIP3    H239761   5.834   2.650  15.337  1.4872 -0.6701 -0.9947
 6116TIP3   OH239762   1.819   3.531  11.105  0.2305 -0.4916 -0.3321
 6116TIP3    H139763   1.825   3.626  11.095  0.9577 -0.3371  1.3165
 6116TIP3    H239764   1.827   3.496  11.017  0.0249  0.9772 -0.9428
 6117TIP3   OH239765   2.998   5.143   0.293  0.0387  0.4315 -0.1756
 6117TIP3    H139766   3.036   5.144   0.381 -1.9838 -0.3068  0.7429
 6117TIP3    H239767   2.966   5.232   0.280 -1.8212 -0.0710  0.8363
 6118TIP3   OH239768   3.853   2.361  14.617  0.3412 -0.4324  0.5451
 6118TIP3    H139769   3.816   2.377  14.704 -1.7809 -0.7348 -0.2531
 6118TIP3    H239770   3.801   2.416  14.558  1.9248 -0.0307 -0.5124
 6119TIP3   OH239771   2.156   6.245  14.836  0.3319 -0.3225  0.2307
 6119TIP3    H139772   2.110   6.226  14.754  0.3830  1.1922 -0.1617
 6119TIP3    H239773   2.180   6.337  14.829  0.3983 -0.2054  1.9365
 6120TIP3   OH239774   1.187   5.362  17.043  0.1615 -0.7010  0.6158
 6120TIP3    H139775   1.194   5.455  17.024 -1.1640 -0.8849 -0.9533
 6120TIP3    H239776   1.207   5.354  17.136 -0.4971  1.2464  0.9408
 6121TIP3   OH239777   3.164   3.411   0.723 -1.0830  0.2596 -0.6446
 6121TIP3    H139778   3.196   3.493   0.762 -0.7032 -1.0989  2.0039
 6121TIP3    H239779   3.069   3.415   0.735 -0.9972 -0.0068  0.1512
 6122TIP3   OH239780   0.828   6.714   6.189 -0.2972 -0.0663  0.3875
 6122TIP3    H139781   0.868   6.690   6.105 -2.1086 -1.1004 -0.1993
 6122TIP3    H239782   0.811   6.630   6.232  3.5042  0.4777  3.2205
 6123TIP3   OH239783   0.619   4.405  16.624 -0.2793  0.2963  0.2082
 6123TIP3    H139784   0.562   4.436  16.554  1.1789 -0.7111 -1.4744
 6123TIP3    H239785   0.704   4.394  16.582  0.4493 -1.0285  1.9739
 6124TIP3   OH239786   2.989   2.928   0.451  0.5774  0.3415 -0.7194
 6124TIP3    H139787   3.001   2.872   0.528  2.2959 -0.5070 -1.5902
 6124TIP3    H239788   2.947   3.007   0.486  1.5523  0.0830  1.1410
 6125TIP3   OH239789   1.610   0.239   4.747  0.6076  0.2442  0.2106
 6125TIP3    H139790   1.600   0.258   4.654 -1.7668  1.3087  0.6299
 6125TIP3    H239791   1.554   0.163   4.762  0.6915  0.3001  0.8192
 6126TIP3   OH239792   1.889   4.604   3.463  0.3248  0.2210  1.0962
 6126TIP3    H139793   1.901   4.697   3.482 -2.6698  0.8334  0.2235
 6126TIP3    H239794   1.847   4.568   3.541 -1.1599  0.2401  0.3241
 6127TIP3   OH239795   0.696   1.110   0.344 -0.1156  0.0922  0.3517
 6127TIP3    H139796   0.680   1.017   0.364  1.1208  0.0280  1.1351
 6127TIP3    H239797   0.791   1.118   0.345 -0.2245  1.5530  1.1471
 6128TIP3   OH239798   4.178   6.444  17.221  0.8246 -0.0454  0.0255
 6128TIP3    H139799   4.251   6.416  17.277 -0.6186 -3.0716  0.4863
 6128TIP3    H239800   4.120   6.492  17.280  1.6930  1.0918 -0.0181
 6129TIP3   OH239801   5.168   5.331   3.816  0.7263  0.3235 -0.3614
 6129TIP3    H139802   5.127   5.417   3.830  0.6006  0.1439  0.3666
 6129TIP3    H239803   5.225   5.319   3.891  1.8493  0.4008 -1.1906
 6130TIP3   OH239804   1.229   4.031   2.020  0.8288  0.3191  0.4068
 6130TIP3    H139805   1.291   3.965   1.988  0.2041 -0.2125  0.2726
 6130TIP3    H239806   1.183   3.987   2.092 -0.1685  0.3148 -0.2200
 6131TIP3   OH239807   4.658   4.363  11.072  0.1624  0.1257 -0.0690
 6131TIP3    H139808   4.575   4.356  11.119 -0.4251  3.5215 -0.4355
 6131TIP3    H239809   4.725   4.360  11.140 -0.3563 -0.7130  0.4110
 6132TIP3   OH239810   5.728   3.629  16.856  0.3233 -0.1292 -0.1465
 6132TIP3    H139811   5.804   3.614  16.799  1.1501 -1.1514  1.2157
 6132TIP3    H239812   5.717   3.548  16.905 -1.7923 -0.0722 -0.4619
 6133TIP3   OH239813   3.608   0.319   3.346  0.0047 -0.2569 -0.5474
 6133TIP3    H139814   3.693   0.361   3.360  0.1206 -0.7472  0.2923
 6133TIP3    H239815   3.557   0.383   3.297  0.1277  0.9161  0.8151
 6134TIP3   OH239816   1.424   4.673  14.357  0.2585 -0.3348  0.0650
 6134TIP3    H139817   1.337   4.697  14.390 -0.6740 -1.6976 -1.3504
 6134TIP3    H239818   1.470   4.757  14.348 -1.2818  0.4948 -0.1762
 6135TIP3   OH239819   3.979   1.477  11.886 -0.5055 -0.4402  0.5035
 6135TIP3    H139820   4.073   1.477  11.905 -0.7277 -2.8364  1.8229
 6135TIP3    H239821   3.963   1.559  11.840  2.1433  0.2266  0.7338
 6136TIP3   OH239822   3.969   3.032  13.741  0.6479 -0.3309 -0.3105
 6136TIP3    H139823   4.063   3.039  13.761  0.3712 -1.5974  1.5234
 6136TIP3    H239824   3.964   2.969  13.669  1.2724  0.6375 -1.2297
 6137TIP3   OH239825   1.760   2.527   4.979  0.7482 -0.3776  0.4060
 6137TIP3    H139826   1.678   2.516   5.027  0.9054 -3.5261  0.0888
 6137TIP3    H239827   1.827   2.536   5.047  0.4985 -0.8859  0.7243
 6138TIP3   OH239828   4.662   3.293  11.462  0.6072  0.0131 -0.1670
 6138TIP3    H139829   4.746   3.259  11.432  0.8264  1.7811 -1.5513
 6138TIP3    H239830   4.682   3.337  11.545  1.6611  3.3739 -2.1629
 6139TIP3   OH239831   1.113   6.650   5.295 -0.3439 -0.1907  0.1329
 6139TIP3    H139832   1.066   6.567   5.302  1.6971 -1.2232  2.0367
 6139TIP3    H239833   1.065   6.709   5.354 -2.5668  0.4096 -2.1912
 6140TIP3   OH239834   1.994   5.961   4.623  0.0297 -0.5446  0.1369
 6140TIP3    H139835   2.017   6.030   4.562 -0.4454 -1.2955 -0.9066
 6140TIP3    H239836   1.985   6.005   4.707 -0.6212  0.7147 -0.5810
 6141TIP3   OH239837   6.515   0.551   4.077  0.1440 -0.0091 -0.3922
 6141TIP3    H139838   6.472   0.495   4.141  0.4791 -0.3373 -0.4530
 6141TIP3    H239839   6.458   0.549   4.000  1.7248 -2.8247 -1.5676
 6142TIP3   OH239840   5.997   6.675   1.279  0.0632 -0.0063  0.0457
 6142TIP3    H139841   6.078   6.623   1.276 -0.1435 -0.2541 -2.1265
 6142TIP3    H239842   5.931   6.613   1.311  0.5477 -0.0451  0.9935
 6143TIP3   OH239843   5.613   6.260   1.397 -0.2644 -0.2380  0.5022
 6143TIP3    H139844   5.617   6.294   1.487 -1.2510  1.9159 -0.2425
 6143TIP3    H239845   5.521   6.237   1.385 -0.7553  2.3777 -0.9734
 6144TIP3   OH239846   6.466   5.751  13.847  0.2529  0.1479 -0.3088
 6144TIP3    H139847   6.455   5.658  13.867  0.6795 -0.0473 -0.9659
 6144TIP3    H239848   6.380   5.779  13.815  0.3390 -0.2089 -0.8555
 6145TIP3   OH239849   2.347   0.920  12.929 -0.2332 -0.2239  0.4189
 6145TIP3    H139850   2.438   0.944  12.911 -0.6403  0.9051 -0.1435
 6145TIP3    H239851   2.295   0.976  12.872 -1.3401 -0.0483  1.5787
 6146TIP3   OH239852   2.633   4.706   5.253  0.2556  0.0647 -0.1647
 6146TIP3    H139853   2.702   4.768   5.228  0.3429  1.1694  2.5431
 6146TIP3    H239854   2.680   4.640   5.305 -0.0279 -1.6556 -2.0730
 6147TIP3   OH239855   6.088   4.001  16.993 -0.4374  0.8401 -0.5242
 6147TIP3    H139856   6.071   3.924  16.940  1.4834  1.0508 -1.5204
 6147TIP3    H239857   6.035   4.070  16.953 -1.1569  0.3453 -0.4306
 6148TIP3   OH239858   3.513   1.756  15.891 -0.3518  0.1799 -1.2529
 6148TIP3    H139859   3.543   1.674  15.931 -0.5546  0.6578 -0.1229
 6148TIP3    H239860   3.581   1.777  15.827  0.2562 -0.2934 -0.7657
 6149TIP3   OH239861   2.560   5.372   5.128 -0.5729 -0.5020  0.1654
 6149TIP3    H139862   2.565   5.372   5.032 -0.5069  1.1356  0.1509
 6149TIP3    H239863   2.574   5.464   5.152  0.2701 -1.0584  1.7973
 6150TIP3   OH239864   0.428   3.875  15.573 -0.7244 -0.0542  0.2504
 6150TIP3    H139865   0.424   3.970  15.566  0.3144 -0.0927 -1.2574
 6150TIP3    H239866   0.435   3.857  15.666  0.0533  1.4018  0.4800
 6151TIP3   OH239867   6.203   3.966  11.562  0.3968  0.1995 -0.2854
 6151TIP3    H139868   6.142   3.921  11.503 -1.3248  0.4990  1.2279
 6151TIP3    H239869   6.284   3.914  11.555  0.0630 -0.0979 -2.4520
 6152TIP3   OH239870   0.454   5.250   5.743  0.0070  0.2757 -0.2268
 6152TIP3    H139871   0.392   5.309   5.701 -0.8349 -0.5129 -0.1053
 6152TIP3    H239872   0.430   5.163   5.711  2.1753  0.1308 -1.5948
 6153TIP3   OH239873   1.431   2.141  15.610  0.4229 -0.5275  0.7700
 6153TIP3    H139874   1.352   2.095  15.636 -0.6620  0.7111 -0.2819
 6153TIP3    H239875   1.460   2.186  15.689 -0.5093 -0.1466  0.9002
 6154TIP3   OH239876   5.273   2.940  16.941 -0.1700 -0.0335  0.2638
 6154TIP3    H139877   5.331   2.907  16.873 -0.8675 -1.1161  0.1898
 6154TIP3    H239878   5.188   2.901  16.922  0.2413 -2.7745  3.4179
 6155TIP3   OH239879   6.184   6.663   0.118  0.4239  0.4795  0.6171
 6155TIP3    H139880   6.109   6.722   0.109 -0.8712 -1.0814  1.0526
 6155TIP3    H239881   6.254   6.706   0.069 -0.6758  2.0882  0.4333
 6156TIP3   OH239882   6.400   1.904   0.303  0.4541 -0.6621  0.1867
 6156TIP3    H139883   6.421   1.834   0.241  0.5695 -0.4129 -0.0604
 6156TIP3    H239884   6.307   1.892   0.322  0.0206  0.2394 -1.2982
 6157TIP3   OH239885   2.511   1.225  14.598  0.2841  0.1103  0.7282
 6157TIP3    H139886   2.433   1.280  14.605  0.6791  0.7688  0.1483
 6157TIP3    H239887   2.564   1.269  14.532 -0.6158 -2.4738 -1.8037
 6158TIP3   OH239888   5.424   4.219   0.166 -0.0505  0.4694 -0.3425
 6158TIP3    H139889   5.417   4.277   0.090  1.0272 -0.1451 -0.9194
 6158TIP3    H239890   5.518   4.214   0.183 -0.2324 -0.1281  0.4738
 6159TIP3   OH239891   6.668   4.668   1.263  0.0152  0.2209  0.0078
 6159TIP3    H139892   6.625   4.585   1.241 -1.5181  1.2787 -1.0498
 6159TIP3    H239893   6.668   4.670   1.358 -0.2763 -0.8196  0.0412
 6160TIP3   OH239894   0.244   0.465  14.227 -0.1912 -0.2581 -0.7427
 6160TIP3    H139895   0.179   0.413  14.180  0.8576 -3.2900  1.0292
 6160TIP3    H239896   0.327   0.443  14.185  0.3594 -0.5458  0.5045
 6161TIP3   OH239897   0.721   5.510  15.467  0.2782  0.0786  0.4265
 6161TIP3    H139898   0.800   5.510  15.412 -0.8013 -0.5749 -1.1840
 6161TIP3    H239899   0.709   5.418  15.492 -1.3390 -0.2649 -1.4376
 6162TIP3   OH239900   1.304   0.450  12.417  0.3853 -0.3710 -0.6026
 6162TIP3    H139901   1.282   0.365  12.454 -0.0678 -0.2817 -0.6704
 6162TIP3    H239902   1.220   0.494  12.403  0.6738  0.6592  0.7614
 6163TIP3   OH239903   5.050   0.634  14.142  0.4242  0.4444  0.4430
 6163TIP3    H139904   5.057   0.627  14.237  0.5533 -0.0543  0.3956
 6163TIP3    H239905   4.998   0.559  14.116 -0.4160  1.0931  0.2118
 6164TIP3   OH239906   2.093   1.827   2.273 -0.2446  0.4098 -0.0310
 6164TIP3    H139907   2.048   1.826   2.189 -2.1718  1.6526  0.9355
 6164TIP3    H239908   2.094   1.736   2.302 -1.0569  0.2086 -0.6412
 6165TIP3   OH239909   1.504   3.407   6.616 -0.5842  0.2348 -0.0927
 6165TIP3    H139910   1.539   3.374   6.533  0.5709  0.0078  0.4856
 6165TIP3    H239911   1.537   3.497   6.622 -0.9685  0.3746 -0.0490
 6166TIP3   OH239912   2.195   5.715  10.477  0.4989 -0.7385  0.3247
 6166TIP3    H139913   2.217   5.645  10.416  1.2857 -1.4037  1.3398
 6166TIP3    H239914   2.194   5.672  10.563  2.7538  0.8167  1.1765
 6167TIP3   OH239915   0.145   1.380  15.175 -0.2933  0.6714  0.1044
 6167TIP3    H139916   0.173   1.293  15.205 -1.6401  0.4754  0.8427
 6167TIP3    H239917   0.079   1.362  15.108  0.3762  1.1316 -0.6943
 6168TIP3   OH239918   2.555   6.230  15.257  0.0190 -0.6367  0.1916
 6168TIP3    H139919   2.561   6.307  15.313 -0.7494 -1.3379  1.2528
 6168TIP3    H239920   2.484   6.178  15.295 -1.1642 -0.6664 -1.9875
 6169TIP3   OH239921   1.435   1.728  14.387  0.8475 -0.2919 -0.4337
 6169TIP3    H139922   1.446   1.820  14.412 -2.0423  0.6734 -2.4043
 6169TIP3    H239923   1.520   1.703  14.351  1.9718  1.3036  1.0207
 6170TIP3   OH239924   0.269   4.381   2.423  0.2870 -0.3700  0.7275
 6170TIP3    H139925   0.351   4.364   2.469  0.6010  0.6477  0.5647
 6170TIP3    H239926   0.297   4.409   2.336 -0.3355 -4.8510 -1.0426
 6171TIP3   OH239927   2.235   0.760  12.222  0.0130 -0.1801  0.3635
 6171TIP3    H139928   2.267   0.812  12.149 -1.6170 -1.8456 -1.6034
 6171TIP3    H239929   2.140   0.762  12.213 -0.1245 -3.0655  0.4788
 6172TIP3   OH239930   6.619   1.358   4.346 -0.4564  0.3952 -0.3886
 6172TIP3    H139931   6.655   1.337   4.259 -0.3840 -2.4384  0.2709
 6172TIP3    H239932   6.563   1.434   4.331  1.2376  1.2840 -2.5189
 6173TIP3   OH239933   0.670   0.784   3.275  0.1757 -0.1847  0.2685
 6173TIP3    H139934   0.633   0.859   3.321  0.7395  0.2255  0.0606
 6173TIP3    H239935   0.733   0.746   3.336 -1.0531 -1.3003  0.8938
 6174TIP3   OH239936   6.405   0.076  13.688  0.1260 -0.0490 -0.0943
 6174TIP3    H139937   6.402   0.026  13.770 -2.5759 -0.6027 -0.4997
 6174TIP3    H239938   6.314   0.081  13.659  0.3824  4.4541 -0.5004
 6175TIP3   OH239939   3.516   0.860  11.225  0.4106  0.4615 -0.2390
 6175TIP3    H139940   3.545   0.823  11.142 -0.2792 -0.2671 -0.1602
 6175TIP3    H239941   3.475   0.786  11.271  0.9654  0.8063  0.8310
 6176TIP3   OH239942   3.381   0.567   2.902 -0.4779  0.1378  0.4655
 6176TIP3    H139943   3.324   0.567   2.979 -0.8793  2.5195  0.1925
 6176TIP3    H239944   3.325   0.534   2.831 -0.1194 -2.0232  1.1375
 6177TIP3   OH239945   5.976   5.154   3.543  0.4159  0.3552 -1.1047
 6177TIP3    H139946   5.927   5.103   3.607  3.2501  0.2953  1.1265
 6177TIP3    H239947   6.010   5.090   3.481  1.2185 -0.1137 -0.1933
 6178TIP3   OH239948   3.248   2.908   0.276 -0.1251  0.8631  0.2100
 6178TIP3    H139949   3.311   2.898   0.348  1.2792  0.1607 -1.0787
 6178TIP3    H239950   3.163   2.910   0.318  0.5956 -0.8025  1.7966
 6179TIP3   OH239951   1.871   3.115  12.311  0.1251  0.3417  0.0145
 6179TIP3    H139952   1.891   3.208  12.322  0.1018  0.1607  1.6459
 6179TIP3    H239953   1.894   3.097  12.220  1.8692  1.5156  0.1997
 6180TIP3   OH239954   0.979   4.425   0.826  0.0636 -0.1653  0.4816
 6180TIP3    H139955   0.911   4.403   0.889  0.0921 -1.4152  0.0833
 6180TIP3    H239956   1.012   4.341   0.795 -1.0248  0.3656 -2.3554
 6181TIP3   OH239957   2.164   4.051   4.104 -0.7565 -0.3965  0.4657
 6181TIP3    H139958   2.235   4.087   4.157 -0.1694 -1.9912  0.7987
 6181TIP3    H239959   2.137   4.123   4.047  1.7403 -0.0308 -0.2950
 6182TIP3   OH239960   6.177   4.219  12.029  0.3922  0.1756 -0.4819
 6182TIP3    H139961   6.127   4.212  11.948  0.5186 -1.8137 -0.4033
 6182TIP3    H239962   6.260   4.258  12.002 -0.5921  2.0610 -0.8550
 6183TIP3   OH239963   1.813   2.163   4.741 -0.2671 -0.0289 -0.0675
 6183TIP3    H139964   1.903   2.185   4.767 -0.2585 -0.9353  0.6484
 6183TIP3    H239965   1.822   2.085   4.686 -0.7057 -0.7206  0.8260
 6184TIP3   OH239966   0.949   5.870  12.872  0.0972  0.8155 -0.5978
 6184TIP3    H139967   0.895   5.912  12.938  1.5980 -0.6247  1.6371
 6184TIP3    H239968   0.893   5.802  12.835 -0.2969  0.6679  0.2506
 6185TIP3   OH239969   3.203   1.851  15.842  0.4869 -0.8979 -0.2158
 6185TIP3    H139970   3.109   1.834  15.848  0.1480  0.4404 -1.4494
 6185TIP3    H239971   3.217   1.927  15.899  0.7088 -0.7545 -0.4584
 6186TIP3   OH239972   5.021   1.383  14.743 -0.0578  0.5694 -0.1000
 6186TIP3    H139973   5.104   1.429  14.753  0.8034 -0.7811 -0.9249
 6186TIP3    H239974   4.995   1.400  14.652  0.3992 -0.7565 -0.4923
 6187TIP3   OH239975   3.420   6.600   2.149 -0.2258 -0.3475 -0.8519
 6187TIP3    H139976   3.399   6.517   2.107 -1.9343 -0.9984  1.1872
 6187TIP3    H239977   3.486   6.577   2.215 -2.1401 -0.5184  1.0864
 6188TIP3   OH239978   2.283   5.691   0.594  0.2932 -0.2954  0.0378
 6188TIP3    H139979   2.312   5.757   0.531 -4.6255 -0.3731 -2.5133
 6188TIP3    H239980   2.218   5.735   0.648 -0.0724 -1.9593  0.9962
 6189TIP3   OH239981   1.705   4.873  11.906  0.0293  0.4638 -0.8634
 6189TIP3    H139982   1.678   4.792  11.862  0.8071 -0.9753  1.2329
 6189TIP3    H239983   1.792   4.853  11.941  0.3697  2.3265 -0.5971
 6190TIP3   OH239984   1.176   3.055   4.475 -0.4062 -0.3019  0.5438
 6190TIP3    H139985   1.190   3.133   4.423  1.9428 -1.2067 -0.2208
 6190TIP3    H239986   1.125   2.997   4.418 -1.0080  0.1336  0.6313
 6191TIP3   OH239987   5.353   1.012  13.754 -0.1517  0.1389 -0.3151
 6191TIP3    H139988   5.425   1.042  13.699  0.8681 -1.6048  0.0160
 6191TIP3    H239989   5.346   0.918  13.736  1.3793 -0.8745  3.7625
 6192TIP3   OH239990   6.231   3.856   5.201  0.5271  0.4184 -0.1410
 6192TIP3    H139991   6.142   3.827   5.180  0.4325  0.5360  0.1006
 6192TIP3    H239992   6.273   3.870   5.116  0.2585  0.5332 -0.2541
 6193TIP3   OH239993   1.149   1.351   6.102 -0.1100 -0.5668 -0.0599
 6193TIP3    H139994   1.191   1.397   6.174  1.7317  0.6813 -1.8716
 6193TIP3    H239995   1.121   1.268   6.139 -0.0001  0.4260  2.3011
 6194TIP3   OH239996   5.256   4.825   3.408  0.1115 -0.2162  0.6188
 6194TIP3    H139997   5.193   4.761   3.441  0.1519  0.9321  3.0974
 6194TIP3    H239998   5.201   4.898   3.377  0.0910 -1.1124 -1.5023
 6195TIP3   OH239999   6.625   1.695   2.950  0.2868 -0.8771  0.3169
 6195TIP3    H140000   6.592   1.771   2.998  0.1506 -1.0275  0.4616
 6195TIP3    H240001   6.716   1.717   2.931 -0.1579 -0.0517 -0.9083
 6196TIP3   OH240002   0.131   2.039   3.229 -0.1534  0.0285 -0.3249
 6196TIP3    H140003   0.132   2.002   3.141 -0.9383 -0.8248  0.0155
 6196TIP3    H240004   0.207   2.097   3.232 -0.6025  0.7069 -1.8382
 6197TIP3   OH240005   0.285   1.543   2.746 -0.0780  0.3790 -0.6290
 6197TIP3    H140006   0.301   1.485   2.671 -1.5260 -0.0438 -0.6203
 6197TIP3    H240007   0.217   1.498   2.796  2.0932 -0.2500  1.9054
 6198TIP3   OH240008   4.225   4.706   0.916 -0.5364  0.2481 -0.2023
 6198TIP3    H140009   4.149   4.749   0.955  0.3697  1.1354  0.5925
 6198TIP3    H240010   4.232   4.622   0.962 -0.5807  0.4978  0.2614
 6199TIP3   OH240011   5.208   3.032   4.963 -0.3121  0.2283  0.2393
 6199TIP3    H140012   5.218   2.938   4.946 -0.5449  0.1867  0.3350
 6199TIP3    H240013   5.249   3.074   4.887 -0.7014  0.0453 -0.0746
 6200TIP3   OH240014   5.362   4.253   3.801 -0.0923 -0.0045  0.3939
 6200TIP3    H140015   5.269   4.235   3.793  0.1411 -0.3714 -1.6553
 6200TIP3    H240016   5.370   4.347   3.790 -0.2338  0.0664  0.8611
 6201TIP3   OH240017   2.928   1.575  14.709  0.0524 -0.0330 -0.5503
 6201TIP3    H140018   2.913   1.620  14.792 -0.7898 -0.2143 -0.6106
 6201TIP3    H240019   2.852   1.596  14.656 -0.6457 -2.0260 -0.3805
 6202TIP3   OH240020   2.198   1.295   2.712  0.5013  0.1245  0.8678
 6202TIP3    H140021   2.263   1.363   2.694 -1.3186  1.5919 -0.4555
 6202TIP3    H240022   2.210   1.274   2.804  0.6835  2.7847  1.5065
 6203TIP3   OH240023   0.189   1.175   2.060 -0.0695 -0.2562 -0.0202
 6203TIP3    H140024   0.174   1.185   1.966  1.6642 -0.3298 -0.3298
 6203TIP3    H240025   0.166   1.084   2.078 -0.5579 -0.1970 -0.3473
 6204TIP3   OH240026   0.083   0.261   4.093 -0.0353 -0.2023  0.6617
 6204TIP3    H140027   0.073   0.353   4.114  0.5006 -0.1150  0.5400
 6204TIP3    H240028   0.041   0.251   4.008  1.0492  0.1992  0.0690
 6205TIP3   OH240029   2.542   6.391  16.519 -0.1875  0.2680 -0.2037
 6205TIP3    H140030   2.591   6.339  16.583 -0.2379  2.1526  1.4084
 6205TIP3    H240031   2.463   6.340  16.503  0.1290 -0.5462  0.7408
 6206TIP3   OH240032   0.737   4.179  17.050  0.3320  0.3843 -0.4357
 6206TIP3    H140033   0.821   4.217  17.025 -0.0546  0.2969 -1.9292
 6206TIP3    H240034   0.682   4.254  17.075  0.9957  0.3990  1.0365
 6207TIP3   OH240035   2.276   1.624   4.970  0.7849 -0.3573 -0.4778
 6207TIP3    H140036   2.284   1.720   4.965  1.2920 -0.4093 -0.6606
 6207TIP3    H240037   2.223   1.601   4.894 -0.9319 -0.0393  0.5893
 6208TIP3   OH240038   6.429   4.689   2.561  0.0606 -0.1243 -0.0668
 6208TIP3    H140039   6.416   4.748   2.487  2.1791 -0.8133 -1.0192
 6208TIP3    H240040   6.457   4.746   2.633  3.1414  0.0006 -1.2664
 6209TIP3   OH240041   5.328   1.840   5.636 -0.1237 -0.1470  0.3058
 6209TIP3    H140042   5.356   1.863   5.724 -0.4892  0.1732  0.3428
 6209TIP3    H240043   5.370   1.756   5.618 -0.3258 -0.3836  0.9208
 6210TIP3   OH240044   0.685   3.718   5.543  0.4553 -0.1118  0.0643
 6210TIP3    H140045   0.765   3.718   5.596 -1.9612 -1.0761  3.8403
 6210TIP3    H240046   0.665   3.626   5.530  0.9138  0.1059 -2.5221
 6211TIP3   OH240047   3.151   4.789   6.210 -0.0130  0.5624  0.3132
 6211TIP3    H140048   3.177   4.846   6.282 -2.2672  0.6640  1.0560
 6211TIP3    H240049   3.180   4.701   6.237  0.5672  0.8473  0.6194
 6212TIP3   OH240050   4.630   2.618   4.826 -0.6118  0.1147  0.4420
 6212TIP3    H140051   4.695   2.549   4.809  0.8721  1.3376  0.9808
 6212TIP3    H240052   4.586   2.630   4.742 -0.1395 -0.7377  0.0549
 6213TIP3   OH240053   5.175   4.559   5.510 -0.5086 -0.1487  0.7013
 6213TIP3    H140054   5.261   4.596   5.531 -1.1907  1.7261  0.2127
 6213TIP3    H240055   5.120   4.583   5.584 -1.0325  0.0248  0.2511
 6214TIP3   OH240056   3.261   2.450   1.006 -0.5893  0.0820  0.5732
 6214TIP3    H140057   3.197   2.521   1.009  0.3746  1.0056 -0.3097
 6214TIP3    H240058   3.258   2.418   0.916  0.1237  0.0772  0.5473
 6215TIP3   OH240059   2.073   1.502  14.876  0.3956 -0.2877 -0.5258
 6215TIP3    H140060   2.008   1.568  14.899 -0.7209 -1.9700  1.2764
 6215TIP3    H240061   2.023   1.421  14.865  2.2130 -1.7103  1.2761
 6216TIP3   OH240062   3.843   6.023   3.338  0.5856 -0.7508  0.4347
 6216TIP3    H140063   3.879   6.044   3.424  0.4930 -1.0694  0.5502
 6216TIP3    H240064   3.800   5.939   3.350 -1.0943  0.0929  0.5534
 6217TIP3   OH240065   3.407   4.645  12.687  0.3343  0.0934  0.0817
 6217TIP3    H140066   3.500   4.630  12.673 -0.0967 -2.7312 -0.2361
 6217TIP3    H240067   3.373   4.670  12.601  0.8784  1.7755  0.3359
 6218TIP3   OH240068   4.774   3.688   4.777  0.0181 -0.2549  0.2303
 6218TIP3    H140069   4.804   3.756   4.716 -0.3421  0.3248  0.6861
 6218TIP3    H240070   4.844   3.680   4.841 -0.2210  0.1577  0.5463
 6219TIP3   OH240071   0.629   1.879  15.786  0.3269 -0.2003 -0.8562
 6219TIP3    H140072   0.617   1.850  15.696  2.1070 -2.9500 -0.2815
 6219TIP3    H240073   0.719   1.853  15.808  0.9273  3.0372  0.7896
 6220TIP3   OH240074   3.560   5.813  12.739  0.0133  0.1107 -0.1314
 6220TIP3    H140075   3.627   5.808  12.807 -0.7978  0.2939  0.6899
 6220TIP3    H240076   3.507   5.889  12.763 -1.9958 -1.4815  0.6330
 6221TIP3   OH240077   1.066   1.475  14.449 -0.1013 -0.5571 -0.0019
 6221TIP3    H140078   1.022   1.392  14.466 -1.7567  0.0051 -1.4312
 6221TIP3    H240079   0.996   1.540  14.447  1.0917  0.7656  0.3354
 6222TIP3   OH240080   4.721   3.884  15.491 -0.0837 -0.1196  0.5927
 6222TIP3    H140081   4.647   3.825  15.502  0.7285 -1.4594 -0.8215
 6222TIP3    H240082   4.785   3.833  15.441  1.3897  1.3400  0.9354
 6223TIP3   OH240083   6.400   2.051  17.162  0.3234  0.0850 -0.8042
 6223TIP3    H140084   6.480   2.000  17.156  1.8436  2.0972  1.3045
 6223TIP3    H240085   6.364   2.030  17.249 -1.8271 -1.3061 -1.9899
 6224TIP3   OH240086   1.111   2.606  13.341  0.1336  0.0286 -0.1288
 6224TIP3    H140087   1.187   2.596  13.398 -0.7668 -0.7572  0.9548
 6224TIP3    H240088   1.099   2.701  13.334  1.9263  0.1914 -1.2895
 6225TIP3   OH240089   2.748   0.142   3.609 -0.3456  1.1891 -0.3790
 6225TIP3    H140090   2.758   0.162   3.516 -0.9894  0.4006 -0.6232
 6225TIP3    H240091   2.660   0.105   3.617  0.3816 -0.4610  0.2454
 6226TIP3   OH240092   6.197   4.453   3.105 -0.1141 -0.1201 -0.0271
 6226TIP3    H140093   6.123   4.491   3.153  0.0181 -0.5129  0.4960
 6226TIP3    H240094   6.274   4.475   3.158  0.0688 -0.2969 -0.2146
 6227TIP3   OH240095   4.025   0.373  16.106 -0.2177  0.6713 -0.0323
 6227TIP3    H140096   3.931   0.356  16.100 -0.2031  0.9498 -1.3461
 6227TIP3    H240097   4.035   0.464  16.076  0.3039  1.1444  1.5605
 6228TIP3   OH240098   2.017   2.367   1.296  0.0621  0.1170  0.6624
 6228TIP3    H140099   2.087   2.427   1.322  0.7124  0.2583 -1.3154
 6228TIP3    H240100   2.043   2.283   1.335  1.0724  0.2874  0.3729
 6229TIP3   OH240101   2.089   4.728  16.243 -0.5847 -0.3843  0.2234
 6229TIP3    H140102   2.140   4.800  16.282 -0.6201 -0.0766 -0.2971
 6229TIP3    H240103   1.998   4.754  16.258 -0.6048 -0.0170 -0.5059
 6230TIP3   OH240104   4.629   5.175   1.266 -0.4139  0.1047  0.6526
 6230TIP3    H140105   4.643   5.081   1.261 -1.4624 -0.0905  1.1482
 6230TIP3    H240106   4.565   5.194   1.197  1.1107  0.7412 -0.6104
 6231TIP3   OH240107   4.649   3.031   5.764  0.3034 -0.2140 -0.2629
 6231TIP3    H140108   4.736   3.008   5.797  0.3056  0.9481  0.5767
 6231TIP3    H240109   4.595   2.954   5.785  0.5212  0.1219  1.6761
 6232TIP3   OH240110   2.970   5.185  15.052 -0.2915  0.0688 -0.3656
 6232TIP3    H140111   3.061   5.171  15.026 -0.7084 -0.5755 -1.4844
 6232TIP3    H240112   2.945   5.267  15.009 -0.1549  0.4121  0.1961
 6233TIP3   OH240113   3.580   2.641   0.515 -0.1154  0.1838 -0.0184
 6233TIP3    H140114   3.646   2.572   0.507  0.2121  0.7017 -2.0547
 6233TIP3    H240115   3.611   2.710   0.457 -1.0123  1.6067  1.1503
 6234TIP3   OH240116   1.246   3.584  13.613  0.1120  0.5023  0.5154
 6234TIP3    H140117   1.193   3.505  13.621  0.7352  0.2510  2.2209
 6234TIP3    H240118   1.333   3.551  13.588  0.5653  0.5884  1.9718
 6235TIP3   OH240119   5.065   1.913   2.074 -0.0414  0.7074  0.0963
 6235TIP3    H140120   5.053   1.848   2.143  0.3012  1.4825  0.8963
 6235TIP3    H240121   4.995   1.894   2.011 -0.3672 -0.0005  0.6574
 6236TIP3   OH240122   6.062   1.926   3.288  0.6812  0.3948  0.2384
 6236TIP3    H140123   6.005   1.997   3.317  0.9874  0.5086  0.5777
 6236TIP3    H240124   6.033   1.906   3.199  1.1952  1.5776 -0.2145
 6237TIP3   OH240125   2.276   5.411  12.686  0.6829 -0.5923  0.3607
 6237TIP3    H140126   2.320   5.358  12.620  2.0827 -0.0989  0.8908
 6237TIP3    H240127   2.192   5.433  12.646  1.4522 -0.4413 -1.1984
 6238TIP3   OH240128   3.153   3.427  12.375 -0.0631  0.1447  0.0104
 6238TIP3    H140129   3.110   3.427  12.461 -0.7444  0.4884 -0.3209
 6238TIP3    H240130   3.159   3.335  12.351  0.4334  0.0265  0.5724
 6239TIP3   OH240131   5.073   5.126   5.739  0.6802  0.6729 -0.1607
 6239TIP3    H140132   5.023   5.085   5.668  0.5424  1.3885 -0.4878
 6239TIP3    H240133   5.099   5.211   5.703  1.9109  0.4133  0.1112
 6240TIP3   OH240134   2.404   5.805  11.501 -0.7810  0.2547  0.9045
 6240TIP3    H140135   2.369   5.721  11.469 -1.8073  0.5576  1.2182
 6240TIP3    H240136   2.489   5.813  11.458 -0.9731 -0.6242  0.3393
 6241TIP3   OH240137   3.879   5.251  16.761  0.2937 -0.0667  0.3912
 6241TIP3    H140138   3.887   5.318  16.829  0.2454 -0.5781  0.9086
 6241TIP3    H240139   3.962   5.203  16.765  0.0327 -0.5114  0.5416
 6242TIP3   OH240140   0.658   3.770   2.406  0.2014  0.1053  0.3352
 6242TIP3    H140141   0.724   3.720   2.358 -1.5342 -1.4064 -0.5097
 6242TIP3    H240142   0.641   3.717   2.484 -0.3644  0.2618  0.3164
 6243TIP3   OH240143   1.894   0.912  11.285  0.0299  0.2875  0.4261
 6243TIP3    H140144   1.836   0.837  11.272  1.1439 -0.7255  1.1361
 6243TIP3    H240145   1.842   0.975  11.334 -0.6071 -0.4263  0.6722
 6244TIP3   OH240146   0.786   0.761  14.208 -0.1811  0.0519 -0.5527
 6244TIP3    H140147   0.690   0.763  14.211 -0.1183  1.1931  1.4298
 6244TIP3    H240148   0.810   0.690  14.267  0.2270  0.8941  0.3141
 6245TIP3   OH240149   0.860   2.113  16.083 -0.0575 -0.4108  0.0585
 6245TIP3    H140150   0.768   2.105  16.109  0.6145 -2.5964  1.9825
 6245TIP3    H240151   0.901   2.162  16.154  0.6388 -1.1835  0.1986
 6246TIP3   OH240152   0.997   6.603  15.411  0.3025 -0.0684 -0.4377
 6246TIP3    H140153   0.966   6.523  15.369  2.0607  0.0553 -2.0704
 6246TIP3    H240154   0.929   6.625  15.475 -1.2506 -1.6413 -1.4994
 6247TIP3   OH240155   3.903   0.768  16.532 -0.1707 -0.2137 -0.5662
 6247TIP3    H140156   3.843   0.717  16.478 -0.2986 -0.5312 -0.1252
 6247TIP3    H240157   3.848   0.835  16.572 -0.4869 -1.3093  0.8746
 6248TIP3   OH240158   1.513   5.931  12.097  0.3435  0.0686  0.3824
 6248TIP3    H140159   1.564   5.980  12.033  1.5020 -2.5125 -0.7338
 6248TIP3    H240160   1.444   5.889  12.046 -0.6676  0.5231  1.3395
 6249TIP3   OH240161   3.448   3.217   2.726 -0.3148  0.1827  0.3998
 6249TIP3    H140162   3.503   3.214   2.648  1.8141  0.0348  1.8848
 6249TIP3    H240163   3.389   3.291   2.710  2.0615  2.0237 -0.0855
 6250TIP3   OH240164   5.028   1.566  13.168 -0.7416  0.1963  0.5237
 6250TIP3    H140165   4.961   1.535  13.107  0.7813 -0.5445 -0.8025
 6250TIP3    H240166   5.051   1.653  13.136  1.0438 -0.7398 -0.8199
 6251TIP3   OH240167   4.750   0.968   4.243  0.2382  0.2141  0.1514
 6251TIP3    H140168   4.817   0.901   4.236  0.1973  0.4203 -2.9045
 6251TIP3    H240169   4.799   1.049   4.259  0.6938  0.2244 -1.1970
 6252TIP3   OH240170   5.382   4.194  13.212  0.6025 -0.0656  0.1239
 6252TIP3    H140171   5.341   4.249  13.279  0.3508 -0.6336  0.4307
 6252TIP3    H240172   5.459   4.244  13.185  1.2575 -0.2919  1.5337
 6253TIP3   OH240173   3.737   0.754   5.027 -0.5846 -0.0130  0.3643
 6253TIP3    H140174   3.762   0.694   4.957  2.0905  0.4619  0.8764
 6253TIP3    H240175   3.799   0.736   5.098 -0.1673  2.8604  0.7931
 6254TIP3   OH240176   0.752   3.135  13.754 -1.1119  0.0443  0.2836
 6254TIP3    H140177   0.750   3.044  13.784  0.9698 -0.0955  0.0712
 6254TIP3    H240178   0.683   3.179  13.805 -0.2550 -1.0349  2.4117
 6255TIP3   OH240179   2.513   2.517   4.367 -0.0844  0.4010  0.1701
 6255TIP3    H140180   2.443   2.562   4.415 -0.4031  0.2112 -0.1194
 6255TIP3    H240181   2.592   2.536   4.418 -0.2241  1.2405  0.0838
 6256TIP3   OH240182   2.305   2.297   4.300 -0.3381 -0.5461  0.2054
 6256TIP3    H140183   2.331   2.387   4.319  1.2090 -1.1778  1.2227
 6256TIP3    H240184   2.239   2.276   4.366  1.1366 -0.9600  1.5974
 6257TIP3   OH240185   3.848   4.704   1.581 -0.1044  0.0302 -0.3853
 6257TIP3    H140186   3.825   4.622   1.536 -3.3738  0.9169 -0.4260
 6257TIP3    H240187   3.803   4.699   1.665  0.8778  1.1598  0.2170
 6258TIP3   OH240188   2.094   3.395   4.239  0.6191 -0.2322 -0.0303
 6258TIP3    H140189   2.161   3.462   4.252  1.3920 -1.1704  0.8888
 6258TIP3    H240190   2.128   3.340   4.168  0.2950 -0.0465 -0.3317
 6259TIP3   OH240191   5.352   2.122   3.457  0.0070 -0.3226  0.1107
 6259TIP3    H140192   5.401   2.165   3.527  1.9341 -0.1468 -1.3247
 6259TIP3    H240193   5.303   2.053   3.501  2.5513 -1.3443  1.4068
 6260TIP3   OH240194   4.866   1.765  12.832  0.1061  0.2407  0.0467
 6260TIP3    H140195   4.884   1.759  12.738 -0.0561 -0.8383  0.0810
 6260TIP3    H240196   4.900   1.851  12.858  1.5670 -0.1131 -0.6819
 6261TIP3   OH240197   2.534   5.268  13.169  0.4353 -0.1697  0.6106
 6261TIP3    H140198   2.523   5.272  13.074  1.8238  0.5714  0.4681
 6261TIP3    H240199   2.527   5.359  13.197 -0.2479 -0.4186  1.2551
 6262TIP3   OH240200   6.766   4.569  14.338 -0.0083  0.5769  0.3992
 6262TIP3    H140201   6.750   4.650  14.387 -0.5081  1.1818 -0.7400
 6262TIP3    H240202   6.861   4.566  14.328 -0.0026  1.2118  0.1720
 6263TIP3   OH240203   2.675   3.432   0.039  0.2546  0.0939  0.7589
 6263TIP3    H140204   2.676   3.341   0.009  1.6704 -0.4917  2.4911
 6263TIP3    H240205   2.734   3.478  -0.022  0.0423 -0.2685  0.2769
 6264TIP3   OH240206   4.913   1.903   3.030  0.1342  0.2040  0.0099
 6264TIP3    H140207   4.876   1.828   3.077  0.9321 -0.5807 -0.5960
 6264TIP3    H240208   4.994   1.923   3.076  0.0457  0.5315  0.0213
 6265TIP3   OH240209   5.936   4.433  12.427 -0.1838  0.2784 -0.3476
 6265TIP3    H140210   5.914   4.526  12.429 -0.3613  0.2074  1.6838
 6265TIP3    H240211   6.006   4.427  12.361  1.9828  2.3356  1.6334
 6266TIP3   OH240212   0.571   5.442  16.966 -0.1642 -0.4006 -0.0217
 6266TIP3    H140213   0.553   5.412  16.877 -1.9764  0.4509  0.0335
 6266TIP3    H240214   0.497   5.410  17.018 -0.7299  1.7632  0.5565
 6267TIP3   OH240215   4.429   1.200   5.991 -0.6382  0.0024 -0.1636
 6267TIP3    H140216   4.357   1.218   6.052  0.5758  2.0065  0.7238
 6267TIP3    H240217   4.469   1.286   5.975  1.8020 -1.1281 -0.3252
 6268TIP3   OH240218   0.110   6.646  11.431  0.5205 -0.2297 -0.1281
 6268TIP3    H140219   0.017   6.631  11.447  0.6698 -1.0473 -0.0379
 6268TIP3    H240220   0.127   6.604  11.347  0.6499  0.5470 -0.4949
 6269TIP3   OH240221   4.936   1.598   5.806 -0.1043  0.5111  0.2205
 6269TIP3    H140222   5.028   1.584   5.780  0.2317 -0.4467  1.8372
 6269TIP3    H240223   4.936   1.581   5.900 -1.6161  2.2604  0.5363
 6270TIP3   OH240224   0.805   3.885  16.529  0.6636  0.1837 -0.0545
 6270TIP3    H140225   0.881   3.939  16.506 -0.0090  1.7510  1.2396
 6270TIP3    H240226   0.838   3.795  16.528  2.0948  0.7009 -1.2050
 6271TIP3   OH240227   6.783   0.725  11.724  0.3579 -0.1185 -0.0039
 6271TIP3    H140228   6.802   0.639  11.763 -0.0551 -0.0692  0.3074
 6271TIP3    H240229   6.863   0.748  11.677  0.6004 -0.5104  0.2164
 6272TIP3   OH240230   4.644   0.286  15.178 -0.2776 -0.5015 -0.2260
 6272TIP3    H140231   4.603   0.211  15.221  1.7912 -0.2785  2.2267
 6272TIP3    H240232   4.654   0.258  15.087 -2.0096 -2.1342  0.0489
 6273TIP3   OH240233   0.741   0.513  12.522 -0.2272 -0.5762  0.2947
 6273TIP3    H140234   0.725   0.429  12.479 -1.8743  0.2291 -0.7402
 6273TIP3    H240235   0.738   0.577  12.451  2.8166  0.1841  0.8188
 6274TIP3   OH240236   0.987   2.673   3.485  0.1022 -0.7066 -0.0216
 6274TIP3    H140237   1.074   2.710   3.470  0.2298 -1.4082 -1.1025
 6274TIP3    H240238   1.005   2.586   3.522 -0.1082 -1.0174 -0.6231
 6275TIP3   OH240239   4.253   6.649   6.711  0.1553 -0.7735 -0.2024
 6275TIP3    H140240   4.184   6.601   6.666 -0.9426 -2.2084  2.8181
 6275TIP3    H240241   4.206   6.713   6.765  1.3121 -0.1593  0.0901
 6276TIP3   OH240242   5.790   1.316   2.298 -0.6681  0.3225  0.1959
 6276TIP3    H140243   5.836   1.400   2.301  0.9955 -0.5380 -0.4136
 6276TIP3    H240244   5.770   1.296   2.389  0.8214  0.3941  0.5582
 6277TIP3   OH240245   1.879   3.385  11.319  0.3989 -0.7233 -0.5613
 6277TIP3    H140246   1.960   3.435  11.323  1.1676 -1.9741 -0.2820
 6277TIP3    H240247   1.824   3.433  11.256  0.5966  1.1941  0.6664
 6278TIP3   OH240248   2.746   0.055  15.521  0.1834 -0.2213  0.1925
 6278TIP3    H140249   2.667   0.067  15.469 -0.6070  0.7441  1.6057
 6278TIP3    H240250   2.716   0.014  15.602  0.9448  1.3080  1.2661
 6279TIP3   OH240251   3.398   3.862  10.800 -0.2891 -0.5662 -0.0812
 6279TIP3    H140252   3.407   3.929  10.732  1.0959  0.3708  1.0005
 6279TIP3    H240253   3.326   3.806  10.769 -1.2587  1.2208 -1.1522
 6280TIP3   OH240254   3.620   3.587  15.578 -0.0809  0.1104  0.0709
 6280TIP3    H140255   3.666   3.569  15.496  1.5950 -1.3720  1.3264
 6280TIP3    H240256   3.581   3.503  15.603  2.0457 -0.2220  2.4035
 6281TIP3   OH240257   1.810   3.796  10.951  0.1006  0.4710 -0.0013
 6281TIP3    H140258   1.795   3.807  10.857 -1.8827 -0.8462  0.1295
 6281TIP3    H240259   1.734   3.838  10.991  0.9568  1.0529  1.0421
 6282TIP3   OH240260   5.043   2.862   2.810 -0.1488 -0.5691 -0.1463
 6282TIP3    H140261   4.976   2.918   2.849  0.6654  0.0205  0.4173
 6282TIP3    H240262   5.018   2.855   2.718 -1.1924 -0.6598  0.1376
 6283TIP3   OH240263   3.488   0.727   6.056  0.3244  0.2406  0.5438
 6283TIP3    H140264   3.526   0.670   6.122 -1.4005  0.1715  1.4991
 6283TIP3    H240265   3.460   0.805   6.105 -2.2434 -0.3948  0.1822
 6284TIP3   OH240266   5.960   4.399  16.767 -0.1336 -0.2872 -0.8298
 6284TIP3    H140267   5.962   4.494  16.776 -1.4590 -0.3057 -0.2820
 6284TIP3    H240268   6.052   4.374  16.755  0.1632  1.1024 -1.4902
 6285TIP3   OH240269   5.070   1.196   1.629 -0.2146 -0.0094  0.3819
 6285TIP3    H140270   4.983   1.159   1.614 -0.4925  0.3492  1.0526
 6285TIP3    H240271   5.053   1.288   1.652  0.3179 -0.0014  0.7688
 6286TIP3   OH240272   5.507   4.790  15.173 -0.1413  0.3154 -0.5223
 6286TIP3    H140273   5.523   4.702  15.140 -1.3689  0.0797 -0.5034
 6286TIP3    H240274   5.426   4.817  15.131 -1.9565 -0.1222  2.5496
 6287TIP3   OH240275   4.214   3.215  11.541  0.0696  0.3274 -0.2939
 6287TIP3    H140276   4.175   3.129  11.521 -0.8058  0.9450 -1.3062
 6287TIP3    H240277   4.308   3.198  11.548 -0.0646 -0.6645 -0.8153
 6288TIP3   OH240278   1.025   5.744   5.742 -0.1311  0.2406 -0.6211
 6288TIP3    H140279   1.003   5.701   5.659 -1.3128 -2.1661  0.8823
 6288TIP3    H240280   0.941   5.756   5.786  0.4929  1.3791  0.2965
 6289TIP3   OH240281   2.799   0.249  11.580 -0.8699  0.1605  0.2984
 6289TIP3    H140282   2.840   0.258  11.494 -1.2655  1.4494  0.2274
 6289TIP3    H240283   2.872   0.244  11.642 -0.5818  0.6144  0.0026
 6290TIP3   OH240284   6.630   6.052  12.748 -0.1014 -0.2032 -0.5551
 6290TIP3    H140285   6.622   6.108  12.670  0.3548  1.9105  0.8721
 6290TIP3    H240286   6.720   6.066  12.777 -0.1660 -1.2628  0.1582
 6291TIP3   OH240287   2.886   3.424   0.694 -0.0851  0.2349 -0.0108
 6291TIP3    H140288   2.834   3.482   0.750 -0.4232  0.3860 -0.4761
 6291TIP3    H240289   2.869   3.455   0.605 -2.0621 -1.9578 -0.4602
 6292TIP3   OH240290   4.919   0.851   4.643  0.0927 -0.2444 -0.0309
 6292TIP3    H140291   4.841   0.904   4.625 -0.3001  0.2286  2.7463
 6292TIP3    H240292   4.991   0.914   4.647  0.6167 -0.6631 -2.4451
 6293TIP3   OH240293   3.460   2.052  16.317  0.0158  0.4484  0.7044
 6293TIP3    H140294   3.456   1.966  16.358 -0.6927  0.5441  0.8548
 6293TIP3    H240295   3.530   2.045  16.253  1.5679  0.5064  2.3753
 6294TIP3   OH240296   3.618   1.558   5.366  0.1209  0.0447 -0.2968
 6294TIP3    H140297   3.586   1.621   5.430 -0.7007 -0.2881 -0.3713
 6294TIP3    H240298   3.551   1.489   5.364 -0.5508  0.7153 -2.5006
 6295TIP3   OH240299   5.012   2.281  16.631  0.5792 -0.2092  0.0499
 6295TIP3    H140300   5.097   2.250  16.602  0.2523 -0.8149 -0.2553
 6295TIP3    H240301   4.949   2.227  16.584 -0.0046  1.2381 -0.8644
 6296TIP3   OH240302   5.412   3.774  11.512  0.5691 -0.2471 -0.2274
 6296TIP3    H140303   5.444   3.773  11.602 -0.3680 -0.9734  0.1166
 6296TIP3    H240304   5.317   3.782  11.521  0.2335 -2.8995 -1.0699
 6297TIP3   OH240305   1.640   3.465  16.622 -0.0347 -0.1427 -0.2729
 6297TIP3    H140306   1.572   3.457  16.689 -0.8417  0.0863 -1.0487
 6297TIP3    H240307   1.718   3.427  16.662 -0.5454 -0.1375  0.7400
 6298TIP3   OH240308   1.700   6.158   1.692  0.1275  0.6854 -0.2404
 6298TIP3    H140309   1.735   6.145   1.780 -0.0325 -0.5366 -0.3395
 6298TIP3    H240310   1.623   6.101   1.689  1.8507 -1.6544 -2.1503
 6299TIP3   OH240311   2.425   1.726  12.643 -0.7335 -0.2195  0.5808
 6299TIP3    H140312   2.416   1.821  12.641  1.0500  0.0101  2.3293
 6299TIP3    H240313   2.493   1.707  12.579  0.7661 -0.0441  2.0794
 6300TIP3   OH240314   5.436   6.498   4.633  0.0040  0.4989  0.1442
 6300TIP3    H140315   5.527   6.468   4.631  0.5382  1.9222  1.8099
 6300TIP3    H240316   5.386   6.425   4.599  1.6359 -0.9050  0.6878
 6301TIP3   OH240317   4.826   2.502  14.630  0.0824  0.3704 -0.4578
 6301TIP3    H140318   4.763   2.492  14.559 -0.3973 -0.4137  0.0683
 6301TIP3    H240319   4.789   2.450  14.702  1.1506  0.1891 -0.0348
 6302TIP3   OH240320   5.501   3.153   4.863  0.3370  0.5464  0.4103
 6302TIP3    H140321   5.591   3.124   4.878  0.2543  0.6479  1.0830
 6302TIP3    H240322   5.465   3.088   4.802  0.0581 -0.9520  2.1589
 6303TIP3   OH240323   4.295   2.634  13.311  0.2256  0.3168 -0.0575
 6303TIP3    H140324   4.270   2.562  13.252  1.0687 -0.9623  1.1055
 6303TIP3    H240325   4.237   2.706  13.287  0.0744 -0.4118 -1.9589
 6304TIP3   OH240326   0.845   5.321  14.143 -0.0596 -0.2600 -0.7761
 6304TIP3    H140327   0.919   5.361  14.098 -1.1210  0.7008 -1.6953
 6304TIP3    H240328   0.852   5.228  14.123  2.7308 -0.7107  1.7862
 6305TIP3   OH240329   0.013   5.974  15.151  0.1574  0.5560  0.1475
 6305TIP3    H140330   0.102   5.973  15.187 -0.2701  0.6863  1.2429
 6305TIP3    H240331   0.025   5.995  15.058  1.2312  1.1199  0.3955
 6306TIP3   OH240332   5.591   5.878   2.130  0.4608  0.0963  0.2765
 6306TIP3    H140333   5.554   5.884   2.218  3.0169  0.1331  1.3819
 6306TIP3    H240334   5.541   5.808   2.088  0.3760 -1.1562  2.3714
 6307TIP3   OH240335   5.315   3.576   2.346 -0.9663  0.4292  0.0998
 6307TIP3    H140336   5.292   3.550   2.436  1.4081  1.8368  1.1707
 6307TIP3    H240337   5.367   3.503   2.313  0.6451  1.1294  0.9763
 6308TIP3   OH240338   0.454   4.482   0.180  0.9991 -0.0402  0.1053
 6308TIP3    H140339   0.380   4.532   0.145 -1.1044 -2.3638  1.0599
 6308TIP3    H240340   0.507   4.547   0.226 -0.9603  1.5445  0.2214
 6309TIP3   OH240341   0.593   6.259   5.972  0.5173 -0.0546  0.1155
 6309TIP3    H140342   0.576   6.353   5.985  0.9453  0.0024  0.2856
 6309TIP3    H240343   0.529   6.216   6.028 -1.2032  0.0785 -1.7051
 6310TIP3   OH240344   4.959   0.750  12.081  0.5732 -0.0876  0.3519
 6310TIP3    H140345   4.976   0.734  12.174 -1.4752 -1.4086  0.5192
 6310TIP3    H240346   4.960   0.846  12.073 -0.5517  0.0833  1.9983
 6311TIP3   OH240347   4.740   0.949   1.271  0.3520 -0.5698 -0.5736
 6311TIP3    H140348   4.698   0.954   1.357 -1.4867 -0.9877 -1.4114
 6311TIP3    H240349   4.800   1.024   1.269 -0.3562  0.0521  0.6729
 6312TIP3   OH240350   4.318   4.659  14.108  0.2130  0.5927  0.1065
 6312TIP3    H140351   4.351   4.686  14.023 -0.9357 -0.1098 -0.5714
 6312TIP3    H240352   4.322   4.563  14.107  1.2512  0.6072  1.2730
 6313TIP3   OH240353   0.820   4.183  15.931 -0.2260 -0.5415 -0.9828
 6313TIP3    H140354   0.888   4.176  15.864  0.6526  0.1366 -0.1874
 6313TIP3    H240355   0.855   4.246  15.994 -0.4641 -2.1105  0.7786
 6314TIP3   OH240356   2.455   3.815  13.304  0.3499 -0.4186  0.9376
 6314TIP3    H140357   2.526   3.810  13.368  0.6726 -1.1709  0.5319
 6314TIP3    H240358   2.499   3.804  13.219 -0.2943 -1.2046  0.7042
 6315TIP3   OH240359   0.982   0.807  16.453 -0.2275  0.1508  0.2345
 6315TIP3    H140360   0.888   0.801  16.438 -0.3888  1.9808  0.4265
 6315TIP3    H240361   0.996   0.766  16.539 -1.1776  1.8865  1.2445
 6316TIP3   OH240362   2.357   2.727  12.166 -0.0057  0.1870 -0.2281
 6316TIP3    H140363   2.325   2.737  12.256 -0.3347  1.7292 -0.5051
 6316TIP3    H240364   2.432   2.668  12.174  0.1817  0.5861  1.1057
 6317TIP3   OH240365   6.738   2.636   5.926  0.2888  0.7630  0.0025
 6317TIP3    H140366   6.729   2.632   5.831 -0.6320  0.7295  0.0924
 6317TIP3    H240367   6.749   2.544   5.952 -0.3364  0.6945  0.0184
 6318TIP3   OH240368   5.946   3.264   2.470  0.5637  0.3807  0.2493
 6318TIP3    H140369   6.015   3.322   2.502  2.0113  0.3777 -2.6975
 6318TIP3    H240370   5.987   3.178   2.465  0.3895  0.3827 -1.5367
 6319TIP3   OH240371   5.073   6.612   2.541 -0.1981 -0.5313 -0.0170
 6319TIP3    H140372   5.078   6.517   2.537  0.2354 -0.5009 -0.2725
 6319TIP3    H240373   5.160   6.642   2.514 -0.3713 -0.0611 -0.0693
 6320TIP3   OH240374   4.432   4.284   4.968 -0.3975  0.0468 -0.6951
 6320TIP3    H140375   4.365   4.222   4.996  0.2263  0.9809  3.3051
 6320TIP3    H240376   4.397   4.370   4.993  1.8896  0.6068  0.7349
 6321TIP3   OH240377   2.450   0.169  11.243 -0.4944  0.4096 -0.3908
 6321TIP3    H140378   2.515   0.125  11.189 -0.5711 -0.3820  0.1446
 6321TIP3    H240379   2.502   0.220  11.306 -0.3866 -0.1283 -0.0391
 6322TIP3   OH240380   0.357   0.555  17.060 -0.4304  0.6068 -0.5850
 6322TIP3    H140381   0.336   0.470  17.021 -1.8404  0.0431  1.2980
 6322TIP3    H240382   0.274   0.603  17.059 -0.1406  1.1437  0.2644
 6323TIP3   OH240383   3.262   1.601   3.634  0.0720 -0.1360  0.6737
 6323TIP3    H140384   3.271   1.674   3.573  0.1096  0.1145  0.9757
 6323TIP3    H240385   3.301   1.526   3.589 -0.7852 -0.1780 -0.0087
 6324TIP3   OH240386   4.942   2.783  12.330 -0.0461  0.6005 -0.6121
 6324TIP3    H140387   5.028   2.762  12.368 -0.4088  1.8695  0.9240
 6324TIP3    H240388   4.959   2.788  12.235  1.5907  0.9634 -0.3177
 6325TIP3   OH240389   4.793   5.563  14.221  0.3161  0.1824  0.2449
 6325TIP3    H140390   4.747   5.594  14.299 -0.1701  1.0258 -0.3694
 6325TIP3    H240391   4.829   5.478  14.247  1.3734  1.0744  1.8478
 6326TIP3   OH240392   4.611   4.867  15.129 -0.1597  0.3171 -0.4798
 6326TIP3    H140393   4.517   4.863  15.108 -0.2896 -0.5700  0.2310
 6326TIP3    H240394   4.647   4.928  15.065 -1.0556 -0.0845 -1.3865
 6327TIP3   OH240395   5.985   4.572   2.425  0.0677  0.1099  0.4318
 6327TIP3    H140396   5.969   4.479   2.411  0.0593  0.2082 -0.2248
 6327TIP3    H240397   6.077   4.578   2.449  0.5766  0.1332 -1.4841
 6328TIP3   OH240398   5.333   2.837  11.077  0.4001  0.0855  0.2479
 6328TIP3    H140399   5.361   2.789  11.155 -0.5580 -1.3485 -0.2933
 6328TIP3    H240400   5.382   2.798  11.005  0.1730  0.4197 -0.0932
 6329TIP3   OH240401   5.701   1.223  15.659 -0.1652 -0.5573 -0.0960
 6329TIP3    H140402   5.768   1.282  15.692  1.2339 -0.8407 -2.3053
 6329TIP3    H240403   5.707   1.145  15.714 -0.6099  0.5192  1.4947
 6330TIP3   OH240404   4.566   1.932   0.028 -0.0657 -0.2879 -0.2371
 6330TIP3    H140405   4.545   2.025   0.031 -0.8526 -0.3319 -2.6700
 6330TIP3    H240406   4.485   1.890  -0.001 -0.3730 -2.0197  2.8800
 6331TIP3   OH240407   4.874   3.635  16.651  0.3872 -0.6861  0.0740
 6331TIP3    H140408   4.964   3.622  16.681 -0.0436 -2.1966  0.7361
 6331TIP3    H240409   4.875   3.609  16.559  1.6379  3.6444 -1.2657
 6332TIP3   OH240410   6.296   3.036  17.138 -0.7597 -0.2420  0.0924
 6332TIP3    H140411   6.351   3.047  17.217 -3.2410 -2.4345  2.2220
 6332TIP3    H240412   6.289   2.942  17.127 -1.8518  0.0360 -1.8071
 6333TIP3   OH240413   5.856   0.188  12.915  0.2391 -0.3046  0.1406
 6333TIP3    H140414   5.840   0.217  12.825  1.3703 -1.9727 -0.6364
 6333TIP3    H240415   5.944   0.221  12.935  0.5309 -1.0669  0.1382
 6334TIP3   OH240416   6.332   3.323   0.692  0.1697  0.4807 -0.5672
 6334TIP3    H140417   6.288   3.364   0.767  1.2222  2.6670 -1.0859
 6334TIP3    H240418   6.426   3.335   0.711  0.4961 -1.6932 -0.7702
 6335TIP3   OH240419   3.264   1.570   5.206  0.0206 -0.0656  0.5256
 6335TIP3    H140420   3.352   1.579   5.170  0.0963  0.0908  0.7464
 6335TIP3    H240421   3.253   1.647   5.262  0.1009 -0.5734  1.2500
 6336TIP3   OH240422   6.613   1.399  14.187  0.4083  0.3119 -0.0945
 6336TIP3    H140423   6.623   1.385  14.281 -1.4664  0.8354  0.2128
 6336TIP3    H240424   6.586   1.314  14.153 -1.2803  0.6801  0.2455
 6337TIP3   OH240425   5.109   5.415  17.178  0.2563 -0.3868  0.0849
 6337TIP3    H140426   5.059   5.450  17.252 -1.3364 -0.9268 -0.7020
 6337TIP3    H240427   5.139   5.493  17.131  1.1079 -0.0426  1.1848
 6338TIP3   OH240428   5.385   6.765   4.280 -0.2520 -0.2717 -0.2479
 6338TIP3    H140429   5.372   6.761   4.374 -0.6322 -1.1177 -0.3355
 6338TIP3    H240430   5.446   6.694   4.260 -0.7919 -0.5987 -0.7464
 6339TIP3   OH240431   5.433   5.453   0.815 -0.2572  0.2690 -0.0704
 6339TIP3    H140432   5.516   5.414   0.786  0.2231  0.7052  0.6703
 6339TIP3    H240433   5.416   5.524   0.753 -0.1553  0.0747 -0.3184
 6340TIP3   OH240434   4.535   5.180   4.478  0.5213 -0.0999  0.1066
 6340TIP3    H140435   4.549   5.088   4.498  1.6535 -0.5305 -2.5557
 6340TIP3    H240436   4.450   5.182   4.434  1.2731 -0.1200 -1.3674
 6341TIP3   OH240437   3.699   0.989   4.106  0.2599  0.1189  0.2282
 6341TIP3    H140438   3.753   0.920   4.068  1.3192  0.8355  0.4021
 6341TIP3    H240439   3.736   1.070   4.071  0.5339  0.7274  1.8789
 6342TIP3   OH240440   0.333   1.717   3.189  0.4276 -0.0239  0.5891
 6342TIP3    H140441   0.287   1.733   3.106 -0.1088  0.0948  0.9133
 6342TIP3    H240442   0.420   1.689   3.162  0.5718  0.9649 -0.0138
 6343TIP3   OH240443   2.143   5.435  13.691  0.2633  0.1560 -0.0233
 6343TIP3    H140444   2.109   5.349  13.714  2.0420 -0.1300  1.6569
 6343TIP3    H240445   2.067   5.493  13.698 -0.7365 -1.1087 -0.2578
 6344TIP3   OH240446   2.002   6.420   4.602  0.1335  0.1104 -0.1892
 6344TIP3    H140447   2.004   6.442   4.696  0.4249 -0.9639  0.0680
 6344TIP3    H240448   1.912   6.440   4.576  0.0263  0.3509  0.3420
 6345TIP3   OH240449   2.809   2.888  13.016  0.0762 -0.0884  0.7890
 6345TIP3    H140450   2.760   2.970  13.025 -2.3191 -1.4646  0.7417
 6345TIP3    H240451   2.875   2.907  12.950 -1.7291  1.2809 -0.6886
 6346TIP3   OH240452   6.289   3.478   1.057 -0.4973  0.5940 -0.0420
 6346TIP3    H140453   6.369   3.500   1.104 -0.6962 -0.3126  0.7380
 6346TIP3    H240454   6.289   3.383   1.052 -1.6158  0.5746  0.1346
 6347TIP3   OH240455   6.213   2.469  12.725 -0.1630 -0.4164  0.0079
 6347TIP3    H140456   6.119   2.450  12.728 -0.0925 -0.9682 -0.9516
 6347TIP3    H240457   6.233   2.473  12.631  0.6160  0.4858  0.2141
 6348TIP3   OH240458   3.021   3.888  11.352 -0.4829 -0.0760  0.0407
 6348TIP3    H140459   2.939   3.883  11.303 -1.6973 -1.4294  2.1185
 6348TIP3    H240460   3.062   3.969  11.322 -2.5276  0.5678 -1.1244
 6349TIP3   OH240461   1.521   4.682  15.372  0.3765 -0.2262  0.7280
 6349TIP3    H140462   1.449   4.694  15.435 -0.0225  0.0880  0.2150
 6349TIP3    H240463   1.519   4.761  15.318 -0.0914 -1.0555 -0.4902
 6350TIP3   OH240464   2.395   5.288   2.236 -0.1295 -0.3166  0.3177
 6350TIP3    H140465   2.331   5.300   2.166 -0.6341 -1.0803  0.6434
 6350TIP3    H240466   2.474   5.331   2.204 -1.1806  1.7618  0.4389
 6351TIP3   OH240467   0.208   2.700   5.393  0.3891 -0.1139  0.1125
 6351TIP3    H140468   0.213   2.731   5.483  1.6686 -1.9984  0.7462
 6351TIP3    H240469   0.141   2.631   5.395  0.1750  0.0766 -0.4426
 6352TIP3   OH240470   3.728   4.611  12.931  0.3639 -0.6244  0.2564
 6352TIP3    H140471   3.780   4.688  12.953  2.0218 -2.3099  2.4377
 6352TIP3    H240472   3.686   4.587  13.014  1.8358 -3.5029  0.2020
 6353TIP3   OH240473   1.123   3.161   0.319 -0.3820 -0.6203 -0.3803
 6353TIP3    H140474   1.198   3.167   0.260 -0.6592  0.8604 -0.6094
 6353TIP3    H240475   1.072   3.240   0.300 -2.3672 -1.9759 -0.7344
 6354TIP3   OH240476   2.188   6.716  12.842 -0.3712 -0.0559  0.7327
 6354TIP3    H140477   2.188   6.646  12.776 -0.3401 -0.0463  0.7235
 6354TIP3    H240478   2.236   6.787  12.800 -1.9013  0.5979  0.0618
 6355TIP3   OH240479   2.090   3.645  13.620  0.4318 -0.0828 -0.4512
 6355TIP3    H140480   2.152   3.652  13.548  0.5525 -2.3407 -0.6160
 6355TIP3    H240481   2.133   3.691  13.693  2.1744 -1.3235 -0.6566
 6356TIP3   OH240482   3.496   0.606   3.772 -0.2892  0.1887 -0.1197
 6356TIP3    H140483   3.557   0.609   3.697  0.4549 -0.3544  0.4516
 6356TIP3    H240484   3.412   0.581   3.733  0.5895 -2.3151 -0.4982
 6357TIP3   OH240485   2.952   1.825  11.855  0.1669 -0.6109 -0.0452
 6357TIP3    H140486   2.932   1.902  11.908 -0.8612 -1.3447  0.6561
 6357TIP3    H240487   2.906   1.753  11.899  2.0031 -1.8278 -0.0645
 6358TIP3   OH240488   1.096   4.134  16.103  0.0495 -0.3824 -0.1862
 6358TIP3    H140489   1.118   4.227  16.104 -1.2340 -0.0809  1.6166
 6358TIP3    H240490   1.022   4.128  16.041 -0.1476 -0.1339  0.0235
 6359TIP3   OH240491   5.120   2.022  11.544  0.0797 -0.1042 -0.2482
 6359TIP3    H140492   5.031   2.054  11.531  0.3232  0.8225  0.3123
 6359TIP3    H240493   5.129   1.949  11.483 -0.9781 -0.0406 -0.4822
 6360TIP3   OH240494   4.261   5.471  13.634 -0.0649  0.3491 -0.1396
 6360TIP3    H140495   4.261   5.515  13.719 -2.5732 -0.2182  0.1851
 6360TIP3    H240496   4.220   5.533  13.574 -0.5422 -0.2107 -0.3971
 6361TIP3   OH240497   0.342   5.635  14.405  0.3317 -0.0722  0.1378
 6361TIP3    H140498   0.319   5.700  14.473 -0.9247  1.3650 -1.6106
 6361TIP3    H240499   0.273   5.569  14.411  1.9508 -1.6398  2.3417
 6362TIP3   OH240500   4.751   1.865  14.504 -0.0953  0.0225  0.0002
 6362TIP3    H140501   4.752   1.869  14.599 -1.7452 -0.1365  0.0383
 6362TIP3    H240502   4.686   1.931  14.478 -1.2040 -1.3983 -0.9091
 6363TIP3   OH240503   5.933   5.150  13.833  0.2580 -0.1213  0.4495
 6363TIP3    H140504   5.873   5.094  13.783  1.4136 -0.3107 -0.7564
 6363TIP3    H240505   5.992   5.187  13.767 -0.8091  2.9386  1.1818
 6364TIP3   OH240506   0.507   1.301   5.867 -0.0828 -0.3707 -0.2042
 6364TIP3    H140507   0.567   1.329   5.936 -1.5165  3.0858 -0.2883
 6364TIP3    H240508   0.427   1.276   5.914 -0.2594 -0.2858 -0.4619
 6365TIP3   OH240509   2.793   4.230   1.161  0.0245 -0.3778  0.4318
 6365TIP3    H140510   2.880   4.249   1.196  0.4627  0.1317 -0.8808
 6365TIP3    H240511   2.763   4.154   1.210  1.1685 -0.4877  0.9826
 6366TIP3   OH240512   5.907   5.289   0.368  0.6055  0.2108 -0.2128
 6366TIP3    H140513   5.931   5.375   0.402  0.9943 -0.0827  0.2663
 6366TIP3    H240514   5.824   5.269   0.410  0.4837  0.3799 -0.3739
 6367TIP3   OH240515   1.556   0.867  11.598  0.6582  0.0616  0.1831
 6367TIP3    H140516   1.523   0.806  11.532  1.4822  0.6535 -0.7956
 6367TIP3    H240517   1.490   0.936  11.601  0.3540 -0.2367  0.3615
 6368TIP3   OH240518   5.022   1.908  14.393  0.1900  0.0421  0.3115
 6368TIP3    H140519   4.935   1.883  14.425  0.5330  0.4080  1.5307
 6368TIP3    H240520   5.065   1.947  14.468  0.9302  1.1067 -0.6516
 6369TIP3   OH240521   6.359   0.801  16.185  0.1074 -0.5027  0.1020
 6369TIP3    H140522   6.388   0.882  16.228  1.1144 -0.8565  0.1114
 6369TIP3    H240523   6.272   0.821  16.153 -0.5452 -0.1158  2.0188
 6370TIP3   OH240524   1.496   6.239   4.969  0.4391 -0.4395  0.5441
 6370TIP3    H140525   1.489   6.319   5.021  0.0944 -0.6656  0.8485
 6370TIP3    H240526   1.422   6.242   4.909 -0.3704 -1.1915  1.4822
 6371TIP3   OH240527   5.279   5.280   2.154 -0.1279 -0.3196 -0.3196
 6371TIP3    H140528   5.234   5.196   2.159 -0.9856  0.1738  0.3501
 6371TIP3    H240529   5.360   5.261   2.106 -0.8310 -1.2996 -1.1330
 6372TIP3   OH240530   4.648   3.153  16.094 -0.1669  0.0226  0.1093
 6372TIP3    H140531   4.710   3.136  16.024  2.3380  1.0281  1.9814
 6372TIP3    H240532   4.577   3.202  16.053  0.6174 -0.5420 -1.9579
 6373TIP3   OH240533   0.892   6.252   3.131  0.4241 -0.2843 -0.4697
 6373TIP3    H140534   0.811   6.245   3.181  0.3389 -0.9719 -0.7120
 6373TIP3    H240535   0.916   6.345   3.139  0.8640 -0.5368  1.5670
 6374TIP3   OH240536   2.875   2.969  16.494 -0.2916 -0.9040 -0.6122
 6374TIP3    H140537   2.861   2.889  16.442  2.2009 -2.4875  1.0639
 6374TIP3    H240538   2.961   3.001  16.466 -0.2631 -0.0887  0.4038
 6375TIP3   OH240539   4.414   6.563   6.088 -0.0610 -0.0291 -0.2535
 6375TIP3    H140540   4.392   6.483   6.137 -1.5379 -0.0791 -0.9800
 6375TIP3    H240541   4.339   6.578   6.031  0.5409  1.4623 -0.6798
 6376TIP3   OH240542   0.914   3.740  15.335 -0.5990  0.0521 -0.1812
 6376TIP3    H140543   0.896   3.743  15.241  0.9978  2.0354 -0.4641
 6376TIP3    H240544   0.974   3.667  15.346 -0.5015  0.0440 -0.7421
 6377TIP3   OH240545   1.737   3.597   4.462 -0.3248 -0.7979  0.1724
 6377TIP3    H140546   1.779   3.653   4.396 -2.5278  0.1480 -0.5001
 6377TIP3    H240547   1.746   3.509   4.428  0.6347 -0.5646 -0.2078
 6378TIP3   OH240548   1.203   0.655  14.677 -0.0707  0.7112 -0.1568
 6378TIP3    H140549   1.228   0.619  14.762 -0.4486 -1.9663 -1.1557
 6378TIP3    H240550   1.115   0.621  14.661  0.3494  0.4780 -2.0392
 6379TIP3   OH240551   1.660   6.572  12.246  0.7628  0.7120  0.5887
 6379TIP3    H140552   1.722   6.550  12.175 -2.1733 -2.1297 -1.2318
 6379TIP3    H240553   1.687   6.516  12.319  3.3373  3.1082  1.5862
 6380TIP3   OH240554   5.642   3.113   0.718 -0.2670  0.0590 -0.3149
 6380TIP3    H140555   5.652   3.019   0.732  0.3871  0.4325  1.9917
 6380TIP3    H240556   5.712   3.136   0.657 -0.8524 -1.0536 -1.4198
 6381TIP3   OH240557   0.203   6.663  15.629 -0.2232  0.1138 -0.1846
 6381TIP3    H140558   0.143   6.731  15.599  0.5466 -0.2067 -2.5361
 6381TIP3    H240559   0.286   6.708  15.641 -0.2062 -0.0212  0.1950
 6382TIP3   OH240560   6.013   3.788   6.335 -0.3871  0.4846 -0.0536
 6382TIP3    H140561   5.983   3.794   6.426 -0.2791  0.1883  0.0013
 6382TIP3    H240562   6.005   3.877   6.302 -2.2496  0.2262 -0.3330
 6383TIP3   OH240563   2.967   0.298  16.514 -0.4364 -0.1265 -0.4193
 6383TIP3    H140564   2.969   0.203  16.529  0.4130  0.0916  0.9039
 6383TIP3    H240565   3.056   0.320  16.488 -0.6154  0.3218 -0.6501
 6384TIP3   OH240566   1.333   3.201  13.630 -0.1849  0.1333  0.2333
 6384TIP3    H140567   1.252   3.220  13.677 -1.0377 -2.2745 -0.1857
 6384TIP3    H240568   1.362   3.117  13.666  1.1970  0.1412 -0.8400
 6385TIP3   OH240569   5.137   0.715   3.541 -0.1257  0.1779 -0.3683
 6385TIP3    H140570   5.228   0.741   3.553 -0.3857  0.4909  0.9543
 6385TIP3    H240571   5.086   0.788   3.577 -0.8725 -1.1161  1.2417
 6386TIP3   OH240572   0.574   0.844   6.635 -0.1278  0.1985 -0.1861
 6386TIP3    H140573   0.500   0.786   6.615 -0.2938  0.5095 -0.4754
 6386TIP3    H240574   0.581   0.901   6.559  1.8014 -1.2463 -1.1213
 6387TIP3   OH240575   5.559   2.048  16.596 -0.4077 -0.4473  0.2328
 6387TIP3    H140576   5.560   1.969  16.649 -1.5536 -2.1875 -2.2295
 6387TIP3    H240577   5.613   2.111  16.644 -1.8000 -1.7638  3.6278
 6388TIP3   OH240578   4.262   6.140  14.778 -0.7879  0.4593  0.5705
 6388TIP3    H140579   4.356   6.152  14.762 -0.4214 -1.4329  1.2255
 6388TIP3    H240580   4.257   6.099  14.864 -2.1347 -0.8206 -0.0914
 6389TIP3   OH240581   1.546   2.533   0.233 -0.7136  0.7839  0.2379
 6389TIP3    H140582   1.491   2.591   0.179  1.5614  1.4298 -1.4435
 6389TIP3    H240583   1.631   2.533   0.189 -0.1841 -2.5256  1.1621
 6390TIP3   OH240584   1.879   6.462   3.796 -0.3645 -0.3921  0.2626
 6390TIP3    H140585   1.796   6.509   3.801 -0.1232  0.4033 -2.3422
 6390TIP3    H240586   1.871   6.407   3.718  1.5937 -0.1985 -0.0917
 6391TIP3   OH240587   1.477   0.436  14.384  0.1130  0.0797  0.0849
 6391TIP3    H140588   1.458   0.493  14.459 -1.0688 -0.0208 -0.1315
 6391TIP3    H240589   1.505   0.495  14.315  1.8071  0.1246  0.7773
 6392TIP3   OH240590   5.178   0.491  11.630  0.0684 -0.9985 -0.4933
 6392TIP3    H140591   5.215   0.503  11.542  0.5175 -1.2884 -0.3461
 6392TIP3    H240592   5.088   0.521  11.622  0.6752  0.9123 -0.5509
 6393TIP3   OH240593   5.232   1.242   4.883  0.3309 -0.1394  0.1870
 6393TIP3    H140594   5.157   1.211   4.833  1.4272 -0.3634 -1.3311
 6393TIP3    H240595   5.244   1.333   4.856  0.9343 -0.2650  0.0226
 6394TIP3   OH240596   4.786   5.938   6.536 -0.1271 -0.2883  0.2834
 6394TIP3    H140597   4.777   5.894   6.452  0.5027 -0.0795  0.1064
 6394TIP3    H240598   4.744   6.023   6.523 -0.4683 -0.4485  0.3297
 6395TIP3   OH240599   0.078   0.456  13.912  0.0387 -0.1107 -0.3055
 6395TIP3    H140600   0.033   0.442  13.829 -2.2250  0.2219  0.7921
 6395TIP3    H240601   0.125   0.539  13.901 -0.1673 -0.1248 -1.2987
 6396TIP3   OH240602   0.395   6.086  12.219  0.2195  0.4615 -0.2275
 6396TIP3    H140603   0.352   6.070  12.303  0.4530 -0.9456 -0.3650
 6396TIP3    H240604   0.336   6.146  12.173 -0.3908  0.4589  0.5478
 6397TIP3   OH240605   0.161   4.276  13.471  0.2863 -0.6846 -0.4268
 6397TIP3    H140606   0.218   4.211  13.512  2.0504 -0.3757 -2.2992
 6397TIP3    H240607   0.142   4.239  13.384  0.8765  1.0159 -1.3055
 6398TIP3   OH240608   0.159   1.461   0.135 -0.4548  0.1004  0.3973
 6398TIP3    H140609   0.164   1.534   0.073 -1.0670  1.5840  2.0369
 6398TIP3    H240610   0.217   1.394   0.098  1.6701  2.1724 -0.1788
 6399TIP3   OH240611   0.009   4.231   5.315 -0.4316  0.1384  0.7101
 6399TIP3    H140612   0.057   4.171   5.372  0.6630  0.8672  0.5766
 6399TIP3    H240613  -0.059   4.177   5.275  0.9259 -1.1581  0.0965
 6400TIP3   OH240614   4.525   6.199  12.168  0.1278 -0.1415  0.1281
 6400TIP3    H140615   4.602   6.143  12.159  0.9266  1.1781 -1.4407
 6400TIP3    H240616   4.493   6.211  12.079 -1.5893 -0.2496  0.7195
 6401TIP3   OH240617   6.199   3.798  16.159 -0.1931 -0.0524  0.5474
 6401TIP3    H140618   6.155   3.713  16.163 -1.6680  0.6939  0.4811
 6401TIP3    H240619   6.165   3.839  16.080  0.0472  0.8533  0.9038
 6402TIP3   OH240620   3.331   2.268   3.455  0.0664  0.1738 -0.0839
 6402TIP3    H140621   3.336   2.175   3.430  1.0054 -0.0386  0.8615
 6402TIP3    H240622   3.324   2.267   3.550 -2.1346  1.0276 -0.2233
 6403TIP3   OH240623   1.953   4.442   4.435 -0.1296 -0.3847  0.1618
 6403TIP3    H140624   1.942   4.347   4.426  0.0956 -0.4121  0.1634
 6403TIP3    H240625   1.864   4.475   4.451 -0.4134 -0.4431 -1.1709
 6404TIP3   OH240626   2.773   2.674  11.093 -0.3774 -0.1643 -0.2080
 6404TIP3    H140627   2.683   2.645  11.098 -0.5194  0.1051 -1.0259
 6404TIP3    H240628   2.777   2.725  11.012  0.1984  0.8998  0.4777
 6405TIP3   OH240629   6.781   0.460  13.658  0.4839 -0.0880  0.0667
 6405TIP3    H140630   6.818   0.532  13.607 -1.8116  1.4001  0.3774
 6405TIP3    H240631   6.821   0.381  13.623  1.5926  1.2071 -1.6175
 6406TIP3   OH240632   4.227   1.006   0.633 -0.6104 -0.0590  0.7076
 6406TIP3    H140633   4.149   1.031   0.584 -0.7710 -1.7805  0.0452
 6406TIP3    H240634   4.292   0.988   0.565  0.1309  0.5887  1.2343
 6407TIP3   OH240635   5.568   4.008  12.389 -0.5584  0.0228 -0.3100
 6407TIP3    H140636   5.646   4.031  12.338  0.5921 -1.1686  0.8278
 6407TIP3    H240637   5.509   3.967  12.326 -0.7296  1.8991 -1.4067
 6408TIP3   OH240638   2.945   1.578   4.033 -0.4524  0.4634 -0.1163
 6408TIP3    H140639   2.887   1.519   4.080  1.1986 -0.7212  0.4733
 6408TIP3    H240640   3.033   1.555   4.063  0.4911  0.8931 -2.4189
 6409TIP3   OH240641   5.268   1.902   2.710  0.7389 -0.0365 -0.2214
 6409TIP3    H140642   5.188   1.874   2.667  0.2384 -0.4081  0.9369
 6409TIP3    H240643   5.292   1.830   2.768  0.2257  1.2688  1.7027
 6410TIP3   OH240644   5.438   6.531  16.544  0.5419 -0.1788 -0.0267
 6410TIP3    H140645   5.422   6.624  16.527 -3.0328 -0.6492  0.3629
 6410TIP3    H240646   5.502   6.505  16.478  0.9395  2.3502 -0.6919
 6411TIP3   OH240647   3.998   4.845   4.774 -0.6115 -0.0685  0.3638
 6411TIP3    H140648   4.019   4.912   4.709 -2.3425 -1.7577 -2.0498
 6411TIP3    H240649   3.907   4.864   4.799 -1.4246 -1.9717 -1.0176
 6412TIP3   OH240650   3.975   5.409   6.612 -0.1423  0.0765  0.1229
 6412TIP3    H140651   3.894   5.404   6.561 -0.3066  0.3592  0.3535
 6412TIP3    H240652   4.014   5.492   6.585 -0.3480  0.3400  0.6355
 6413TIP3   OH240653   2.774   6.321   4.317 -0.1039  0.1088 -0.2611
 6413TIP3    H140654   2.765   6.383   4.245  0.3362  3.1259  2.1609
 6413TIP3    H240655   2.863   6.285   4.307  0.4803  1.5738 -0.4303
 6414TIP3   OH240656   2.064   6.603  13.852 -0.5346 -0.2519 -0.4011
 6414TIP3    H140657   2.101   6.544  13.787 -0.9660 -1.3934  0.3760
 6414TIP3    H240658   2.060   6.688  13.808  4.6612  0.3486  0.0424
 6415TIP3   OH240659   3.914   2.345  15.305  0.0600  0.0397  0.5406
 6415TIP3    H140660   3.897   2.251  15.303 -0.1516  0.0723 -2.5331
 6415TIP3    H240661   3.995   2.354  15.354  1.0007 -1.9489 -0.5608
 6416TIP3   OH240662   5.617   5.457  15.390 -0.1932 -0.0310 -0.0928
 6416TIP3    H140663   5.674   5.500  15.454 -1.4169 -1.3533  1.9242
 6416TIP3    H240664   5.626   5.364  15.408 -1.7951 -0.3301 -0.7858
 6417TIP3   OH240665   3.856   2.905  12.894 -0.0442  0.2515  0.0084
 6417TIP3    H140666   3.828   2.822  12.855  0.2219  1.3634 -2.6556
 6417TIP3    H240667   3.776   2.956  12.904  0.0684  0.5021 -0.3776
 6418TIP3   OH240668   3.111   2.747   3.316 -0.3561 -0.8164 -0.0271
 6418TIP3    H140669   3.102   2.656   3.345  1.4549 -0.4608  1.7495
 6418TIP3    H240670   3.188   2.746   3.259  0.8018 -0.0700  1.5001
 6419TIP3   OH240671   2.841   3.973  10.944  0.0753  0.2387 -0.1440
 6419TIP3    H140672   2.779   3.989  10.872  0.4058  1.3387 -0.1883
 6419TIP3    H240673   2.916   3.930  10.901 -0.3331 -0.4082 -0.2155
 6420TIP3   OH240674   3.984   2.713   4.649 -0.4510  0.1858 -0.3405
 6420TIP3    H140675   3.935   2.659   4.588  1.1799 -0.7960 -0.8071
 6420TIP3    H240676   3.937   2.796   4.651 -1.9079 -0.6029 -1.0465
 6421TIP3   OH240677   6.329   3.694   6.106 -0.1169 -0.5645 -0.1392
 6421TIP3    H140678   6.325   3.790   6.111 -1.1235 -0.5056 -1.6963
 6421TIP3    H240679   6.378   3.668   6.184 -2.1755  1.0400  1.7802
 6422TIP3   OH240680   3.963   2.490   0.224 -0.5758 -0.0424  0.1484
 6422TIP3    H140681   4.023   2.532   0.163 -0.4076  1.2851  1.2205
 6422TIP3    H240682   4.009   2.411   0.251 -0.3091 -0.2264 -0.8047
 6423TIP3   OH240683   2.434   3.704   1.649  0.2294 -0.4342  0.3071
 6423TIP3    H140684   2.499   3.774   1.640 -1.4934  0.9051 -2.9906
 6423TIP3    H240685   2.371   3.738   1.713  0.3874  0.2330  0.1120
 6424TIP3   OH240686   3.185   3.345  14.119  0.2750  0.1454  0.6162
 6424TIP3    H140687   3.113   3.329  14.180 -0.1143  0.1727  0.1695
 6424TIP3    H240688   3.192   3.264  14.068  0.0378  0.4290  0.1275
 6425TIP3   OH240689   3.098   4.155  13.322  0.0656 -0.1021  0.4760
 6425TIP3    H140690   3.177   4.206  13.304  0.2419 -0.0617  1.3829
 6425TIP3    H240691   3.033   4.219  13.350 -0.7947  0.0814 -1.8336
 6426TIP3   OH240692   4.014   6.675  11.360  0.1359  0.4115 -0.0556
 6426TIP3    H140693   4.021   6.650  11.268  1.5548 -0.0281  0.1537
 6426TIP3    H240694   4.005   6.592  11.407 -0.9920  0.6592  0.1782
 6427TIP3   OH240695   6.376   0.580   2.478  0.1039 -0.1348 -0.1067
 6427TIP3    H140696   6.382   0.488   2.454  0.7896  0.1849 -1.1999
 6427TIP3    H240697   6.408   0.627   2.401 -0.8584  1.0440  0.1899
 6428TIP3   OH240698   1.899   6.597   2.280 -0.2570 -0.5447 -0.0901
 6428TIP3    H140699   1.975   6.653   2.293 -0.6060 -0.4039  1.3845
 6428TIP3    H240700   1.927   6.532   2.216  0.4817  0.6739 -1.0396
 6429TIP3   OH240701   3.110   1.106  14.422  0.4464  0.1202 -0.1847
 6429TIP3    H140702   3.057   1.183  14.445  0.0765 -0.5204  1.1725
 6429TIP3    H240703   3.045   1.040  14.398  0.7107 -0.1912 -0.0342
 6430TIP3   OH240704   4.052   6.581  12.920  0.3336  0.2206  0.6103
 6430TIP3    H140705   4.012   6.494  12.910 -1.2201  0.7262  2.1378
 6430TIP3    H240706   4.146   6.564  12.922  0.2589 -1.0229 -2.8822
 6431TIP3   OH240707   1.947   3.976   1.673  0.0861 -0.0346 -0.0011
 6431TIP3    H140708   1.855   3.999   1.656  0.0007  0.0072  0.4954
 6431TIP3    H240709   1.952   3.968   1.769 -0.0146 -2.6759 -0.2007
 6432TIP3   OH240710   5.149   6.717   0.095 -0.1631  0.3925  0.5455
 6432TIP3    H140711   5.141   6.804   0.135  0.5892  0.9098 -0.3936
 6432TIP3    H240712   5.079   6.713   0.030 -0.0175  0.4046  0.3881
 6433TIP3   OH240713   3.365   2.988  12.453  0.1212 -0.2561 -0.0739
 6433TIP3    H140714   3.299   2.982  12.384  2.2719 -1.2659 -2.1114
 6433TIP3    H240715   3.321   2.953  12.531 -1.5836 -1.3949 -1.4993
 6434TIP3   OH240716   3.566   5.205  11.312  0.7047  0.0803  0.2011
 6434TIP3    H140717   3.553   5.295  11.281  0.5231 -0.1620 -0.4462
 6434TIP3    H240718   3.660   5.192  11.310  0.7697  0.4279  0.8007
 6435TIP3   OH240719   1.277   5.651  17.022  0.2858  0.3510 -0.4894
 6435TIP3    H140720   1.270   5.719  16.954  0.4876 -0.3138 -1.1816
 6435TIP3    H240721   1.357   5.675  17.070  0.6909  0.2721 -1.1110
 6436TIP3   OH240722   4.093   5.959   5.709  0.1923 -0.6585 -0.3382
 6436TIP3    H140723   4.141   5.975   5.628  0.7880  1.7649  0.4417
 6436TIP3    H240724   4.161   5.934   5.772  0.0540 -0.0887  0.0363
 6437TIP3   OH240725   4.961   2.774   5.017 -0.6068  0.4463  0.1867
 6437TIP3    H140726   4.929   2.697   5.065  1.3850  0.3336  1.3879
 6437TIP3    H240727   5.044   2.745   4.979 -1.1432  1.2071 -1.5693
 6438TIP3   OH240728   3.594   3.314   3.336  0.2792  0.0596 -0.8631
 6438TIP3    H140729   3.575   3.407   3.326 -0.5197  0.0586  0.4582
 6438TIP3    H240730   3.508   3.271   3.326  0.2888 -0.3446  0.5748
 6439TIP3   OH240731   5.837   6.481   2.321  0.3200 -0.1611 -0.4012
 6439TIP3    H140732   5.887   6.507   2.244 -0.8140 -0.7819 -1.3733
 6439TIP3    H240733   5.807   6.392   2.300 -3.8094  1.3143 -1.2208
 6440TIP3   OH240734   5.475   5.132  13.200  0.3417 -0.5587  0.4967
 6440TIP3    H140735   5.554   5.134  13.254  2.1623  1.3890 -2.1226
 6440TIP3    H240736   5.466   5.039  13.176  0.9007 -1.0451  2.0677
 6441TIP3   OH240737   5.848   0.041  15.406 -0.1573  0.2726 -0.4520
 6441TIP3    H140738   5.762   0.074  15.432  1.0282  1.7376  1.8310
 6441TIP3    H240739   5.878  -0.009  15.482  0.9798 -0.2559 -1.2393
 6442TIP3   OH240740   4.702   0.318  13.379  0.2378  0.3082 -0.9550
 6442TIP3    H140741   4.718   0.357  13.293  0.1074 -0.4393 -1.3134
 6442TIP3    H240742   4.639   0.377  13.420  1.2490  1.3672 -0.8753
 6443TIP3   OH240743   1.029   0.847   2.495  0.1518  0.3553 -0.1787
 6443TIP3    H140744   1.014   0.928   2.544  0.4971 -0.6310  1.6213
 6443TIP3    H240745   1.102   0.805   2.540 -0.3180 -1.1867 -0.8006
 6444TIP3   OH240746   0.271   0.553   5.295 -0.7649  0.1349 -0.1128
 6444TIP3    H140747   0.300   0.496   5.367  1.0073  1.0879 -0.0454
 6444TIP3    H240748   0.326   0.631   5.303 -2.9700  1.7788 -0.3590
 6445TIP3   OH240749   2.912   2.162  16.644  0.0633 -0.1362  0.1921
 6445TIP3    H140750   2.914   2.095  16.713  2.0193  1.0625  1.3558
 6445TIP3    H240751   2.924   2.245  16.691 -1.0859  0.9298 -1.3510
 6446TIP3   OH240752   6.452   2.967   2.512 -0.5420  0.4981  0.3193
 6446TIP3    H140753   6.498   3.043   2.477  0.2500  0.8716  2.1255
 6446TIP3    H240754   6.378   2.955   2.452 -0.8565  2.8783  0.1661
 6447TIP3   OH240755   2.308   2.450   3.434 -0.0583 -0.2096 -0.0440
 6447TIP3    H140756   2.271   2.374   3.389 -1.3542 -0.3048  1.1399
 6447TIP3    H240757   2.289   2.523   3.376 -0.9054 -0.4691 -0.1088
 6448TIP3   OH240758   4.318   6.001   6.937  0.5872  0.2891 -0.1604
 6448TIP3    H140759   4.239   5.974   6.890  0.6917 -0.6953  0.2092
 6448TIP3    H240760   4.344   6.083   6.895 -1.8490  1.7833  1.1064
 6449TIP3   OH240761   2.578   2.498   1.185 -0.2100  0.7745  0.2454
 6449TIP3    H140762   2.510   2.511   1.119 -0.7755 -0.4694  0.5865
 6449TIP3    H240763   2.568   2.408   1.214  3.0076 -0.1713 -1.3056
 6450TIP3   OH240764   0.144   3.081   3.015  0.3049  0.4571 -0.3603
 6450TIP3    H140765   0.201   3.010   2.984 -0.3518 -0.5785  0.7595
 6450TIP3    H240766   0.194   3.161   2.997  1.1972 -0.2937 -1.3356
 6451TIP3   OH240767   1.066   2.335   1.590 -0.2089 -0.6287  0.0690
 6451TIP3    H140768   1.073   2.367   1.679  0.4997  0.6055 -0.4244
 6451TIP3    H240769   1.018   2.252   1.598 -1.0835 -0.0011  1.4615
 6452TIP3   OH240770   4.960   4.148  17.159 -0.2733  0.0894  1.0732
 6452TIP3    H140771   4.951   4.243  17.152 -0.6645 -0.0188  0.0274
 6452TIP3    H240772   4.881   4.114  17.117 -0.5881 -0.6773  2.2810
 6453TIP3   OH240773   1.985   4.873  11.840 -0.9464 -0.3317  0.3556
 6453TIP3    H140774   1.969   4.967  11.847  1.4336  0.1930 -0.6414
 6453TIP3    H240775   1.978   4.855  11.746 -0.6800 -1.0245  0.4678
 6454TIP3   OH240776   0.379   4.334  12.526 -0.1780  0.3950  0.1945
 6454TIP3    H140777   0.415   4.291  12.603 -0.3709  1.1457  0.6993
 6454TIP3    H240778   0.378   4.427  12.547 -1.0925  0.5201 -0.3557
 6455TIP3   OH240779   2.405   5.336  13.755 -0.0968 -0.3858 -0.3081
 6455TIP3    H140780   2.426   5.322  13.847  1.2200  1.2240 -0.3450
 6455TIP3    H240781   2.310   5.334  13.752 -0.2463  1.7346  1.4710
 6456TIP3   OH240782   4.770   0.509  16.458  0.3314 -0.4154 -0.1317
 6456TIP3    H140783   4.782   0.534  16.367 -0.5062 -0.2239 -0.1954
 6456TIP3    H240784   4.740   0.589  16.502  0.0419 -0.6787  0.1607
 6457TIP3   OH240785   1.030   1.577  12.666 -0.2154  0.0054 -0.0408
 6457TIP3    H140786   0.971   1.543  12.598 -0.6074 -0.4255  0.5077
 6457TIP3    H240787   1.112   1.530  12.654 -0.0009  0.5671 -0.7773
 6458TIP3   OH240788   2.638   2.956  17.009 -0.2883  0.0963  0.1823
 6458TIP3    H140789   2.717   2.962  16.956 -0.0084 -0.5382  0.5248
 6458TIP3    H240790   2.618   3.047  17.032 -0.7789  0.4334 -1.5278
 6459TIP3   OH240791   5.904   4.372  12.893  0.2941 -0.3018  0.2617
 6459TIP3    H140792   5.915   4.312  12.966 -1.2120  0.0295  0.7846
 6459TIP3    H240793   5.852   4.324  12.829 -2.0199  0.8429  1.2258
 6460TIP3   OH240794   5.426   3.364  16.044  0.0260  0.1715 -0.0490
 6460TIP3    H140795   5.370   3.428  16.088 -2.8899  0.4635 -3.9634
 6460TIP3    H240796   5.493   3.417  16.000 -0.2638  0.2990 -0.3432
 6461TIP3   OH240797   1.052   4.000   5.372 -0.4520 -0.3845 -0.8972
 6461TIP3    H140798   1.086   3.968   5.289 -0.9218  0.2025 -1.3184
 6461TIP3    H240799   0.976   3.945   5.391  0.0658 -0.9751 -0.5038
 6462TIP3   OH240800   0.018   0.376   4.945  0.1372 -0.2314  0.3639
 6462TIP3    H140801   0.055   0.464   4.937  0.9175 -0.4354  1.5771
 6462TIP3    H240802  -0.054   0.386   5.007 -1.3005 -0.0188 -1.2802
 6463TIP3   OH240803   2.316   1.663  13.979  0.1218 -0.0285  0.1810
 6463TIP3    H140804   2.397   1.641  14.025  0.5836 -0.4540 -0.8169
 6463TIP3    H240805   2.318   1.608  13.900 -0.7267  0.5831 -0.2716
 6464TIP3   OH240806   3.439   2.331   0.008  0.1447  0.3930  0.2820
 6464TIP3    H140807   3.349   2.361   0.002 -0.5733 -1.6729  0.1885
 6464TIP3    H240808   3.434   2.249   0.058  1.8378 -0.2074 -0.4783
 6465TIP3   OH240809   4.914   3.984  13.012 -0.0154 -0.4054  1.1563
 6465TIP3    H140810   4.976   3.911  13.011  0.7604  0.2440  1.7205
 6465TIP3    H240811   4.966   4.060  13.039 -0.5327  0.6342 -0.6705
 6466TIP3   OH240812   1.728   4.135   2.167  0.0079 -0.1291 -0.5078
 6466TIP3    H140813   1.786   4.166   2.097  0.9792 -0.4663  0.1241
 6466TIP3    H240814   1.697   4.215   2.209  1.3585  0.0506  0.2018
 6467TIP3   OH240815   2.017   3.599   2.432  0.1052 -0.0778 -0.4835
 6467TIP3    H140816   2.052   3.562   2.513 -1.4192  1.3490  0.8659
 6467TIP3    H240817   2.093   3.631   2.385  1.2559 -3.0448 -0.7344
 6468TIP3   OH240818   5.726   2.894  16.523  0.0795  0.0894 -0.0258
 6468TIP3    H140819   5.635   2.872  16.501 -0.3526  1.8835 -0.1346
 6468TIP3    H240820   5.765   2.811  16.551 -1.2980 -0.8969 -0.9768
 6469TIP3   OH240821   2.203   3.982   2.677 -0.2472  0.1805 -0.2309
 6469TIP3    H140822   2.195   3.891   2.707 -1.2028  0.3223 -0.0336
 6469TIP3    H240823   2.133   4.028   2.723  1.2277  1.3423  0.8999
 6470TIP3   OH240824   1.211   0.174  11.346 -0.2945  0.1318 -0.4995
 6470TIP3    H140825   1.241   0.167  11.437  2.9184  1.7271 -1.3624
 6470TIP3    H240826   1.230   0.089  11.308 -0.8727 -0.2709  0.0986
 6471TIP3   OH240827   1.769   2.698  16.570  0.3093  0.1599  0.4048
 6471TIP3    H140828   1.753   2.603  16.566  1.5169  0.0071 -1.3906
 6471TIP3    H240829   1.831   2.709  16.641 -0.7298 -0.2516  1.3984
 6472TIP3   OH240830   1.294   3.911  12.688  0.2172  1.1999 -0.4238
 6472TIP3    H140831   1.300   3.988  12.745 -1.5474 -0.1756  1.6733
 6472TIP3    H240832   1.303   3.837  12.747 -2.1447 -0.2757 -1.8569
 6473TIP3   OH240833   6.509   1.408  15.030 -0.3461  0.4182 -0.3704
 6473TIP3    H140834   6.433   1.360  14.999  0.1693 -0.3584 -0.4516
 6473TIP3    H240835   6.541   1.357  15.105 -0.2209  1.0252 -0.0022
 6474TIP3   OH240836   4.262   0.456   3.048 -0.3428 -0.1034  0.0272
 6474TIP3    H140837   4.295   0.378   3.093  1.3188  0.2952 -0.4822
 6474TIP3    H240838   4.229   0.423   2.965  2.0275 -0.0556 -0.9742
 6475TIP3   OH240839   3.120   0.899  10.455 -0.2152 -0.0010 -0.0207
 6475TIP3    H140840   3.039   0.862  10.420 -0.3600 -1.3093  1.6463
 6475TIP3    H240841   3.092   0.975  10.507 -0.2527  0.2246 -0.3660
 6476TIP3   OH240842   1.858   4.904  12.247  0.0160 -0.2005 -0.1315
 6476TIP3    H140843   1.909   4.846  12.190  0.3701 -0.9224  0.9053
 6476TIP3    H240844   1.907   4.986  12.248 -0.1104 -0.1135 -1.0492
 6477TIP3   OH240845   6.047   3.253  11.558  0.4087  0.2501 -0.5574
 6477TIP3    H140846   6.014   3.293  11.477  0.4862 -0.9719 -1.1981
 6477TIP3    H240847   6.142   3.257  11.550  0.4499  1.7334  0.2891
 6478TIP3   OH240848   4.960   4.664   3.224  0.1471 -0.5009  0.5910
 6478TIP3    H140849   4.897   4.732   3.251 -1.9180 -2.7251  1.6082
 6478TIP3    H240850   4.971   4.610   3.303 -1.9500 -4.1096 -1.4672
 6479TIP3   OH240851   3.231   3.429  15.918 -0.1050 -0.6339 -0.3461
 6479TIP3    H140852   3.275   3.425  16.003 -1.4498 -1.4668  0.3404
 6479TIP3    H240853   3.257   3.513  15.881  1.1499 -0.6239  0.5372
 6480TIP3   OH240854   6.351   5.848  13.324 -0.4938 -0.0263  0.1272
 6480TIP3    H140855   6.356   5.794  13.245  1.7231 -0.4379  0.5178
 6480TIP3    H240856   6.350   5.786  13.396 -0.2787  0.4047  0.5063
 6481TIP3   OH240857   3.764   6.519  12.488  0.0292  0.2859 -0.5302
 6481TIP3    H140858   3.702   6.485  12.423  0.8026  1.2541 -1.8172
 6481TIP3    H240859   3.743   6.473  12.569 -0.0678 -1.9828 -1.8094
 6482TIP3   OH240860   4.778   1.354   1.373 -0.1502  0.6535  0.1990
 6482TIP3    H140861   4.693   1.333   1.333 -0.1738  1.8989 -0.4130
 6482TIP3    H240862   4.757   1.383   1.462 -0.2445 -0.3678  0.5168
 6483TIP3   OH240863   1.139   1.678  12.282  0.1431  0.3468 -0.4199
 6483TIP3    H140864   1.220   1.716  12.248 -0.3831 -0.5833 -2.7465
 6483TIP3    H240865   1.159   1.585  12.295 -0.9428 -0.1816 -2.3530
 6484TIP3   OH240866   6.706   4.009  13.993  0.0496 -0.4648 -0.3062
 6484TIP3    H140867   6.749   3.978  13.914  1.1890 -1.0948  0.5547
 6484TIP3    H240868   6.663   4.090  13.967 -0.4186 -1.1893 -1.8169
 6485TIP3   OH240869   1.486   6.460   3.450 -0.5064  0.0615 -0.1271
 6485TIP3    H140870   1.401   6.417   3.454  0.4286 -2.0210 -1.7539
 6485TIP3    H240871   1.535   6.411   3.384  1.2463  2.5127 -0.7022
 6486TIP3   OH240872   5.049   2.174  14.855  0.8755 -0.6870 -0.4996
 6486TIP3    H140873   5.143   2.169  14.873  0.7158  1.8359  1.3181
 6486TIP3    H240874   5.008   2.125  14.926  0.7322 -0.1093 -0.1829
 6487TIP3   OH240875   6.242   1.895   2.651 -0.3747  0.1158 -0.1945
 6487TIP3    H140876   6.299   1.847   2.591  1.2621  0.5551  0.9926
 6487TIP3    H240877   6.261   1.987   2.634  0.0233  0.2476  0.9219
 6488TIP3   OH240878   1.895   0.610  12.315 -0.5624 -0.6426 -0.1582
 6488TIP3    H140879   1.836   0.534  12.313 -2.1423  0.4419  2.2323
 6488TIP3    H240880   1.952   0.594  12.390  0.2505 -0.2623 -0.6885
 6489TIP3   OH240881   4.402   3.480  14.058  0.4832 -0.0548 -0.5918
 6489TIP3    H140882   4.383   3.505  13.968 -0.0406 -1.7443 -0.9636
 6489TIP3    H240883   4.389   3.561  14.108  2.7119  1.3896 -2.2696
 6490TIP3   OH240884   6.174   3.479   3.441  0.3456  0.1883  0.2796
 6490TIP3    H140885   6.181   3.426   3.362 -0.0798 -0.5263  0.7163
 6490TIP3    H240886   6.084   3.511   3.441  0.1603 -0.3079  0.7754
 6491TIP3   OH240887   2.684   6.545   2.352 -0.2423 -0.4503  0.5994
 6491TIP3    H140888   2.664   6.455   2.379  1.1083 -0.5682  1.2204
 6491TIP3    H240889   2.750   6.535   2.283 -1.4069 -0.0092 -0.5925
 6492TIP3   OH240890   2.940   2.642   1.375  0.1869 -0.8498 -0.3319
 6492TIP3    H140891   2.968   2.689   1.454  1.2041  0.1708 -1.2808
 6492TIP3    H240892   2.849   2.616   1.394  0.8456 -1.8077  1.7029
 6493TIP3   OH240893   1.289   0.832  16.499 -0.6022 -0.1376  0.1428
 6493TIP3    H140894   1.199   0.810  16.521  0.0784 -1.3203  1.9362
 6493TIP3    H240895   1.341   0.782  16.562  1.3176  0.1438 -1.1824
 6494TIP3   OH240896   1.425   3.572   1.771  0.2684 -0.0851  0.0748
 6494TIP3    H140897   1.371   3.496   1.794 -1.5550  1.3260  0.6001
 6494TIP3    H240898   1.502   3.565   1.827 -1.5120  0.3023  2.6561
 6495TIP3   OH240899   0.020   5.386   3.313 -0.4594  0.1141 -0.5235
 6495TIP3    H140900  -0.069   5.383   3.349 -0.4437 -0.6906 -0.5549
 6495TIP3    H240901   0.032   5.478   3.287 -1.9802 -0.1630 -2.2588
 6496TIP3   OH240902   5.839   3.188   3.017 -0.2182 -0.6145 -0.2305
 6496TIP3    H140903   5.873   3.136   2.944 -0.2553 -0.7208 -0.1729
 6496TIP3    H240904   5.750   3.211   2.990  0.2981  0.6348 -0.8820
 6497TIP3   OH240905   3.824   1.239   3.563  0.3546 -0.7030  0.1315
 6497TIP3    H140906   3.749   1.183   3.586 -0.0908 -0.6258 -1.0815
 6497TIP3    H240907   3.784   1.318   3.528  0.9940  0.1758  1.3439
 6498TIP3   OH240908   5.515   0.036   4.970 -0.2401 -0.7370  0.4782
 6498TIP3    H140909   5.565  -0.018   5.030 -0.9764 -0.9957  0.8656
 6498TIP3    H240910   5.529   0.126   5.000  0.7087 -0.7329  0.0395
 6499TIP3   OH240911   4.685   2.736   1.693 -0.3168  0.3701 -0.2978
 6499TIP3    H140912   4.606   2.686   1.672  0.3292 -0.5267 -0.6182
 6499TIP3    H240913   4.728   2.684   1.761 -0.3119  1.1787  0.3314
 6500TIP3   OH240914   0.052   1.079  12.121 -0.3125  0.0125 -0.6654
 6500TIP3    H140915  -0.036   1.051  12.094 -1.2714  2.1541  0.0877
 6500TIP3    H240916   0.096   1.100  12.039 -2.1818  3.5377 -0.8988
 6501TIP3   OH240917   0.495   0.937   0.671  0.7616 -0.4943  0.1252
 6501TIP3    H140918   0.542   1.009   0.713  1.7106  0.1641 -1.9763
 6501TIP3    H240919   0.419   0.922   0.726  0.7400  1.9068  0.7882
 6502TIP3   OH240920   1.538   2.415   1.067 -0.2966 -0.1540  0.1106
 6502TIP3    H140921   1.614   2.421   1.125 -0.4604  1.2153  0.2047
 6502TIP3    H240922   1.470   2.466   1.111 -0.3285  1.1921 -1.4001
 6503TIP3   OH240923   4.263   2.052  14.410 -0.5638 -0.2883  0.3860
 6503TIP3    H140924   4.217   2.088  14.334 -0.1389 -0.2890  0.1323
 6503TIP3    H240925   4.211   1.975  14.435 -2.7853  1.7386  2.3200
 6504TIP3   OH240926   4.747   3.300  16.329  0.6239  0.3193 -0.1924
 6504TIP3    H140927   4.755   3.244  16.252 -1.0178  0.2505 -0.3234
 6504TIP3    H240928   4.654   3.320  16.335  0.7265  0.2971  1.7916
 6505TIP3   OH240929   0.301   5.559   4.241 -0.8022 -0.1883  0.1438
 6505TIP3    H140930   0.212   5.587   4.261 -0.2277  0.3517  2.0045
 6505TIP3    H240931   0.345   5.554   4.326  1.5897  1.7450 -0.9002
 6506TIP3   OH240932   3.283   2.903   4.054  0.3203 -0.3737  0.3746
 6506TIP3    H140933   3.254   2.831   3.997  2.0035  1.0621 -2.4016
 6506TIP3    H240934   3.253   2.878   4.142 -2.7516 -2.4517 -1.1832
 6507TIP3   OH240935   1.087   0.628  11.405 -0.0368  0.0984  0.2075
 6507TIP3    H140936   1.104   0.557  11.343  1.3958 -0.0994  0.7961
 6507TIP3    H240937   1.001   0.661  11.381  0.2586 -0.3441 -1.5281
 6508TIP3   OH240938   1.171   3.146  14.639  0.0004 -0.1637  0.1904
 6508TIP3    H140939   1.165   3.228  14.591 -0.2894 -1.0420 -1.3019
 6508TIP3    H240940   1.081   3.114  14.644  0.0924 -0.3316  0.8948
 6509TIP3   OH240941   1.271   6.150   6.301 -0.6442  0.6847 -0.5985
 6509TIP3    H140942   1.229   6.066   6.287 -0.6257  0.6152 -0.2641
 6509TIP3    H240943   1.199   6.212   6.313 -0.6542  0.4926  0.3834
 6510TIP3   OH240944   6.634   4.799   5.690  0.5677  0.8312 -0.0831
 6510TIP3    H140945   6.710   4.812   5.633  1.0838 -0.3132  0.3337
 6510TIP3    H240946   6.559   4.811   5.632  1.0719  1.3614 -0.6334
 6511TIP3   OH240947   4.325   4.537   3.847 -0.3038 -0.6343  0.1493
 6511TIP3    H140948   4.416   4.541   3.875 -0.2572  0.8178 -0.1862
 6511TIP3    H240949   4.277   4.578   3.919 -0.3587  1.5168 -1.0579
 6512TIP3   OH240950   6.211   4.631   0.223 -0.3534  0.4181 -0.0623
 6512TIP3    H140951   6.242   4.676   0.302 -1.7991 -0.2867  0.9430
 6512TIP3    H240952   6.254   4.545   0.227 -1.6968 -0.2267  0.8529
 6513TIP3   OH240953   2.349   6.721  14.676  0.3764  0.0633 -0.0088
 6513TIP3    H140954   2.288   6.790  14.703 -1.5448 -1.6371  0.1319
 6513TIP3    H240955   2.397   6.759  14.603 -1.0306  1.3775 -0.2827
 6514TIP3   OH240956   2.893   5.232   3.125 -0.3951 -0.4809  0.0659
 6514TIP3    H140957   2.953   5.217   3.197 -0.7660 -0.9063  0.2889
 6514TIP3    H240958   2.813   5.184   3.149 -1.4734  1.5068  0.6062
 6515TIP3   OH240959   5.439   5.958  11.107 -0.1346 -0.4157 -0.3697
 6515TIP3    H140960   5.435   6.053  11.118  1.8170 -0.5765  2.3089
 6515TIP3    H240961   5.386   5.922  11.179  1.1500 -1.3469  0.1524
 6516TIP3   OH240962   1.530   5.249   5.103  0.1781  0.2697 -0.0858
 6516TIP3    H140963   1.436   5.266   5.115  0.1576 -1.2550  2.2843
 6516TIP3    H240964   1.534   5.179   5.039 -0.3679 -0.4398  0.6435
 6517TIP3   OH240965   0.655   6.100  12.855 -0.0060 -0.5292  0.1318
 6517TIP3    H140966   0.707   6.039  12.906 -0.6077  0.1579  1.5934
 6517TIP3    H240967   0.629   6.168  12.917  0.4722  1.1169 -1.3878
 6518TIP3   OH240968   4.290   4.384  11.303  0.4299 -0.0976 -0.9089
 6518TIP3    H140969   4.252   4.335  11.375  0.2531  0.1903 -0.8052
 6518TIP3    H240970   4.368   4.425  11.339  1.3625 -1.4144 -1.3520
 6519TIP3   OH240971   5.370   2.819   0.244 -0.2761  0.6692  0.1353
 6519TIP3    H140972   5.329   2.843   0.161 -0.1229  1.1480  0.1931
 6519TIP3    H240973   5.389   2.726   0.235  0.6614  0.9318 -0.7791
 6520TIP3   OH240974   3.300   2.144   2.316  0.3591 -0.2917  0.1002
 6520TIP3    H140975   3.315   2.221   2.371 -0.0329  0.1095 -0.3609
 6520TIP3    H240976   3.388   2.118   2.288  0.5233 -0.2218  0.5306
 6521TIP3   OH240977   2.553   2.182   2.710 -0.0055 -0.1719  0.2916
 6521TIP3    H140978   2.471   2.176   2.661 -1.7313  3.4132  2.5413
 6521TIP3    H240979   2.540   2.122   2.784  0.8945 -2.3116 -1.2297
 6522TIP3   OH240980   5.913   4.483  11.866 -0.4980 -0.3590 -0.9875
 6522TIP3    H140981   5.967   4.475  11.788 -1.6234  0.1879 -1.8249
 6522TIP3    H240982   5.824   4.492  11.834 -1.4415 -3.8709  0.4334
 6523TIP3   OH240983   2.387   4.752   4.397 -0.3356 -0.3834  0.2730
 6523TIP3    H140984   2.306   4.727   4.353 -0.5771  1.1921 -0.2085
 6523TIP3    H240985   2.438   4.671   4.402 -1.4929 -1.1618 -0.3668
 6524TIP3   OH240986   4.215   5.634   2.860 -0.1802 -0.3812  0.4881
 6524TIP3    H140987   4.307   5.639   2.886 -0.4710 -1.1489  1.6985
 6524TIP3    H240988   4.194   5.722   2.828  2.2233 -1.3762 -4.1978
 6525TIP3   OH240989   4.339   0.683   4.173  0.2123  0.6217  0.0560
 6525TIP3    H140990   4.356   0.732   4.093 -0.0722 -1.4627 -1.3237
 6525TIP3    H240991   4.243   0.680   4.179  0.1718 -1.9394 -1.2892
 6526TIP3   OH240992   4.430   4.716   0.467 -0.0612 -0.3072  0.2657
 6526TIP3    H140993   4.517   4.749   0.443 -1.4469  2.3959 -1.3326
 6526TIP3    H240994   4.384   4.793   0.503 -2.4875 -1.1560 -0.8916
 6527TIP3   OH240995   0.808   3.030  13.428  0.1008  0.2505  0.5604
 6527TIP3    H140996   0.851   3.077  13.357 -0.3049 -0.9739 -0.5175
 6527TIP3    H240997   0.765   3.098  13.480  2.5645  1.4178  1.1560
 6528TIP3   OH240998   3.300   1.255  14.674  0.5978  0.0111 -0.5816
 6528TIP3    H140999   3.296   1.343  14.636 -0.5705  0.8017  1.3233
 6528TIP3    H241000   3.307   1.197  14.598 -0.7356  1.6129 -1.9653
 6529TIP3   OH241001   6.224   2.340   0.179 -0.1900  0.2904  0.4895
 6529TIP3    H141002   6.313   2.305   0.177 -0.5464 -0.7187  1.6178
 6529TIP3    H241003   6.228   2.411   0.243 -0.1489  0.3829  0.3842
 6530TIP3   OH241004   0.529   0.155   0.840  0.1665  0.4894  0.3049
 6530TIP3    H141005   0.503   0.154   0.932 -0.6705  0.5807  0.0717
 6530TIP3    H241006   0.552   0.246   0.822 -0.5358  0.6501  0.1908
 6531TIP3   OH241007   0.325   2.263  14.313  0.0047 -0.2042 -0.8030
 6531TIP3    H141008   0.233   2.288  14.320  0.2076  0.2580  0.3223
 6531TIP3    H241009   0.359   2.314  14.239 -0.8459 -1.0078 -1.7500
 6532TIP3   OH241010   5.588   2.453   3.691 -0.5624 -0.4675  0.1245
 6532TIP3    H141011   5.629   2.489   3.770  0.2002  0.5168 -0.7015
 6532TIP3    H241012   5.562   2.530   3.641  3.0157 -0.9578 -2.6837
 6533TIP3   OH241013   2.906   2.784  12.109 -0.5528  0.8230 -0.1644
 6533TIP3    H141014   2.873   2.843  12.041 -0.1697  0.8261 -0.3449
 6533TIP3    H241015   2.944   2.711  12.061 -2.4207 -0.3323  0.0838
 6534TIP3   OH241016   5.426   0.249   4.224 -0.7967 -0.2491 -0.6490
 6534TIP3    H141017   5.412   0.154   4.234  0.8600 -0.2227  2.3209
 6534TIP3    H241018   5.521   0.259   4.216 -0.8859  1.2414 -0.0105
 6535TIP3   OH241019   0.866   3.873   5.089  0.3234  0.2791 -0.4992
 6535TIP3    H141020   0.864   3.963   5.120 -0.3640 -0.0990  0.5799
 6535TIP3    H241021   0.909   3.824   5.159  0.4958 -0.2696 -0.9824
 6536TIP3   OH241022   0.681   4.494  10.998  0.4418  0.0526  0.0061
 6536TIP3    H141023   0.667   4.413  10.948  0.0622 -0.8220  1.4769
 6536TIP3    H241024   0.748   4.541  10.949  0.1824 -0.8422 -1.2418
 6537TIP3   OH241025   0.484   0.076  12.026 -0.3831  0.1335  0.0082
 6537TIP3    H141026   0.447   0.052  11.941 -1.8481  1.6699  0.1711
 6537TIP3    H241027   0.578   0.068  12.015 -0.6237 -0.9119 -1.3748
 6538TIP3   OH241028   3.863   3.701  13.393  0.0717 -0.4541  0.6331
 6538TIP3    H141029   3.814   3.778  13.421 -0.5579 -0.9184  0.8272
 6538TIP3    H241030   3.943   3.736  13.355 -1.6383  0.4967 -2.2477
 6539TIP3   OH241031   1.083   1.403   0.603  0.4182 -0.0907  0.1125
 6539TIP3    H141032   1.076   1.347   0.681 -1.2933 -0.5056 -0.3381
 6539TIP3    H241033   1.005   1.457   0.605 -0.7889 -1.6594 -2.5406
 6540TIP3   OH241034   3.669   5.130  16.029  0.3151  0.3595 -0.1643
 6540TIP3    H141035   3.650   5.037  16.042  1.7705  0.2192  1.1001
 6540TIP3    H241036   3.626   5.152  15.946 -0.1850 -1.3950 -0.3863
 6541TIP3   OH241037   3.180   3.447   0.308  0.4708  0.2751 -0.0729
 6541TIP3    H141038   3.152   3.536   0.333 -0.5686 -0.5385  1.7494
 6541TIP3    H241039   3.118   3.421   0.240 -0.7958 -0.0035  1.1717
 6542TIP3   OH241040   1.768   0.871  14.851 -0.3876  0.0960  0.0161
 6542TIP3    H141041   1.851   0.888  14.806 -0.6316  0.8700 -0.1384
 6542TIP3    H241042   1.792   0.815  14.925  0.5908  2.1046  1.2408
 6543TIP3   OH241043   0.527   0.663  16.741  0.0870  0.0190 -0.6769
 6543TIP3    H141044   0.545   0.571  16.722  1.4269 -0.3164  2.0384
 6543TIP3    H241045   0.437   0.665  16.773  0.5758 -0.5765  0.7398
 6544TIP3   OH241046   4.484   2.222  13.770  0.0089  0.4199 -0.2992
 6544TIP3    H141047   4.505   2.185  13.684  0.6973 -0.4130  0.2033
 6544TIP3    H241048   4.393   2.251  13.764 -0.3123 -0.7090 -0.9509
 6545TIP3   OH241049   1.230   3.863   3.998 -0.1729 -0.0477 -0.2408
 6545TIP3    H141050   1.219   3.894   3.908 -3.0379 -1.2970 -0.3870
 6545TIP3    H241051   1.205   3.938   4.052  1.7201  0.7618 -0.4656
 6546TIP3   OH241052   1.979   2.688  17.114 -0.8674 -0.5594  0.4144
 6546TIP3    H141053   2.048   2.683  17.049 -1.9751  0.5082 -0.8724
 6546TIP3    H241054   2.018   2.739  17.186  0.0848 -1.0235  0.2351
 6547TIP3   OH241055   6.211   4.712  16.955  0.6305  0.5985  0.1948
 6547TIP3    H141056   6.143   4.740  16.893 -0.3774 -1.1077  0.4854
 6547TIP3    H241057   6.252   4.793  16.984 -0.9897  1.6305 -0.3265
 6548TIP3   OH241058   2.954   2.642   5.701 -0.3969  0.4066  0.2041
 6548TIP3    H141059   2.880   2.696   5.728 -0.5529  1.4712 -2.2416
 6548TIP3    H241060   2.946   2.636   5.606 -0.7834 -4.5087  0.3753
 6549TIP3   OH241061   4.190   0.233   3.253 -0.8877 -0.3301 -0.0178
 6549TIP3    H141062   4.121   0.181   3.294 -0.0191  0.2161  2.2233
 6549TIP3    H241063   4.177   0.321   3.287 -0.6459  0.3479 -1.6151
 6550TIP3   OH241064   3.098   0.988  11.145 -0.7926 -0.5663  0.0225
 6550TIP3    H141065   3.073   0.952  11.230 -0.9336  0.0664  0.2457
 6550TIP3    H241066   3.194   0.983  11.144 -0.7517  0.1309  0.5253
 6551TIP3   OH241067   5.515   5.721  12.479  0.5866  0.0925  0.4092
 6551TIP3    H141068   5.483   5.778  12.550  1.7341 -0.7893  1.6465
 6551TIP3    H241069   5.541   5.782  12.410  0.5823  1.0215  1.2104
 6552TIP3   OH241070   4.337   2.350  16.236 -0.1037  0.3735 -0.0255
 6552TIP3    H141071   4.294   2.265  16.239  1.4040 -0.3920  0.1617
 6552TIP3    H241072   4.276   2.409  16.281 -1.2221 -0.5568 -0.2927
 6553TIP3   OH241073   3.108   1.840  14.000  0.0680  0.0976 -0.6814
 6553TIP3    H141074   3.082   1.924  14.037 -0.6851  0.2142 -1.4582
 6553TIP3    H241075   3.105   1.853  13.906  3.2672  0.1896 -0.7970
 6554TIP3   OH241076   5.673   4.859  11.355 -0.1544 -0.1090  0.1043
 6554TIP3    H141077   5.630   4.945  11.349  0.2706  0.1838  1.2210
 6554TIP3    H241078   5.602   4.799  11.377 -0.2370  0.1508  0.5541
 6555TIP3   OH241079   2.192   4.536  11.976  0.8072 -0.2348 -0.2786
 6555TIP3    H141080   2.247   4.614  11.984 -0.4067  0.5340  0.8744
 6555TIP3    H241081   2.204   4.507  11.886  2.9194  0.0317 -0.1006
 6556TIP3   OH241082   2.194   3.571  12.321 -0.0746  0.0272 -0.1195
 6556TIP3    H141083   2.243   3.493  12.348 -1.0769 -0.0708  1.4945
 6556TIP3    H241084   2.177   3.618  12.403 -2.4991  0.1363 -0.6415
 6557TIP3   OH241085   0.737   1.008   4.928  0.4228 -0.5916  0.3304
 6557TIP3    H141086   0.759   1.036   4.838 -2.3292 -1.0930 -0.5273
 6557TIP3    H241087   0.642   1.003   4.929  0.5740 -4.3488  2.1822
 6558TIP3   OH241088   2.830   5.613   5.001 -0.1684  0.0991 -0.1001
 6558TIP3    H141089   2.807   5.703   4.977  1.1150  0.9727  1.8182
 6558TIP3    H241090   2.871   5.578   4.921 -0.0458  1.4509 -0.6576
 6559TIP3   OH241091   3.005   4.897   3.959  0.1977  0.3376  0.1576
 6559TIP3    H141092   3.100   4.893   3.974  0.1154  1.0579  0.8759
 6559TIP3    H241093   2.973   4.812   3.988  0.6730 -0.0574 -0.4556
 6560TIP3   OH241094   3.745   6.050  16.113 -0.1936  0.2458 -0.2651
 6560TIP3    H141095   3.741   6.031  16.019  1.8509  0.6377 -0.4551
 6560TIP3    H241096   3.727   5.967  16.156  0.9864 -0.4233 -1.0337
 6561TIP3   OH241097   0.030   2.534   1.509  0.4107  0.4924 -0.1675
 6561TIP3    H141098   0.041   2.569   1.598  1.8161  2.7353 -1.1839
 6561TIP3    H241099  -0.046   2.476   1.516  0.9621 -0.0139  2.6750
 6562TIP3   OH241100   4.905   6.568  14.787 -0.3610 -0.6627  0.5757
 6562TIP3    H141101   4.873   6.649  14.748  0.7393 -0.3741  0.2342
 6562TIP3    H241102   4.916   6.589  14.879  0.5907 -0.1969  0.3646
 6563TIP3   OH241103   4.332   4.418  15.967 -0.7667  0.1224 -0.1477
 6563TIP3    H141104   4.288   4.468  15.898  0.7210  2.3740  0.4795
 6563TIP3    H241105   4.415   4.391  15.928 -0.9286 -0.6341  0.0148
 6564TIP3   OH241106   3.121   3.725  15.067  0.2635  0.0861 -0.6494
 6564TIP3    H141107   3.135   3.669  14.991 -2.3839  0.1750 -1.2546
 6564TIP3    H241108   3.181   3.691  15.133 -1.0621 -3.3035 -1.0891
 6565TIP3   OH241109   4.850   6.421   1.470  0.5797  0.0057 -0.6644
 6565TIP3    H141110   4.758   6.399   1.454  0.8421 -0.5673 -1.3659
 6565TIP3    H241111   4.848   6.515   1.492  0.0561  0.4711 -2.6334
 6566TIP3   OH241112   2.918   0.619   4.833  0.0482 -0.0459  0.2346
 6566TIP3    H141113   2.884   0.682   4.896  0.2662  0.2613  0.0468
 6566TIP3    H241114   2.847   0.608   4.769  0.6263  1.2825 -0.6591
 6567TIP3   OH241115   6.089   2.425   4.064 -0.6972  0.3811  0.0515
 6567TIP3    H141116   6.035   2.477   4.004 -2.6413 -0.4864  1.0235
 6567TIP3    H241117   6.034   2.412   4.141  0.5738 -1.2965  0.7003
 6568TIP3   OH241118   6.031   5.858   1.942 -0.2118 -0.3349  0.1480
 6568TIP3    H141119   6.052   5.770   1.975 -1.1113 -0.9409 -0.8844
 6568TIP3    H241120   6.010   5.844   1.850 -4.2785  0.3989  0.9159
 6569TIP3   OH241121   1.801   2.054  16.789 -0.4524 -0.0574  0.3882
 6569TIP3    H141122   1.789   2.085  16.879 -0.3017 -0.0074  0.3902
 6569TIP3    H241123   1.889   2.082  16.766 -1.1254  1.4383 -0.3951
 6570TIP3   OH241124   1.254   2.101   1.907  0.6980  0.3460 -0.2981
 6570TIP3    H141125   1.272   2.007   1.904  1.7408  0.5204  0.1205
 6570TIP3    H241126   1.334   2.142   1.874 -0.2323  1.0423 -1.7071
 6571TIP3   OH241127   4.081   1.657   3.101 -0.1716 -0.5745  0.0709
 6571TIP3    H141128   4.097   1.586   3.040  0.7958 -0.4556  0.1710
 6571TIP3    H241129   4.056   1.614   3.183 -2.1658 -0.7152 -0.5808
 6572TIP3   OH241130   3.776   2.494  17.091 -0.8910 -0.2710 -0.1518
 6572TIP3    H141131   3.732   2.579  17.089  0.0790  0.3308  2.2008
 6572TIP3    H241132   3.864   2.513  17.124 -0.7155 -2.2162  0.5634
 6573TIP3   OH241133   1.538   2.404   2.200  0.0797  0.1445 -0.5430
 6573TIP3    H141134   1.609   2.396   2.137  0.4485 -0.7554 -0.0070
 6573TIP3    H241135   1.537   2.497   2.223  1.1142  0.1477 -0.5076
 6574TIP3   OH241136   4.802   2.621   2.799  0.5804  0.0467 -0.1062
 6574TIP3    H141137   4.871   2.614   2.732  0.1678 -0.3965 -0.4870
 6574TIP3    H241138   4.721   2.620   2.749  0.3129  1.7625  0.2442
 6575TIP3   OH241139   4.047   0.696   6.632  0.4614 -0.1748  0.0476
 6575TIP3    H141140   4.025   0.638   6.559 -0.1260 -0.3381  0.3561
 6575TIP3    H241141   3.982   0.676   6.699  0.2583  0.8281  0.1554
 6576TIP3   OH241142   3.118   3.734   5.216  0.2018  0.1817 -0.3939
 6576TIP3    H141143   3.092   3.740   5.124  1.9626 -0.5023 -0.9492
 6576TIP3    H241144   3.128   3.640   5.233  1.1688  0.3642  0.1205
 6577TIP3   OH241145   6.740   6.198  11.757 -0.2255 -0.2984 -0.1784
 6577TIP3    H141146   6.654   6.233  11.730  1.0282  3.2035  0.1532
 6577TIP3    H241147   6.782   6.174  11.674 -0.3207  0.9225 -0.5934
 6578TIP3   OH241148   3.169   0.749  12.061  0.1129  0.1402  0.2375
 6578TIP3    H141149   3.235   0.750  11.992  0.2963 -1.8531  0.3449
 6578TIP3    H241150   3.114   0.825  12.043  1.4950  0.9125 -0.7786
 6579TIP3   OH241151   4.462   2.705   0.530  0.1113  0.3965 -0.4100
 6579TIP3    H141152   4.397   2.696   0.459 -0.8047  0.4414  0.4109
 6579TIP3    H241153   4.533   2.645   0.505 -1.0719 -1.0468 -0.4083
 6580TIP3   OH241154   4.048   5.069  16.138 -0.2659 -0.1017 -0.8801
 6580TIP3    H141155   4.023   5.000  16.077 -0.5964 -1.4870  0.7929
 6580TIP3    H241156   3.972   5.127  16.142 -0.5556 -0.4665 -1.1316
 6581TIP3   OH241157   2.724   2.531  10.783 -0.1075 -0.0985 -0.0067
 6581TIP3    H141158   2.656   2.473  10.817  0.4911 -1.0876 -0.4678
 6581TIP3    H241159   2.693   2.557  10.697  1.5092 -3.1048 -1.5962
 6582TIP3   OH241160   3.406   1.914  15.641  0.2399  0.1134 -0.7028
 6582TIP3    H141161   3.371   2.002  15.655  1.6502  0.5198  0.3671
 6582TIP3    H241162   3.405   1.874  15.728  2.6518  0.2322 -0.6007
 6583TIP3   OH241163   4.712   3.562   1.406 -0.4012  0.0748  0.3824
 6583TIP3    H141164   4.739   3.493   1.344 -0.8012 -0.0153  0.3105
 6583TIP3    H241165   4.617   3.563   1.401 -0.3705  0.9895  0.0078
 6584TIP3   OH241166   6.670   2.240  16.875 -0.4092 -0.1009 -0.1054
 6584TIP3    H141167   6.760   2.255  16.905  0.2900  0.0577 -2.2077
 6584TIP3    H241168   6.656   2.146  16.886  0.4143 -0.3083 -0.7851
 6585TIP3   OH241169   6.409   6.223  16.858  0.5422 -0.2747 -0.5129
 6585TIP3    H141170   6.458   6.158  16.806 -1.0523 -0.3631 -1.9714
 6585TIP3    H241171   6.459   6.232  16.939  0.9860 -3.0934 -0.4233
 6586TIP3   OH241172   2.632   0.493  16.611  0.6458  0.1451 -0.0554
 6586TIP3    H141173   2.656   0.561  16.673  2.6943 -0.1158 -0.5447
 6586TIP3    H241174   2.682   0.513  16.532 -0.8037 -0.3706 -1.1429
 6587TIP3   OH241175   3.322   1.161  13.183 -0.4371 -0.2506  0.5564
 6587TIP3    H141176   3.399   1.174  13.239 -0.0339 -0.4172  0.0569
 6587TIP3    H241177   3.359   1.149  13.095 -1.1324  1.9180 -0.0675
 6588TIP3   OH241178   6.279   3.020  14.201  0.2301  0.3765 -0.5134
 6588TIP3    H141179   6.221   2.997  14.274  2.0034  2.1595  1.5515
 6588TIP3    H241180   6.362   2.977  14.222  0.6855  0.6859 -1.6402
 6589TIP3   OH241181   3.597   5.145   2.608  0.4109 -0.4223 -0.4100
 6589TIP3    H141182   3.628   5.075   2.665 -0.5812 -1.7644 -1.4866
 6589TIP3    H241183   3.666   5.155   2.542  1.0835  0.4274  0.4061
 6590TIP3   OH241184   5.464   0.806   4.674  0.2242  0.5013 -0.0493
 6590TIP3    H141185   5.553   0.792   4.643  0.2800  1.0174 -0.1247
 6590TIP3    H241186   5.440   0.892   4.640 -0.7946 -0.2049 -1.1864
 6591TIP3   OH241187   2.346   1.793   5.615 -0.0362 -0.3593 -0.0522
 6591TIP3    H141188   2.371   1.885   5.627 -0.1749 -0.2744 -0.4261
 6591TIP3    H241189   2.400   1.762   5.542  1.5890 -1.1798  1.4554
 6592TIP3   OH241190   6.174   5.407  15.315  0.2843  0.0757 -0.5355
 6592TIP3    H141191   6.181   5.357  15.396  0.2069  0.1361 -0.4917
 6592TIP3    H241192   6.085   5.389  15.283 -0.2499  1.3290  0.2313
 6593TIP3   OH241193   1.573   5.249   4.063  0.0361 -0.3562  0.1782
 6593TIP3    H141194   1.510   5.242   3.992 -0.9893 -0.1021  1.0462
 6593TIP3    H241195   1.521   5.275   4.139  1.2350  0.2146  0.8263
 6594TIP3   OH241196   4.253   1.321   6.419  0.2022  0.2023  0.3813
 6594TIP3    H141197   4.320   1.258   6.391  0.0568  0.3526 -0.3222
 6594TIP3    H241198   4.170   1.272   6.411  0.2536 -0.0920  1.5708
 6595TIP3   OH241199   0.030   1.088   4.880  0.4480 -0.3414  0.3019
 6595TIP3    H141200   0.079   1.012   4.911 -0.2266 -1.2293 -0.8088
 6595TIP3    H241201  -0.061   1.070   4.904  0.2557  0.0237 -0.1375
 6596TIP3   OH241202   1.611   1.608   0.047 -0.3007  0.3033 -0.1291
 6596TIP3    H141203   1.601   1.698   0.078 -0.5592  0.3497 -0.3448
 6596TIP3    H241204   1.582   1.554   0.120 -0.8410  0.4106 -0.2610
 6597TIP3   OH241205   4.616   4.117   4.245 -0.0812  0.8876 -0.1159
 6597TIP3    H141206   4.601   4.091   4.154  0.8585 -0.7013  0.1690
 6597TIP3    H241207   4.596   4.039   4.296 -0.9759  1.8802  1.0880
 6598TIP3   OH241208   4.945   2.126  13.559  0.4936  0.0739 -0.3658
 6598TIP3    H141209   4.925   2.139  13.652 -1.3039  0.6793 -0.8308
 6598TIP3    H241210   4.887   2.055  13.532  0.4809  0.4130 -1.2250
 6599TIP3   OH241211   3.561   0.565  11.747 -0.5581  0.2417  0.6176
 6599TIP3    H141212   3.511   0.640  11.778 -0.9219  0.2096  0.1247
 6599TIP3    H241213   3.616   0.601  11.678 -0.9962 -0.0093  0.1328
 6600TIP3   OH241214   5.951   6.288   3.412 -0.3684  0.6289 -0.0467
 6600TIP3    H141215   5.977   6.261   3.324 -1.1867 -2.3122  0.5623
 6600TIP3    H241216   5.855   6.285   3.411 -0.4076  1.5080  0.6637
 6601TIP3   OH241217   5.588   6.456   2.739 -0.6001  0.4708  0.2223
 6601TIP3    H141218   5.534   6.438   2.661 -0.1745  1.8517 -0.4037
 6601TIP3    H241219   5.678   6.445   2.708 -0.4547 -0.1311  0.8348
 6602TIP3   OH241220   5.290   1.977  16.257  0.3363 -0.7264  0.0530
 6602TIP3    H141221   5.316   1.896  16.302  1.4754 -0.2539  0.2532
 6602TIP3    H241222   5.306   1.959  16.165 -0.8081 -1.2473 -0.0534
 6603TIP3   OH241223   6.212   1.785  11.285 -0.3362 -0.1483  0.1984
 6603TIP3    H141224   6.221   1.797  11.379  0.2268  1.1254 -0.0185
 6603TIP3    H241225   6.290   1.824  11.247 -1.4457  1.0563 -0.9161
 6604TIP3   OH241226   6.508   4.454   1.155  0.1153  0.4708  0.5694
 6604TIP3    H141227   6.426   4.460   1.203  0.6643  0.7419  1.5032
 6604TIP3    H241228   6.525   4.360   1.148  0.4379  0.4469  1.6295
 6605TIP3   OH241229   1.644   4.079   0.773  0.1660  0.6155 -0.0405
 6605TIP3    H141230   1.684   4.006   0.821 -2.9365 -0.4881  0.9427
 6605TIP3    H241231   1.635   4.048   0.683 -1.0387 -0.1757  0.3509
 6606TIP3   OH241232   1.595   6.533   0.886 -0.3836  0.2928  0.3121
 6606TIP3    H141233   1.537   6.606   0.911 -1.1718 -0.1847 -0.1028
 6606TIP3    H241234   1.611   6.547   0.793 -0.6119 -0.1213  0.2122
 6607TIP3   OH241235   2.332   3.802   0.586  0.0222 -0.1042  0.6292
 6607TIP3    H141236   2.406   3.762   0.631 -1.0026 -1.0042  1.5343
 6607TIP3    H241237   2.255   3.762   0.625 -0.9363  0.2080 -0.8861
 6608TIP3   OH241238   1.691   4.723   4.677 -0.3405  0.2522  0.4381
 6608TIP3    H141239   1.680   4.816   4.655  1.6500  0.2709 -0.6053
 6608TIP3    H241240   1.773   4.720   4.726 -0.1319 -1.0287  0.0233
 6609TIP3   OH241241   2.764   3.996   5.625  0.2483  0.3650  0.0787
 6609TIP3    H141242   2.859   4.002   5.613  0.3146  0.3823  0.6255
 6609TIP3    H241243   2.747   3.902   5.632  0.2687  0.3825  0.3527
 6610TIP3   OH241244   0.804   1.077   4.669 -0.3297 -0.3661  0.4097
 6610TIP3    H141245   0.729   1.136   4.672 -1.6711 -1.9926 -0.6934
 6610TIP3    H241246   0.792   1.025   4.589  0.5230 -2.5423  1.6411
 6611TIP3   OH241247   0.507   3.449   3.243 -0.1473  0.7110 -0.6286
 6611TIP3    H141248   0.511   3.539   3.209 -1.2061  1.1165  0.3212
 6611TIP3    H241249   0.493   3.458   3.337 -1.1558 -0.4570 -0.6488
 6612TIP3   OH241250   1.025   4.921   5.356 -0.3873  0.7402  0.4312
 6612TIP3    H141251   1.015   4.903   5.450  1.1473  0.8129  0.6279
 6612TIP3    H241252   1.069   5.006   5.353  0.4505  0.2934 -0.3267
 6613TIP3   OH241253   3.416   5.307  11.648  0.3132  0.3880  0.2012
 6613TIP3    H141254   3.505   5.272  11.653 -0.0770 -0.8762 -1.2628
 6613TIP3    H241255   3.362   5.232  11.622 -0.8322  1.6376 -1.1289
 6614TIP3   OH241256   6.499   5.494  15.106  0.0568 -0.3622 -0.5825
 6614TIP3    H141257   6.507   5.589  15.100 -1.0788 -0.3052 -1.2649
 6614TIP3    H241258   6.456   5.479  15.189  0.5036 -0.3040 -0.3363
 6615TIP3   OH241259   0.411   2.018  15.465  0.5132 -0.3943  0.0750
 6615TIP3    H141260   0.388   2.037  15.373  1.3251  1.3653  0.2099
 6615TIP3    H241261   0.401   1.923  15.473 -1.4417 -0.3559 -1.3179
 6616TIP3   OH241262   1.072   6.051  16.065  1.1319 -0.2179  0.3959
 6616TIP3    H141263   1.089   6.094  16.149  0.5514 -0.5605  0.6938
 6616TIP3    H241264   0.982   6.020  16.072  0.4701  1.3508 -1.0634
 6617TIP3   OH241265   0.894   0.398   1.872 -0.1276  0.7206  0.7083
 6617TIP3    H141266   0.868   0.474   1.925  2.1598  2.5071 -0.6285
 6617TIP3    H241267   0.983   0.378   1.901  0.0939 -0.0602 -0.5112
 6618TIP3   OH241268   4.753   0.221   1.269  0.3801 -0.1081 -0.4718
 6618TIP3    H141269   4.827   0.187   1.319  0.4307  0.6262 -0.0507
 6618TIP3    H241270   4.715   0.143   1.228  2.5094 -0.2645 -2.2267
 6619TIP3   OH241271   4.757   6.224   4.194 -0.2069 -0.4963 -0.1767
 6619TIP3    H141272   4.721   6.208   4.282  1.0039  3.4051  1.1454
 6619TIP3    H241273   4.813   6.149   4.177  0.6978 -0.6443  3.0670
 6620TIP3   OH241274   1.068   2.136  12.239 -0.3322  0.0280  0.3824
 6620TIP3    H141275   1.111   2.219  12.263  0.3754  0.1018 -1.0776
 6620TIP3    H241276   0.979   2.161  12.217 -0.1525  0.3915  0.0591
 6621TIP3   OH241277   5.392   3.937  16.730  0.2464  0.4122 -0.2899
 6621TIP3    H141278   5.474   3.900  16.762 -0.8632  0.1374  2.3378
 6621TIP3    H241279   5.397   4.030  16.754 -0.5653  0.2190  0.6390
 6622TIP3   OH241280   4.859   0.438  15.545  0.1704  0.3858 -0.2347
 6622TIP3    H141281   4.912   0.384  15.604  2.3261  1.1196 -1.4280
 6622TIP3    H241282   4.769   0.418  15.568  0.8287 -4.3807 -1.1540
 6623TIP3   OH241283   3.752   5.202   1.998  0.0665  0.5451 -0.3408
 6623TIP3    H141284   3.834   5.178   1.953  0.0417 -0.5537  0.2079
 6623TIP3    H241285   3.776   5.205   2.090 -0.2415  1.3745 -0.2869
 6624TIP3   OH241286   5.369   0.877   1.268 -0.3719  0.1713  0.0980
 6624TIP3    H141287   5.387   0.905   1.179 -0.6190  0.3552  0.1054
 6624TIP3    H241288   5.311   0.802   1.259  0.2148 -0.2892  0.0812
 6625TIP3   OH241289   0.260   0.313   2.667 -0.2532  0.4372  0.3409
 6625TIP3    H141290   0.175   0.349   2.692 -0.7086  0.0024 -0.5475
 6625TIP3    H241291   0.321   0.346   2.733 -1.0836  0.8866  0.8866
 6626TIP3   OH241292   5.440   5.835   3.802 -0.5794 -0.3624  0.4925
 6626TIP3    H141293   5.455   5.767   3.868 -2.1017 -1.1386  0.0580
 6626TIP3    H241294   5.349   5.823   3.775 -0.2525  0.5501 -1.0702
 6627TIP3   OH241295   1.507   1.519  15.627 -0.1724  0.7432 -0.3499
 6627TIP3    H141296   1.447   1.520  15.701 -0.5855  2.0250 -0.6902
 6627TIP3    H241297   1.534   1.610  15.617  0.3335  0.4828 -1.4012
 6628TIP3   OH241298   6.114   3.455  16.885 -0.3135  0.4220  0.5004
 6628TIP3    H141299   6.205   3.479  16.904 -1.1160  1.6939  2.9350
 6628TIP3    H241300   6.091   3.392  16.952 -1.1038 -0.2675 -0.4015
 6629TIP3   OH241301   1.573   1.608   2.933 -0.2268 -0.2087  0.1869
 6629TIP3    H141302   1.536   1.607   2.845 -0.9433  1.3709  0.4406
 6629TIP3    H241303   1.665   1.629   2.921 -0.3857  0.2814 -0.1690
 6630TIP3   OH241304   6.415   4.523  10.741 -0.3097  0.1838  0.0320
 6630TIP3    H141305   6.405   4.618  10.743 -1.4886  0.0663  0.5116
 6630TIP3    H241306   6.326   4.490  10.724  0.4359 -0.7585 -2.3249
 6631TIP3   OH241307   3.618   5.941   1.258  0.0476  0.0850  0.0409
 6631TIP3    H141308   3.523   5.948   1.255  0.1024  0.4972 -2.0537
 6631TIP3    H241309   3.636   5.852   1.227  0.3589  0.2062 -0.1306
 6632TIP3   OH241310   3.901   6.521   4.593 -0.1553  0.2698 -0.1423
 6632TIP3    H141311   3.916   6.563   4.508 -1.2803 -0.8077 -0.8800
 6632TIP3    H241312   3.806   6.509   4.598  0.0732 -1.5099  0.3749
 6633TIP3   OH241313   2.785   3.819  12.046  0.1334 -0.0531 -0.5666
 6633TIP3    H141314   2.879   3.810  12.031  0.5782  2.3269  0.4768
 6633TIP3    H241315   2.758   3.887  11.985 -0.6696  0.1025 -0.0382
 6634TIP3   OH241316   5.629   0.538  11.094 -0.1699  0.6868  0.1552
 6634TIP3    H141317   5.545   0.559  11.054 -1.5546 -1.2224  1.9573
 6634TIP3    H241318   5.682   0.502  11.023 -0.8992  1.7702 -0.9596
 6635TIP3   OH241319   1.622   3.719   0.083  0.8529 -0.5801 -0.3337
 6635TIP3    H141320   1.671   3.686   0.008 -0.0092 -0.1950 -1.0766
 6635TIP3    H241321   1.654   3.808   0.097 -0.8273  0.2939 -1.8989
 6636TIP3   OH241322   4.622   1.623  14.437  0.4178  0.5455 -0.2883
 6636TIP3    H141323   4.674   1.698  14.466  0.2213  0.7292 -0.4107
 6636TIP3    H241324   4.541   1.661  14.405  0.6112  0.3418 -1.0350
 6637TIP3   OH241325   2.591   4.373  12.549  0.4656  0.4204 -0.1353
 6637TIP3    H141326   2.556   4.450  12.505  1.1712  0.4401 -0.6784
 6637TIP3    H241327   2.685   4.391  12.558  0.5669 -0.1990  0.0924
 6638TIP3   OH241328   6.197   5.446   2.773  0.2784  0.1425  0.2128
 6638TIP3    H141329   6.261   5.417   2.838  2.5248 -0.4556 -2.1740
 6638TIP3    H241330   6.195   5.541   2.782  0.5405  0.0592  1.2024
 6639TIP3   OH241331   4.076   3.010   2.761 -0.0972 -1.0317 -0.8598
 6639TIP3    H141332   4.045   3.097   2.736  1.0335 -0.2103  0.5341
 6639TIP3    H241333   4.082   2.962   2.678  0.8122  0.7108 -1.8276
 6640TIP3   OH241334   0.251   5.039   6.049 -0.4191 -0.1559  0.0188
 6640TIP3    H141335   0.210   5.013   6.131  0.8396 -3.0365 -0.2185
 6640TIP3    H241336   0.342   5.056   6.073  0.1673 -1.9130 -0.9323
 6641TIP3   OH241337   6.420   6.738  13.933 -0.1553 -0.0211 -0.4378
 6641TIP3    H141338   6.482   6.718  14.002  1.9910  0.8558 -2.0553
 6641TIP3    H241339   6.352   6.671  13.942 -1.3788  1.6484  4.1347
 6642TIP3   OH241340   3.089   2.228   3.052 -0.2581  0.0093  0.1589
 6642TIP3    H141341   3.049   2.147   3.082  1.4408 -0.6597  0.6908
 6642TIP3    H241342   3.077   2.227   2.957 -1.2162 -0.3167  0.2794
 6643TIP3   OH241343   0.758   6.394  12.915 -0.3307 -0.3048 -0.7533
 6643TIP3    H141344   0.775   6.361  12.827  1.3337  0.2045 -0.6324
 6643TIP3    H241345   0.729   6.484  12.902  1.2024  0.2055 -0.7160
 6644TIP3   OH241346   2.669   0.048   6.709  0.2018 -0.3120 -0.0412
 6644TIP3    H141347   2.704   0.091   6.631 -1.6322  0.4076 -0.4769
 6644TIP3    H241348   2.706  -0.041   6.707 -0.9801 -0.7630 -2.4785
 6645TIP3   OH241349   4.464   6.382   2.014  0.3293 -0.1316 -1.0122
 6645TIP3    H141350   4.405   6.316   1.976 -0.2706  0.8602 -1.8389
 6645TIP3    H241351   4.410   6.429   2.078  0.1367  0.9062 -1.9115
 6646TIP3   OH241352   0.538   3.911   4.411 -0.0551  0.5579 -0.7301
 6646TIP3    H141353   0.608   3.914   4.346 -0.6303 -0.8194 -1.4225
 6646TIP3    H241354   0.533   3.819   4.437  0.7630  1.2043  1.9477
 6647TIP3   OH241355   5.447   1.058   2.311  0.0770  0.3985  0.3349
 6647TIP3    H141356   5.367   1.041   2.260  0.5282  1.0814 -0.6259
 6647TIP3    H241357   5.439   1.149   2.339  0.4635  0.4343  0.3342
 6648TIP3   OH241358   5.953   1.110  11.439  0.4062  0.1706 -0.5833
 6648TIP3    H141359   5.942   1.153  11.354 -0.9328  2.0436  0.5067
 6648TIP3    H241360   5.871   1.128  11.486  0.9865 -1.1490  0.9806
 6649TIP3   OH241361   0.569   2.943  15.535  0.3244 -0.1017  0.3344
 6649TIP3    H141362   0.647   2.911  15.490 -0.2474  0.4750 -1.0906
 6649TIP3    H241363   0.526   2.864  15.568  0.3963 -0.5875 -0.7234
 6650TIP3   OH241364   1.816   1.415   0.971 -0.5023 -0.0643  0.0376
 6650TIP3    H141365   1.881   1.346   0.955  1.2579  1.2808  1.1900
 6650TIP3    H241366   1.739   1.369   1.005  0.5248 -1.4893  0.4573
 6651TIP3   OH241367   6.647   2.034   4.533  0.3408 -0.0385 -0.0756
 6651TIP3    H141368   6.571   2.088   4.558  0.2071 -0.2838  0.0422
 6651TIP3    H241369   6.687   2.083   4.461  0.5492  0.5101  0.4110
 6652TIP3   OH241370   1.059   0.282   3.078 -0.0919  0.4067  0.3657
 6652TIP3    H141371   1.103   0.217   3.132  1.3333  0.3142 -0.8836
 6652TIP3    H241372   1.096   0.366   3.105 -0.7553  0.5502  0.8457
 6653TIP3   OH241373   0.957   6.632  11.650 -0.0478  0.6465 -0.2520
 6653TIP3    H141374   0.909   6.553  11.624  0.3488  0.1483  0.5027
 6653TIP3    H241375   1.005   6.606  11.728  0.8356  1.3800 -0.5494
 6654TIP3   OH241376   4.877   2.656   6.662  0.3178 -0.1200 -0.6660
 6654TIP3    H141377   4.933   2.673   6.586  0.3925 -1.0138 -0.8169
 6654TIP3    H241378   4.911   2.574   6.698 -1.4476 -1.1297 -1.2618
 6655TIP3   OH241379   3.436   1.910  13.976 -0.3953 -0.2500  1.0735
 6655TIP3    H141380   3.401   1.938  14.061  3.4579  0.5738  2.5339
 6655TIP3    H241381   3.430   1.815  13.978 -1.5331 -0.1742  1.7188
 6656TIP3   OH241382   3.144   6.543   2.298  0.0351 -0.2324 -0.0842
 6656TIP3    H141383   3.223   6.514   2.252 -0.7963 -1.8226 -0.5302
 6656TIP3    H241384   3.162   6.527   2.390  1.3932  2.2181  0.1319
 6657TIP3   OH241385   2.006   3.462   2.931  0.6783 -0.2857  0.4020
 6657TIP3    H141386   1.964   3.435   2.849 -1.7600  3.9439  0.1075
 6657TIP3    H241387   2.100   3.458   2.912  0.1842 -0.5110 -2.2118
 6658TIP3   OH241388   3.413   2.308   4.441  0.2178 -0.2326 -0.4213
 6658TIP3    H141389   3.385   2.391   4.401 -2.0667 -0.1949  1.1712
 6658TIP3    H241390   3.332   2.265   4.466  1.4401 -2.3666  0.0265
 6659TIP3   OH241391   2.178   6.150   6.192  0.5859  0.3698 -0.2763
 6659TIP3    H141392   2.181   6.212   6.265  0.1156  0.6227 -0.4685
 6659TIP3    H241393   2.269   6.130   6.174  0.7201  0.6248  0.1143
 6660TIP3   OH241394   0.248   1.348   4.784  0.3845 -0.5753  0.3268
 6660TIP3    H141395   0.340   1.362   4.805  0.0871  0.0934  1.2257
 6660TIP3    H241396   0.211   1.436   4.778 -1.1129 -0.7954  4.2339
 6661TIP3   OH241397   0.026   1.843   4.097 -0.1940 -0.6856 -0.0595
 6661TIP3    H141398  -0.037   1.789   4.050  1.1108 -0.7454 -1.7777
 6661TIP3    H241399   0.073   1.890   4.029 -0.1409  1.3382  1.3398
 6662TIP3   OH241400   6.157   4.377  15.124 -0.2024  0.0493 -0.7255
 6662TIP3    H141401   6.081   4.434  15.113 -0.5184 -0.1602  0.2877
 6662TIP3    H241402   6.227   4.419  15.074 -0.9236  0.3559 -1.4856
 6663TIP3   OH241403   2.370   0.713   1.407  0.3643  0.0919 -0.3727
 6663TIP3    H141404   2.417   0.794   1.425 -0.0337  0.7716 -2.2608
 6663TIP3    H241405   2.280   0.741   1.389 -0.1593 -0.9325  0.6011
 6664TIP3   OH241406   5.776   4.114  11.366  0.3081 -0.1064 -0.8203
 6664TIP3    H141407   5.701   4.171  11.383 -0.4418 -1.1137 -0.7267
 6664TIP3    H241408   5.795   4.126  11.273 -0.2645 -0.2201 -0.9474
 6665TIP3   OH241409   4.856   4.208   3.797 -0.0873  0.0729  0.2681
 6665TIP3    H141410   4.815   4.172   3.719  2.2719 -2.6478  0.1836
 6665TIP3    H241411   4.816   4.161   3.870 -1.0814  1.3978  0.5831
 6666TIP3   OH241412   6.083   6.029   4.556  0.5201  0.5098  0.1953
 6666TIP3    H141413   6.175   6.046   4.535  0.7054  0.4764  1.0006
 6666TIP3    H241414   6.061   5.952   4.503  0.7712  0.9070 -0.4923
 6667TIP3   OH241415   4.269   1.846  13.181 -0.2397 -1.2524  0.9897
 6667TIP3    H141416   4.270   1.869  13.088  0.7382 -3.5353  0.3994
 6667TIP3    H241417   4.178   1.823  13.199 -0.1793 -2.0506  0.2766
 6668TIP3   OH241418   4.453   4.284   3.311 -0.3319 -0.1356  0.2737
 6668TIP3    H141419   4.432   4.377   3.319 -0.6182 -0.0859 -0.9838
 6668TIP3    H241420   4.408   4.243   3.385 -0.0138  0.7530  0.9668
 6669TIP3   OH241421   6.688   1.867  14.897 -0.3435 -0.0572  0.3466
 6669TIP3    H141422   6.616   1.902  14.950 -1.2383 -2.3523  0.7134
 6669TIP3    H241423   6.660   1.880  14.807  0.4256  2.3113  0.4012
 6670TIP3   OH241424   6.502   4.035  14.398  0.4839  0.0346 -0.0629
 6670TIP3    H141425   6.479   3.956  14.349  0.6405  0.4721 -0.8612
 6670TIP3    H241426   6.524   4.099  14.330 -0.2837  0.9568  0.5499
 6671TIP3   OH241427   4.816   6.238  11.408  0.5735  0.0115  0.0352
 6671TIP3    H141428   4.846   6.320  11.369  1.6641  1.6683  4.1546
 6671TIP3    H241429   4.800   6.259  11.500 -5.7169 -2.7636 -0.1494
 6672TIP3   OH241430   3.484   3.219  15.218 -0.3735 -0.1706 -0.1467
 6672TIP3    H141431   3.516   3.286  15.279 -0.3708  0.4999 -0.8878
 6672TIP3    H241432   3.470   3.142  15.274 -0.0576  0.3379  0.6513
 6673TIP3   OH241433   5.141   3.735   0.425  0.6654  0.2755  0.9734
 6673TIP3    H141434   5.126   3.761   0.516  0.0479  1.1151  0.6470
 6673TIP3    H241435   5.062   3.764   0.379  1.0125 -0.0640  0.1572
 6674TIP3   OH241436   2.221   1.441   4.449  0.7332 -0.0648  0.2378
 6674TIP3    H141437   2.225   1.450   4.354 -0.8966 -1.4836  0.0177
 6674TIP3    H241438   2.196   1.350   4.464  1.8257 -0.0929  2.0496
 6675TIP3   OH241439   6.209   2.509  13.898 -0.0491  0.1820 -0.4712
 6675TIP3    H141440   6.221   2.490  13.805  0.6626 -1.5160 -0.0512
 6675TIP3    H241441   6.287   2.558  13.923  0.4300 -0.5874 -0.4484
 6676TIP3   OH241442   6.715   6.441   4.238  0.0362  0.0589  0.1354
 6676TIP3    H141443   6.803   6.467   4.267 -0.4548  0.2536  1.4852
 6676TIP3    H241444   6.704   6.353   4.274 -0.7009  0.4301  0.8383
 6677TIP3   OH241445   1.947   3.326  17.229  0.5210  0.4358 -0.4452
 6677TIP3    H141446   1.879   3.264  17.202 -0.7009  1.9686 -1.0213
 6677TIP3    H241447   2.020   3.272  17.258 -1.3114 -1.2717  1.1390
 6678TIP3   OH241448   5.800   3.581   4.431  0.4408 -0.3150 -0.3461
 6678TIP3    H141449   5.855   3.541   4.498 -0.3496 -1.8070 -0.5736
 6678TIP3    H241450   5.863   3.617   4.367  1.2397  2.5048  1.9124
 6679TIP3   OH241451   1.659   4.275   6.309  0.1638 -0.7965  0.0393
 6679TIP3    H141452   1.617   4.190   6.295  2.3139 -1.8129 -0.5035
 6679TIP3    H241453   1.602   4.320   6.371 -2.0239 -1.8668 -1.1133
 6680TIP3   OH241454   0.811   0.025  13.021  0.5334  0.7575  0.6245
 6680TIP3    H141455   0.786  -0.001  13.110  1.5662  1.5505  1.1517
 6680TIP3    H241456   0.905   0.007  13.016  0.2119 -0.6552 -0.7950
 6681TIP3   OH241457   6.007   5.953   2.925 -0.2034  0.3537 -0.2842
 6681TIP3    H141458   5.932   6.012   2.936 -0.7725 -0.3273 -0.5388
 6681TIP3    H241459   6.074   6.008   2.885 -0.6303  0.9162 -0.2371
 6682TIP3   OH241460   6.663   2.108   2.102 -0.8793 -0.0221  0.1599
 6682TIP3    H141461   6.695   2.023   2.071 -1.4711  0.0895 -0.7681
 6682TIP3    H241462   6.681   2.168   2.029 -4.5684 -0.2438 -1.0396
 6683TIP3   OH241463   3.736   5.586  13.431  0.0540 -0.2401  0.0152
 6683TIP3    H141464   3.794   5.532  13.484  0.6456  0.0668 -0.3113
 6683TIP3    H241465   3.794   5.628  13.367 -0.1650  1.9078  1.1778
 6684TIP3   OH241466   5.376   5.282   5.525 -0.2754 -0.1452  0.5925
 6684TIP3    H141467   5.339   5.200   5.493 -1.6657  0.8205 -0.3860
 6684TIP3    H241468   5.446   5.304   5.463 -0.7322  0.0208  0.1275
 6685TIP3   OH241469   3.588   5.774  11.586 -0.0052 -0.6213  0.3808
 6685TIP3    H141470   3.610   5.862  11.616  0.4432 -0.2623 -0.9581
 6685TIP3    H241471   3.557   5.787  11.496 -0.8964 -1.7137  0.5282
 6686TIP3   OH241472   2.151   0.540  13.414 -0.1229  0.4959  0.2386
 6686TIP3    H141473   2.214   0.511  13.348  1.4827  3.1748  0.5148
 6686TIP3    H241474   2.067   0.539  13.369  0.8790  1.8216 -1.7209
 6687TIP3   OH241475   6.417   3.241   5.022  0.0733 -0.3253  0.3216
 6687TIP3    H141476   6.435   3.160   5.069 -0.4927 -0.8517 -0.3544
 6687TIP3    H241477   6.329   3.266   5.050  0.6129  0.5472  1.2261
 6688TIP3   OH241478   0.125   3.594  13.317 -0.5386 -0.3500 -0.2997
 6688TIP3    H141479   0.076   3.513  13.333 -0.4053 -0.7399 -1.8282
 6688TIP3    H241480   0.200   3.588  13.376 -1.5558 -0.4197  1.0175
 6689TIP3   OH241481   6.129   6.637   2.841  0.0989 -0.0393 -0.0881
 6689TIP3    H141482   6.124   6.687   2.923 -3.1058  0.0029 -0.2266
 6689TIP3    H241483   6.142   6.703   2.773 -2.2533  0.5077 -0.0736
 6690TIP3   OH241484   0.794   1.683  13.169 -0.0805  0.5496 -0.1629
 6690TIP3    H141485   0.758   1.708  13.254  2.2840  0.4500  0.8937
 6690TIP3    H241486   0.791   1.763  13.117  0.7216  1.2336  0.8255
 6691TIP3   OH241487   3.623   0.810  13.025  0.0283  0.2768 -0.0423
 6691TIP3    H141488   3.681   0.750  13.072  0.0778  0.6903  0.4294
 6691TIP3    H241489   3.615   0.886  13.084  2.3281  2.0289 -1.8810
 6692TIP3   OH241490   3.341   4.683  12.278  0.2548  0.6436  0.0699
 6692TIP3    H141491   3.386   4.717  12.201  0.1257  0.9349  0.1221
 6692TIP3    H241492   3.317   4.761  12.328  0.6035  0.4436  0.5551
 6693TIP3   OH241493   3.764   2.611  16.823  0.1433  0.8678  0.8060
 6693TIP3    H141494   3.773   2.563  16.905  0.4454  1.9791  1.4396
 6693TIP3    H241495   3.832   2.574  16.766 -1.3518 -1.2698  0.3463
 6694TIP3   OH241496   6.116   3.897  15.130  0.3505 -0.2688  0.2794
 6694TIP3    H141497   6.147   3.981  15.095  0.9536  0.6342  2.8387
 6694TIP3    H241498   6.196   3.851  15.155 -0.0047 -1.4446 -0.7173
 6695TIP3   OH241499   4.639   6.111  16.543 -0.4003  0.0688 -0.1093
 6695TIP3    H141500   4.567   6.164  16.576 -1.0026 -0.5736 -0.3787
 6695TIP3    H241501   4.647   6.039  16.606  0.3159  0.3970  0.1779
 6696TIP3   OH241502   2.668   6.665  15.235 -0.8726 -0.6264 -0.0886
 6696TIP3    H141503   2.683   6.760  15.235  1.7428 -1.0065 -2.3709
 6696TIP3    H241504   2.579   6.655  15.200 -1.1848  0.9596  0.1971
 6697TIP3   OH241505   1.002   2.785  15.490  0.3123  0.4327 -0.8080
 6697TIP3    H141506   0.963   2.764  15.575 -1.3375  1.4627 -1.2850
 6697TIP3    H241507   0.992   2.705  15.438 -1.0881  0.6473 -0.8830
 6698TIP3   OH241508   4.942   0.251  12.915  0.7117  0.0566  0.2900
 6698TIP3    H141509   4.971   0.276  13.002  2.1574  0.0881 -0.1948
 6698TIP3    H241510   4.868   0.309  12.897  1.3230  1.0442  0.9134
 6699TIP3   OH241511   3.480   1.389   4.364  0.1276  0.1082  0.4528
 6699TIP3    H141512   3.444   1.458   4.308 -0.5734 -1.2698 -0.8514
 6699TIP3    H241513   3.421   1.385   4.439 -0.5438  0.0826 -0.0750
 6700TIP3   OH241514   4.128   6.169   2.610  0.1551 -0.1205  0.0869
 6700TIP3    H141515   4.184   6.217   2.549 -1.6546  0.4552 -1.1553
 6700TIP3    H241516   4.084   6.238   2.660 -0.9092 -0.5174 -0.2983
 6701TIP3   OH241517   4.865   1.755  14.854  0.0858  0.8708  0.7433
 6701TIP3    H141518   4.805   1.692  14.894  0.8400 -0.2876  0.0635
 6701TIP3    H241519   4.808   1.822  14.816 -0.7586  0.0168  0.4938
 6702TIP3   OH241520   6.406   5.001  16.340  0.1362 -0.4012  0.1619
 6702TIP3    H141521   6.330   5.056  16.324  0.4820 -0.0295 -0.2354
 6702TIP3    H241522   6.476   5.063  16.362  0.2286 -0.7642  0.8935
 6703TIP3   OH241523   0.749   4.265   1.815 -0.3789 -0.0060  0.2334
 6703TIP3    H141524   0.708   4.333   1.762  0.7148 -0.1485 -0.8410
 6703TIP3    H241525   0.770   4.195   1.752 -0.1199 -0.6821  1.0600
 6704TIP3   OH241526   2.880   2.106   3.352 -0.6536 -0.0713  0.5447
 6704TIP3    H141527   2.935   2.043   3.399 -0.7673  0.4824  1.4355
 6704TIP3    H241528   2.896   2.088   3.260 -0.7528 -1.4538  0.7986
 6705TIP3   OH241529   2.655   1.744  16.090  0.0964  0.4417 -0.1073
 6705TIP3    H141530   2.627   1.828  16.054  2.3028  1.3669  0.2318
 6705TIP3    H241531   2.625   1.679  16.026  1.0898  1.7826 -1.9716
 6706TIP3   OH241532   0.008   2.531   3.434  0.4077 -0.5251  0.3802
 6706TIP3    H141533   0.071   2.595   3.467  2.1960 -1.2836 -1.4317
 6706TIP3    H241534  -0.048   2.580   3.374 -0.5879  0.0968  1.7980
 6707TIP3   OH241535   2.089   0.901   0.289  0.8180  0.4942 -0.0429
 6707TIP3    H141536   2.077   0.838   0.359  1.8027 -1.3245 -1.4692
 6707TIP3    H241537   2.103   0.985   0.333  1.7860 -0.6906  1.9221
 6708TIP3   OH241538   4.673   6.674  15.767  0.2418 -0.1132  0.0697
 6708TIP3    H141539   4.637   6.600  15.719 -1.4933  0.8504 -0.1581
 6708TIP3    H241540   4.643   6.662  15.857  0.1356  0.1846  0.0756
 6709TIP3   OH241541   2.626   0.942   1.234 -0.7601 -0.0169 -0.8238
 6709TIP3    H141542   2.542   0.926   1.191 -1.0154 -1.2890  0.1396
 6709TIP3    H241543   2.607   0.937   1.327  0.6795 -1.8899 -0.6090
 6710TIP3   OH241544   2.583   5.464  15.431 -0.0919 -0.3353  0.3256
 6710TIP3    H141545   2.496   5.463  15.471 -1.0165 -0.7942 -1.6205
 6710TIP3    H241546   2.626   5.541  15.467 -1.0716 -0.4730  1.7987
 6711TIP3   OH241547   0.727   2.040  16.900 -0.0601 -0.0681  0.2136
 6711TIP3    H141548   0.664   1.972  16.923 -1.2058  0.6945 -0.6552
 6711TIP3    H241549   0.677   2.122  16.902  0.8528  0.5208 -0.6380
 6712TIP3   OH241550   4.041   2.044   1.088 -0.3927 -0.5441  0.2724
 6712TIP3    H141551   4.048   2.051   0.993  0.9343 -0.9967  0.3224
 6712TIP3    H241552   4.066   2.131   1.120  0.0757 -0.6579  0.2314
 6713TIP3   OH241553   4.191   2.797   4.296  0.3191  0.1651 -0.0455
 6713TIP3    H141554   4.097   2.781   4.288  0.3257  0.8592 -1.5445
 6713TIP3    H241555   4.228   2.710   4.312 -0.3778 -0.3996 -1.4130
 6714TIP3   OH241556   4.797   5.279  16.485  0.5675 -0.3226 -0.6568
 6714TIP3    H141557   4.783   5.334  16.408 -0.5575  1.5577  0.8353
 6714TIP3    H241558   4.799   5.341  16.558 -2.2402 -2.3652  1.2704
 6715TIP3   OH241559   6.286   1.073  16.398 -0.0471 -0.4367 -0.7861
 6715TIP3    H141560   6.275   1.168  16.398 -0.6253 -0.4880  0.3298
 6715TIP3    H241561   6.373   1.059  16.434 -0.3216 -0.3452 -0.0657
 6716TIP3   OH241562   1.707   5.909  10.303 -0.5295  0.2691  0.0181
 6716TIP3    H141563   1.759   5.893  10.382 -0.0282 -0.1314 -0.3856
 6716TIP3    H241564   1.624   5.866  10.319 -0.8619  1.1857  0.8027
 6717TIP3   OH241565   0.739   1.983   3.987 -0.2382 -0.2149 -0.1981
 6717TIP3    H141566   0.662   1.998   3.933 -0.3877  0.4207  0.1867
 6717TIP3    H241567   0.725   2.037   4.065 -0.4996 -1.8826  0.9481
 6718TIP3   OH241568   2.894   3.405   3.949 -0.3279 -0.1982  0.6110
 6718TIP3    H141569   2.857   3.330   3.903  0.4493 -0.9865  1.2452
 6718TIP3    H241570   2.845   3.410   4.031 -2.1727  1.6185 -0.5658
 6719TIP3   OH241571   6.313   5.842   3.138  0.1452 -0.4654 -0.8003
 6719TIP3    H141572   6.374   5.799   3.198 -1.0244  0.3530  1.0393
 6719TIP3    H241573   6.296   5.927   3.180 -3.4212 -1.2905 -0.4910
 6720TIP3   OH241574   2.372   2.977  15.003 -0.3137 -0.4867  0.1675
 6720TIP3    H141575   2.427   2.903  15.027 -1.1518 -1.3707 -0.5929
 6720TIP3    H241576   2.386   2.988  14.909 -0.1059  0.4009  0.2957
 6721TIP3   OH241577   2.878   3.061   6.001 -0.4450 -0.0352 -0.5036
 6721TIP3    H141578   2.914   3.003   6.068 -0.4017  0.4753 -0.0884
 6721TIP3    H241579   2.839   3.001   5.937 -2.0438 -0.4569  0.8522
 6722TIP3   OH241580   3.828   4.480   5.644 -0.0911 -0.2665 -0.1384
 6722TIP3    H141581   3.809   4.517   5.730 -0.0617  2.2340 -1.1868
 6722TIP3    H241582   3.742   4.468   5.604 -0.1911 -2.6220  0.6637
 6723TIP3   OH241583   0.763   1.197  13.488 -0.5437  0.1621 -0.4294
 6723TIP3    H141584   0.766   1.130  13.419  0.5493  1.4254 -1.6478
 6723TIP3    H241585   0.696   1.259  13.458 -0.6029  0.3161  0.0271
 6724TIP3   OH241586   1.531   0.708   4.342 -0.0450 -0.3972  0.7747
 6724TIP3    H141587   1.449   0.703   4.390  0.0016  2.7421  1.2943
 6724TIP3    H241588   1.599   0.695   4.408 -0.0432  1.6925  1.2266
 6725TIP3   OH241589   2.037   5.003  16.473  0.4753 -0.2283 -0.5282
 6725TIP3    H141590   2.054   4.951  16.551 -0.6600  0.6300  0.3074
 6725TIP3    H241591   2.008   5.088  16.506  0.2765  0.2454 -1.8725
 6726TIP3   OH241592   5.384   2.493  13.357  0.3608  0.4387 -0.4377
 6726TIP3    H141593   5.464   2.530  13.393  0.2648  0.1799  0.0474
 6726TIP3    H241594   5.336   2.461  13.433 -0.0003  0.1928 -0.7640
 6727TIP3   OH241595   0.771   4.305   0.630  0.0157  0.0809  0.0739
 6727TIP3    H141596   0.782   4.367   0.558 -1.1740 -1.3492 -1.4042
 6727TIP3    H241597   0.684   4.325   0.665  0.1824  0.1317  0.4519
 6728TIP3   OH241598   0.321   5.466  15.640  0.1545  0.7372 -0.0652
 6728TIP3    H141599   0.389   5.486  15.576  0.5347  0.9640  0.4023
 6728TIP3    H241600   0.248   5.523  15.616  1.1272  2.5421  1.0769
 6729TIP3   OH241601   1.006   3.563   3.373 -0.6568 -0.3600 -0.4663
 6729TIP3    H141602   0.944   3.612   3.320  0.1252 -0.6389 -1.6665
 6729TIP3    H241603   0.953   3.494   3.415 -1.2474 -0.2727 -1.0596
 6730TIP3   OH241604   0.769   4.932   0.075  0.4917  0.3069 -0.1135
 6730TIP3    H141605   0.773   4.972  -0.011 -2.7409 -0.0946 -0.5030
 6730TIP3    H241606   0.729   4.846   0.060  0.1166  0.1316  1.7434
 6731TIP3   OH241607   6.365   0.314  11.010 -0.1460 -0.1484 -0.3015
 6731TIP3    H141608   6.379   0.223  11.037  3.7730 -0.4317 -2.9593
 6731TIP3    H241609   6.364   0.364  11.092  1.7687 -2.1025  0.9731
 6732TIP3   OH241610   3.639   6.365  16.628  0.1752 -0.0831 -0.6242
 6732TIP3    H141611   3.674   6.440  16.676 -1.2803  0.7191 -0.7947
 6732TIP3    H241612   3.666   6.289  16.679  0.4432  0.6431  0.3285
 6733TIP3   OH241613   2.675   1.216   4.265 -0.0068 -0.2105  0.2575
 6733TIP3    H141614   2.626   1.233   4.345 -0.5230 -1.0425  0.1163
 6733TIP3    H241615   2.752   1.273   4.272  0.5914 -1.1989  1.9309
 6734TIP3   OH241616   0.101   5.168   4.489  0.4274 -0.2909 -0.3041
 6734TIP3    H141617   0.106   5.153   4.394 -1.0029  0.7066 -0.5584
 6734TIP3    H241618   0.108   5.263   4.498 -1.9988 -0.1335  0.3664
 6735TIP3   OH241619   3.351   2.896   0.008  0.8826 -0.1584  0.3230
 6735TIP3    H141620   3.324   2.907   0.100  0.5995  2.1209 -0.0137
 6735TIP3    H241621   3.438   2.936   0.003  0.5880  0.3935 -0.5516
 6736TIP3   OH241622   3.598   6.343   1.547 -0.2849 -0.0434  0.1548
 6736TIP3    H141623   3.611   6.389   1.629 -1.1061 -2.1212  1.4827
 6736TIP3    H241624   3.681   6.300   1.530 -0.2940 -0.0680  0.1724
 6737TIP3   OH241625   4.309   6.589  11.966  0.4484 -0.0003  0.1071
 6737TIP3    H141626   4.399   6.608  11.938  0.8803 -1.9625  0.0753
 6737TIP3    H241627   4.319   6.550  12.053 -0.3173 -0.8260 -0.1660
 6738TIP3   OH241628   1.816   1.776  15.635 -0.2121 -0.7287 -0.1433
 6738TIP3    H141629   1.908   1.788  15.612 -0.7596  2.7824 -0.7346
 6738TIP3    H241630   1.793   1.691  15.599  2.8666 -1.8152  0.3046
 6739TIP3   OH241631   3.891   3.229  13.915 -0.2421  0.6055 -0.1798
 6739TIP3    H141632   3.928   3.148  13.881 -1.2857 -0.1897  0.5848
 6739TIP3    H241633   3.957   3.295  13.895  0.2764 -0.2958 -1.4786
 6740TIP3   OH241634   1.753   4.002   5.605  0.2765  0.4396 -0.2760
 6740TIP3    H141635   1.658   3.991   5.605  0.2456  0.6903  0.3265
 6740TIP3    H241636   1.786   3.926   5.558 -0.1334 -0.3814  0.7610
 6741TIP3   OH241637   4.181   5.785  14.262 -0.5113 -0.1629  0.7363
 6741TIP3    H141638   4.228   5.832  14.331 -1.7875  1.7344  0.3350
 6741TIP3    H241639   4.089   5.811  14.273 -1.2462 -2.4405  0.3922
 6742TIP3   OH241640   0.886   2.480  13.155  0.0922  0.2257 -0.1335
 6742TIP3    H141641   0.899   2.419  13.082  0.7360  1.1947 -0.8303
 6742TIP3    H241642   0.972   2.487  13.196 -0.1589  0.0663  0.4209
 6743TIP3   OH241643   0.293   3.199   6.134 -0.2542 -0.0751 -0.1109
 6743TIP3    H141644   0.214   3.165   6.177 -1.5376 -0.4420 -2.6694
 6743TIP3    H241645   0.262   3.276   6.086  0.8398 -0.5534 -1.5859
 6744TIP3   OH241646   0.385   4.964  14.240 -0.5021 -0.1166 -0.4338
 6744TIP3    H141647   0.445   4.903  14.283 -0.3977 -0.0145 -0.4328
 6744TIP3    H241648   0.442   5.034  14.208 -0.7368  0.4867  0.4531
 6745TIP3   OH241649   1.030   2.563   6.046  0.3656 -0.4438 -0.0195
 6745TIP3    H141650   0.996   2.530   5.963 -0.6326 -0.1792  0.2787
 6745TIP3    H241651   1.017   2.492   6.108  0.3666 -0.3446  0.0953
 6746TIP3   OH241652   5.451   0.861   1.763 -0.4050  0.2142  0.2242
 6746TIP3    H141653   5.379   0.891   1.819 -0.9302 -1.2418  0.3721
 6746TIP3    H241654   5.408   0.807   1.696  0.1547  2.3801 -1.9311
 6747TIP3   OH241655   3.713   1.371   3.854  0.3403  0.3781  0.4032
 6747TIP3    H141656   3.766   1.450   3.837  0.6057  0.2967  0.8578
 6747TIP3    H241657   3.775   1.299   3.843 -0.1589  0.1551 -1.1567
 6748TIP3   OH241658   6.546   0.132  16.519 -0.3109 -0.4081 -0.1486
 6748TIP3    H141659   6.502   0.191  16.457  0.4230  1.7790  1.3490
 6748TIP3    H241660   6.625   0.179  16.543 -0.5790 -1.2393  2.4305
 6749TIP3   OH241661   5.413   0.170   5.460 -0.4158  0.1339  0.1747
 6749TIP3    H141662   5.384   0.130   5.379  0.3469 -1.9254  0.8750
 6749TIP3    H241663   5.509   0.169   5.455 -0.3724  1.2414  0.5189
 6750TIP3   OH241664   1.043   4.268   2.727 -0.0476 -0.0483  0.6188
 6750TIP3    H141665   0.954   4.237   2.708 -0.4779  1.6570 -0.2067
 6750TIP3    H241666   1.042   4.286   2.821 -0.4212 -0.5128  0.7054
 6751TIP3   OH241667   1.616   0.567  12.130  0.0341  0.2923 -0.1165
 6751TIP3    H141668   1.549   0.584  12.063 -0.4451 -4.6529 -1.1018
 6751TIP3    H241669   1.691   0.535  12.081  1.3029  0.8744  1.4193
 6752TIP3   OH241670   6.698   5.536   1.964 -0.4071 -0.0802 -0.8442
 6752TIP3    H141671   6.625   5.500   2.014  0.4998 -1.2823 -0.3500
 6752TIP3    H241672   6.739   5.459   1.924  0.9249  0.5180 -0.6416
 6753TIP3   OH241673   4.068   6.506  15.792 -0.2279 -0.1480 -0.1458
 6753TIP3    H141674   4.160   6.518  15.814  0.2242 -0.4089 -1.8176
 6753TIP3    H241675   4.069   6.471  15.703 -1.8411 -2.5024  0.6863
 6754TIP3   OH241676   1.085   5.467  12.692 -0.1154  0.6131  0.0744
 6754TIP3    H141677   1.130   5.383  12.697  0.7396  1.1157  1.1089
 6754TIP3    H241678   1.125   5.512  12.617  0.3679  0.6339  0.3426
 6755TIP3   OH241679   5.308   2.972   4.442  0.0349 -0.4268 -0.6818
 6755TIP3    H141680   5.348   3.030   4.378 -2.3820  1.3775 -0.6391
 6755TIP3    H241681   5.214   2.978   4.425 -0.4258 -2.6254  0.7861
 6756TIP3   OH241682   6.365   4.531   5.105  0.1843  0.1905 -0.0170
 6756TIP3    H141683   6.416   4.592   5.159  0.4408 -0.0525  0.0173
 6756TIP3    H241684   6.274   4.559   5.116  0.2659  0.3326  0.2954
 6757TIP3   OH241685   4.886   1.428   2.572 -0.2244  1.1277 -0.0140
 6757TIP3    H141686   4.820   1.384   2.518 -0.4465  0.1737  0.9950
 6757TIP3    H241687   4.842   1.441   2.656  1.0952 -0.1886  0.9139
 6758TIP3   OH241688   0.824   4.611  13.318 -0.0910 -0.2102 -0.4763
 6758TIP3    H141689   0.757   4.675  13.292 -0.4759  0.0505  1.1300
 6758TIP3    H241690   0.775   4.530  13.333 -0.2001  0.1865  1.4947
 6759TIP3   OH241691   5.987   0.863  11.705  0.1081  0.2412 -0.1670
 6759TIP3    H141692   5.970   0.779  11.747  0.9433  0.4868  0.6926
 6759TIP3    H241693   6.080   0.860  11.682 -0.5461 -0.2819 -2.9368
 6760TIP3   OH241694   2.782   0.966   1.548 -0.4348 -0.3870  0.3231
 6760TIP3    H141695   2.837   0.900   1.507  0.0741 -0.5699  1.2921
 6760TIP3    H241696   2.808   1.048   1.507  0.0934 -0.5626  0.3067
 6761TIP3   OH241697   0.123   3.268  15.062 -0.0274  0.1729 -0.3261
 6761TIP3    H141698   0.186   3.320  15.012 -0.6197  1.4405  0.2247
 6761TIP3    H241699   0.171   3.241  15.140  0.2209  0.0591 -0.5169
 6762TIP3   OH241700   3.487   4.623   4.648 -0.3188  0.5232 -0.6543
 6762TIP3    H141701   3.403   4.636   4.605 -0.8128  0.9883  0.4108
 6762TIP3    H241702   3.551   4.668   4.593 -0.8446  0.5948 -1.2004
 6763TIP3   OH241703   4.593   0.865  14.680  0.0348  0.4833 -0.1049
 6763TIP3    H141704   4.609   0.913  14.761 -0.0629  0.9284 -0.3512
 6763TIP3    H241705   4.660   0.897  14.620  0.0780  0.1858 -0.2175
 6764TIP3   OH241706   6.311   3.215   3.452 -0.1757 -0.8184  0.1977
 6764TIP3    H141707   6.220   3.192   3.472 -0.3190  1.4837  2.4681
 6764TIP3    H241708   6.361   3.187   3.528  0.6748 -0.1063 -0.0864
 6765TIP3   OH241709   1.688   3.755   1.248 -0.4053  0.6224  0.3786
 6765TIP3    H141710   1.780   3.774   1.263 -0.3101  0.0367  0.5335
 6765TIP3    H241711   1.686   3.662   1.225 -0.8302  0.8821 -0.6742
 6766TIP3   OH241712   0.295   5.747   0.153  0.1062  0.5073  0.3315
 6766TIP3    H141713   0.317   5.840   0.147  2.9090  0.0440  2.7920
 6766TIP3    H241714   0.319   5.712   0.067 -0.3394  1.9169 -0.3867
 6767TIP3   OH241715   5.695   5.238   1.813  0.1916  0.1385 -0.1525
 6767TIP3    H141716   5.734   5.151   1.818  0.1172  0.1993  1.5220
 6767TIP3    H241717   5.757   5.295   1.857 -0.9455  0.5159  1.0062
 6768TIP3   OH241718   1.629   5.548  13.229  0.4693 -0.1207 -0.3673
 6768TIP3    H141719   1.617   5.510  13.315  1.1984  1.4355  0.4396
 6768TIP3    H241720   1.565   5.504  13.173  0.5066 -1.6568  0.7991
 6769TIP3   OH241721   4.766   0.839   0.063  0.5472  0.3245 -0.0892
 6769TIP3    H141722   4.821   0.793  -0.001  1.1603  0.5990  0.2347
 6769TIP3    H241723   4.695   0.876   0.011 -0.6893 -2.0931 -0.1735
 6770TIP3   OH241724   1.735   2.417  12.469 -0.1751 -0.1526  0.3474
 6770TIP3    H141725   1.760   2.509  12.475  0.6476 -0.3513 -0.0024
 6770TIP3    H241726   1.654   2.417  12.419  1.3555  0.1349 -2.1953
 6771TIP3   OH241727   3.594   3.623  10.812  0.4992  0.3631 -0.0837
 6771TIP3    H141728   3.619   3.638  10.721 -0.2133 -0.2297 -0.3810
 6771TIP3    H241729   3.523   3.685  10.828  1.6419  1.5298  0.5361
 6772TIP3   OH241730   3.405   0.955  10.518  0.3760 -0.4831  0.4467
 6772TIP3    H141731   3.322   0.923  10.482  0.5393 -0.0906 -0.2804
 6772TIP3    H241732   3.380   1.031  10.570  0.1346 -1.0832  1.2201
 6773TIP3   OH241733   2.200   1.200  16.433  0.0885  0.0151  0.0469
 6773TIP3    H141734   2.276   1.195  16.376  0.6492 -1.5668  0.8956
 6773TIP3    H241735   2.185   1.109  16.461 -0.3124  0.7079  2.2006
 6774TIP3   OH241736   6.569   3.332   4.616  0.3627  0.1889 -0.1921
 6774TIP3    H141737   6.580   3.302   4.526 -1.5535  0.2575 -0.4757
 6774TIP3    H241738   6.494   3.282   4.649  0.5819  0.7043  1.1216
 6775TIP3   OH241739   2.233   2.828   4.994 -0.3345  0.6190 -0.0893
 6775TIP3    H141740   2.144   2.801   4.970 -0.2050  1.1961 -1.2600
 6775TIP3    H241741   2.245   2.912   4.948  1.3051 -0.1405 -1.0701
 6776TIP3   OH241742   0.247   5.545   1.662 -0.3280 -0.1359  0.1428
 6776TIP3    H141743   0.248   5.615   1.728  2.8192  0.4973 -0.5053
 6776TIP3    H241744   0.181   5.484   1.694 -1.4971  1.9689  1.9596
 6777TIP3   OH241745   0.235   2.344   0.522  0.0456 -0.3646  0.4475
 6777TIP3    H141746   0.244   2.249   0.517  1.2122 -0.1988 -1.1416
 6777TIP3    H241747   0.281   2.376   0.444 -1.0000  1.4581  0.5563
 6778TIP3   OH241748   6.542   5.456   5.049  0.4237 -0.1568  0.0903
 6778TIP3    H141749   6.579   5.506   4.976  1.1423  0.1304  0.6414
 6778TIP3    H241750   6.517   5.522   5.113 -0.0665 -0.4164  0.1623
 6779TIP3   OH241751   3.620   1.668   4.209 -0.6385 -0.1277  0.0541
 6779TIP3    H141752   3.579   1.653   4.123  0.5634 -0.2166 -0.5175
 6779TIP3    H241753   3.692   1.605   4.212  0.5645  1.2411  0.2846
 6780TIP3   OH241754   4.685   3.095   5.043  0.2400 -0.3098 -1.3063
 6780TIP3    H141755   4.716   3.165   5.100  0.2006  0.6465 -2.4252
 6780TIP3    H241756   4.630   3.140   4.979 -2.3559 -1.7954 -0.1780
 6781TIP3   OH241757   6.074   4.188   3.795 -0.3727 -0.2015  0.1696
 6781TIP3    H141758   6.066   4.279   3.821  1.5793  0.6144 -1.8588
 6781TIP3    H241759   6.169   4.172   3.790 -0.6651 -2.5621  1.2077
 6782TIP3   OH241760   6.091   4.673   5.438  0.2589 -0.1103  0.1373
 6782TIP3    H141761   6.132   4.695   5.355 -0.5143  0.4599 -0.1050
 6782TIP3    H241762   6.139   4.725   5.503  0.8516 -0.5464  0.0488
 6783TIP3   OH241763   4.950   3.462   3.608 -0.5139 -0.4600 -1.1294
 6783TIP3    H141764   4.904   3.385   3.643  0.0001 -0.5138 -0.5728
 6783TIP3    H241765   5.005   3.492   3.680  0.2271 -0.3125 -1.7530
 6784TIP3   OH241766   6.072   1.704   4.978 -0.3107 -0.0066  0.3495
 6784TIP3    H141767   6.165   1.728   4.987  0.4124 -2.3196 -0.7164
 6784TIP3    H241768   6.066   1.665   4.891 -2.1396 -0.6131  0.7438
 6785TIP3   OH241769   6.471   3.396  10.807 -0.4269  0.3672 -0.1585
 6785TIP3    H141770   6.563   3.422  10.810 -0.1803 -0.4921 -0.1394
 6785TIP3    H241771   6.446   3.404  10.715 -0.1976  0.1591 -0.2401
 6786TIP3   OH241772   1.501   2.459   0.557 -0.1475 -0.3323  0.0326
 6786TIP3    H141773   1.555   2.401   0.504  0.7953 -0.2801  0.9100
 6786TIP3    H241774   1.550   2.468   0.639 -1.0585  0.4345  0.4982
 6787TIP3   OH241775   6.748   4.855   0.817 -0.3283 -1.0089 -0.1996
 6787TIP3    H141776   6.719   4.857   0.726  0.3029  0.7297 -0.3878
 6787TIP3    H241777   6.669   4.870   0.868 -0.3011  0.5442 -0.5808
 6788TIP3   OH241778   3.120   2.042  12.557 -0.2914 -0.2701 -0.3265
 6788TIP3    H141779   3.072   2.123  12.573  0.3504  0.4959 -2.1743
 6788TIP3    H241780   3.212   2.069  12.556  0.0126 -1.2511  0.3320
 6789TIP3   OH241781   0.868   2.536   0.966  0.4768  0.6788  0.2094
 6789TIP3    H141782   0.899   2.603   0.905  3.0726 -0.3586  0.3647
 6789TIP3    H241783   0.861   2.457   0.913 -1.6031  0.7755  0.2708
 6790TIP3   OH241784   1.090   1.362  12.194 -0.1033 -0.0662  0.0677
 6790TIP3    H141785   1.170   1.367  12.247  0.0457 -0.2927 -0.1370
 6790TIP3    H241786   1.121   1.355  12.104 -0.3549 -0.1531 -0.0125
 6791TIP3   OH241787   6.309   2.733   5.259 -0.0707 -0.1552  0.0376
 6791TIP3    H141788   6.343   2.646   5.280  0.7683  0.2126  0.2334
 6791TIP3    H241789   6.214   2.724   5.266 -0.1204 -1.5786 -1.9148
 6792TIP3   OH241790   6.630   2.509  12.256 -0.2346 -0.6890 -0.5050
 6792TIP3    H141791   6.567   2.438  12.271 -0.5603 -0.3275 -0.1336
 6792TIP3    H241792   6.628   2.524  12.162 -1.1318 -0.3016 -0.4364
 6793TIP3   OH241793   2.017   6.391   0.107  0.7721 -0.6984  0.6927
 6793TIP3    H141794   2.101   6.437   0.097  0.6323  0.0527  2.7448
 6793TIP3    H241795   1.988   6.375   0.017  1.0191  2.9005 -0.1104
 6794TIP3   OH241796   6.379   2.676  11.236 -0.5168  0.0874  0.0558
 6794TIP3    H141797   6.306   2.735  11.218 -0.3712  0.0680 -0.6032
 6794TIP3    H241798   6.383   2.618  11.160 -0.7414 -0.8578  0.7528
 6795TIP3   OH241799   5.698   5.701  14.561  0.2132  0.4550  0.1900
 6795TIP3    H141800   5.672   5.732  14.648 -2.9707  0.1845 -0.6043
 6795TIP3    H241801   5.662   5.765  14.500  0.8397 -0.3307 -1.0343
 6796TIP3   OH241802   3.046   3.349   4.189 -0.2756 -0.5515  0.3318
 6796TIP3    H141803   3.137   3.365   4.213 -0.1996 -2.0639  1.1300
 6796TIP3    H241804   3.040   3.374   4.097  0.9980 -0.6162  0.2295
 6797TIP3   OH241805   0.621   3.374  13.829 -0.5531  0.2402 -0.3359
 6797TIP3    H141806   0.547   3.378  13.769  1.0483  0.5924 -2.3428
 6797TIP3    H241807   0.689   3.426  13.788  1.4212 -1.4793  0.6051
 6798TIP3   OH241808   5.649   2.439   5.547  0.0779 -0.1064  0.7354
 6798TIP3    H141809   5.618   2.432   5.638 -0.2041  0.6237  0.7045
 6798TIP3    H241810   5.738   2.405   5.549  0.6024  1.2449  1.5839
 6799TIP3   OH241811   5.384   4.899  11.392  0.5262 -0.0729 -0.1806
 6799TIP3    H141812   5.317   4.909  11.459 -0.3025  1.4583 -1.2005
 6799TIP3    H241813   5.342   4.850  11.322  1.4238 -1.7668  0.4229
 6800TIP3   OH241814   4.273   2.620   0.358  0.1153 -0.0218  0.2544
 6800TIP3    H141815   4.256   2.602   0.265  1.2246 -0.5304  0.1374
 6800TIP3    H241816   4.215   2.559   0.405 -1.1099  0.8611 -0.0839
 6801TIP3   OH241817   3.307   3.787  11.408 -0.1822  0.0753  0.2147
 6801TIP3    H141818   3.261   3.786  11.492  0.3162  1.0247  0.5006
 6801TIP3    H241819   3.381   3.728  11.420  0.0957  0.4992  0.5524
 6802TIP3   OH241820   5.067   3.733  14.735  0.7833 -0.2429 -0.4791
 6802TIP3    H141821   5.158   3.763  14.726  0.7501 -0.5529 -2.0456
 6802TIP3    H241822   5.071   3.639  14.717  0.1040 -0.1975 -0.8856
 6803TIP3   OH241823   2.787   3.569   2.674 -0.0148  0.0029  0.1766
 6803TIP3    H141824   2.773   3.478   2.701 -0.2677 -0.2031 -0.6263
 6803TIP3    H241825   2.881   3.583   2.685 -0.0164 -0.2763  0.5447
 6804TIP3   OH241826   5.017   1.146   0.077  0.6959 -0.3670  0.4213
 6804TIP3    H141827   5.105   1.139   0.114  1.0350  2.1226  0.2260
 6804TIP3    H241828   5.022   1.099  -0.006  0.8881 -3.0580  1.9248
 6805TIP3   OH241829   4.533   3.131   6.447 -0.2649  0.0631 -0.1534
 6805TIP3    H141830   4.556   3.088   6.529 -0.5179  2.2695  1.1050
 6805TIP3    H241831   4.587   3.087   6.381 -2.0514 -3.5635  0.7213
 6806TIP3   OH241832   2.067   1.024   3.409 -0.3071  0.3364  0.3003
 6806TIP3    H141833   1.988   1.025   3.463 -1.4651 -2.2813 -1.2332
 6806TIP3    H241834   2.127   1.083   3.454 -3.3475  2.9590  1.1539
 6807TIP3   OH241835   1.089   2.655  16.703 -0.2889  0.5477  0.4046
 6807TIP3    H141836   1.014   2.712  16.722  0.3077  0.9253  1.7210
 6807TIP3    H241837   1.100   2.659  16.608 -0.0517  2.9318  0.5046
 6808TIP3   OH241838   6.175   2.657   1.927  0.6046 -0.4299 -0.4738
 6808TIP3    H141839   6.102   2.703   1.886  0.9177  2.2436  1.7520
 6808TIP3    H241840   6.232   2.632   1.855 -1.1938 -0.1379 -2.0231
 6809TIP3   OH241841   6.470   6.680   2.497  0.0463 -0.4988  0.0129
 6809TIP3    H141842   6.403   6.742   2.468  0.5800  0.3197  0.5159
 6809TIP3    H241843   6.553   6.723   2.475  0.4267 -2.1718 -2.0429
 6810TIP3   OH241844   3.632   6.493   4.323 -0.1107  0.7603 -0.2474
 6810TIP3    H141845   3.714   6.539   4.340  1.5061 -2.2687  0.4799
 6810TIP3    H241846   3.634   6.475   4.229 -0.1899  1.1263 -0.3202
 6811TIP3   OH241847   0.255   1.966  13.917 -0.1084  0.0563  0.6544
 6811TIP3    H141848   0.204   2.031  13.870 -0.8456 -0.5906  0.5370
 6811TIP3    H241849   0.199   1.888  13.920  0.8708 -0.6800  0.5084
 6812TIP3   OH241850   5.688   2.790   1.898 -0.1439 -0.7984  0.3341
 6812TIP3    H141851   5.609   2.834   1.865 -1.2639 -1.5641  1.9360
 6812TIP3    H241852   5.656   2.727   1.963  1.7849 -1.1248  1.0208
 6813TIP3   OH241853   4.399   3.716  11.212 -0.6913  1.2989 -0.6117
 6813TIP3    H141854   4.369   3.628  11.235 -1.7317  2.1477  1.4179
 6813TIP3    H241855   4.363   3.772  11.281  1.8292  2.9997 -0.6119
 6814TIP3   OH241856   1.419   2.556  16.572 -1.0648  0.4538  0.2878
 6814TIP3    H141857   1.362   2.622  16.533 -1.1762 -0.0009 -0.3260
 6814TIP3    H241858   1.505   2.573  16.534 -0.9359  0.6956  0.6813
 6815TIP3   OH241859   5.312   4.866   4.605  0.6903  0.5157 -0.0359
 6815TIP3    H141860   5.311   4.896   4.514  1.3331  0.2855 -0.1197
 6815TIP3    H241861   5.388   4.809   4.611  0.1913 -0.1112  0.4468
 6816TIP3   OH241862   5.314   6.294   0.157 -0.5941 -0.4422 -0.7112
 6816TIP3    H141863   5.252   6.329   0.221 -1.8089 -1.0570 -1.5220
 6816TIP3    H241864   5.375   6.366   0.140 -1.2180  0.2439 -0.0586
 6817TIP3   OH241865   3.788   6.441  15.953 -0.3618 -0.5350  0.0482
 6817TIP3    H141866   3.880   6.432  15.929  0.2002 -2.5889  2.6720
 6817TIP3    H241867   3.757   6.516  15.903  2.7862  0.3005 -0.7639
 6818TIP3   OH241868   0.180   5.877  15.626  0.0294 -1.0223  0.1615
 6818TIP3    H141869   0.216   5.963  15.606  0.0480 -1.3581 -1.3009
 6818TIP3    H241870   0.086   5.886  15.613  0.0339 -1.2350 -0.0192
 6819TIP3   OH241871   2.364   0.280   5.095  0.2470  0.3061 -0.1844
 6819TIP3    H141872   2.429   0.291   5.165  0.5426  0.5682 -0.5013
 6819TIP3    H241873   2.280   0.293   5.138  0.3571 -0.8043  0.3981
 6820TIP3   OH241874   0.003   4.114   0.227  0.2827 -0.7671 -0.1705
 6820TIP3    H141875  -0.013   4.153   0.313  0.1602  1.3018 -1.0957
 6820TIP3    H241876   0.098   4.119   0.215  0.4339 -2.1535  0.3224
 6821TIP3   OH241877   5.703   1.596  12.529 -0.2268 -0.0352  0.5966
 6821TIP3    H141878   5.639   1.526  12.538 -0.5890  0.3902  1.3515
 6821TIP3    H241879   5.773   1.558  12.476 -0.9875 -0.5762 -0.0159
 6822TIP3   OH241880   2.570   0.073  15.736 -0.1631  0.1114  0.5591
 6822TIP3    H141881   2.590   0.165  15.721  1.6832 -0.6410 -1.9889
 6822TIP3    H241882   2.637   0.043  15.797  0.7650 -0.1346 -0.5722
 6823TIP3   OH241883   5.351   2.420   1.960 -0.5717 -0.1096  0.1508
 6823TIP3    H141884   5.403   2.341   1.949  0.4680  0.8416 -1.9737
 6823TIP3    H241885   5.273   2.405   1.906 -0.7253  0.0154  0.3351
 6824TIP3   OH241886   0.317   1.284  13.511 -0.3455 -0.5512 -0.2941
 6824TIP3    H141887   0.291   1.360  13.459  3.4347  0.2944 -1.1196
 6824TIP3    H241888   0.350   1.221  13.447  2.9911 -0.0761  0.8657
 6825TIP3   OH241889   3.731   4.222   4.240  0.0740 -0.0398 -0.3257
 6825TIP3    H141890   3.777   4.236   4.158  1.0119  1.4354  0.4217
 6825TIP3    H241891   3.726   4.127   4.250  3.2255 -0.2450 -0.2819
 6826TIP3   OH241892   0.891   3.911  14.508 -0.0476 -0.5108 -0.5136
 6826TIP3    H141893   0.932   3.826  14.492 -0.9092 -0.9520 -0.4024
 6826TIP3    H241894   0.859   3.906  14.598  0.3895  0.1390 -0.3143
 6827TIP3   OH241895   6.784   3.079  15.437 -0.3475 -0.4982 -0.2019
 6827TIP3    H141896   6.875   3.107  15.442 -0.2426 -0.7300 -0.7787
 6827TIP3    H241897   6.756   3.105  15.349 -1.3554  1.1257  0.5774
 6828TIP3   OH241898   2.505   2.622   1.969  0.6344 -0.2825 -0.5880
 6828TIP3    H141899   2.418   2.646   2.001  1.6339  1.2790  1.1060
 6828TIP3    H241900   2.556   2.606   2.049  1.9417 -0.9942 -1.5502
 6829TIP3   OH241901   3.246   3.388  10.941 -0.5348 -0.3133  0.1091
 6829TIP3    H141902   3.220   3.396  10.850 -0.5512 -1.9646 -0.0416
 6829TIP3    H241903   3.268   3.295  10.952 -0.8263 -0.1902  1.8577
 6830TIP3   OH241904   6.487   1.086  12.588  0.1032 -0.2321  0.6796
 6830TIP3    H141905   6.536   1.106  12.668  1.2021 -0.3094  0.0356
 6830TIP3    H241906   6.539   1.126  12.518 -1.4756  0.8587  0.1153
 6831TIP3   OH241907   3.831   6.650  16.593 -0.5652 -0.1778 -0.6458
 6831TIP3    H141908   3.890   6.583  16.627  1.1396  1.0244 -1.1662
 6831TIP3    H241909   3.779   6.605  16.526  0.7315 -0.9086 -1.1666
 6832TIP3   OH241910   5.189   2.887   1.297 -0.3201 -0.0424  0.2733
 6832TIP3    H141911   5.161   2.886   1.206 -1.1145 -2.0711  0.5114
 6832TIP3    H241912   5.109   2.868   1.347  0.5101 -1.0951  1.2413
 6833TIP3   OH241913   6.300   4.177  16.891  0.2853  0.2626  0.2540
 6833TIP3    H141914   6.330   4.237  16.959  0.6933 -0.0804  0.3736
 6833TIP3    H241915   6.276   4.097  16.938 -2.0537  0.9533  0.3317
 6834TIP3   OH241916   1.079   4.370  12.772  0.3399 -0.3463 -0.5884
 6834TIP3    H141917   1.172   4.362  12.751  0.3226 -0.1375 -0.7488
 6834TIP3    H241918   1.034   4.325  12.700  0.2317  1.3606 -1.6238
 6835TIP3   OH241919   1.887   4.173   4.084 -0.1211  0.5235 -0.0823
 6835TIP3    H141920   1.825   4.101   4.082 -2.2921  2.3284  0.1618
 6835TIP3    H241921   1.871   4.217   4.168  0.2005  2.0891 -0.8121
 6836TIP3   OH241922   0.831   3.171  13.203 -0.5065 -0.0634  0.3137
 6836TIP3    H141923   0.777   3.143  13.130 -1.4645  1.7085  0.3348
 6836TIP3    H241924   0.884   3.243  13.169  1.1438 -1.1060  0.5743
 6837TIP3   OH241925   4.173   1.749  16.903 -0.4759  0.1574  0.3307
 6837TIP3    H141926   4.222   1.830  16.919  1.8200 -1.2757  0.7243
 6837TIP3    H241927   4.081   1.775  16.912  0.2409  2.5853  1.0671
 6838TIP3   OH241928   6.419   3.568  12.610 -0.0667  1.0447 -0.2448
 6838TIP3    H141929   6.374   3.548  12.692  0.5318 -0.5638 -0.2884
 6838TIP3    H241930   6.427   3.664  12.609  1.5490  0.9997  2.4629
 6839TIP3   OH241931   4.275   3.004  12.347 -0.0414 -0.0193  0.6750
 6839TIP3    H141932   4.184   3.033  12.356  0.0752  0.7285 -0.5254
 6839TIP3    H241933   4.324   3.060  12.407 -0.1233  0.7741  0.0002
 6840TIP3   OH241934   4.869   3.330  10.579  0.3078 -0.1229 -0.1469
 6840TIP3    H141935   4.776   3.351  10.589  0.1169 -0.8607 -0.2963
 6840TIP3    H241936   4.915   3.406  10.614 -0.3525  0.5280 -0.6834
 6841TIP3   OH241937   4.322   6.338  15.120 -0.5183 -0.7987  0.8215
 6841TIP3    H141938   4.287   6.342  15.031 -1.8921  0.6849  1.3904
 6841TIP3    H241939   4.273   6.268  15.162 -0.1134 -1.2689  0.5100
 6842TIP3   OH241940   6.405   5.826   1.408  0.0459  0.4106  0.8150
 6842TIP3    H141941   6.432   5.824   1.500 -0.2330 -0.0065  0.8874
 6842TIP3    H241942   6.375   5.737   1.390 -1.8959  1.0405  0.9015
 6843TIP3   OH241943   1.239   5.584   5.864  0.2157  0.3830  0.1193
 6843TIP3    H141944   1.247   5.573   5.958  1.3063 -1.2221 -0.1373
 6843TIP3    H241945   1.147   5.608   5.850 -0.5016 -1.4902  1.4069
 6844TIP3   OH241946   4.877   2.903   0.438 -0.2105  0.4695  0.4145
 6844TIP3    H141947   4.831   2.974   0.482 -0.6718  0.3848  0.0690
 6844TIP3    H241948   4.918   2.944   0.362  0.5763  0.6129  0.9112
 6845TIP3   OH241949   3.587   0.787   3.010  1.0014 -0.0401  0.0457
 6845TIP3    H141950   3.677   0.817   2.999  0.6562  1.0277  0.1035
 6845TIP3    H241951   3.553   0.781   2.921  1.3068 -1.0335 -0.0161
 6846TIP3   OH241952   4.059   1.443   3.442 -0.5473 -0.3510 -0.1685
 6846TIP3    H141953   3.984   1.400   3.484 -0.6120  0.5767  0.6894
 6846TIP3    H241954   4.055   1.415   3.351 -1.6687 -0.6767 -0.0240
 6847TIP3   OH241955   6.383   2.318   4.924  0.8008  0.3021 -0.2036
 6847TIP3    H141956   6.313   2.382   4.929  0.9146  0.6029 -1.9408
 6847TIP3    H241957   6.374   2.266   5.004  1.0652  2.8164  1.5311
 6848TIP3   OH241958   0.572   0.974   6.409 -0.2639 -1.0353  0.1140
 6848TIP3    H141959   0.622   1.030   6.350 -0.2903 -2.5788 -1.4237
 6848TIP3    H241960   0.488   1.017   6.419  0.9081  0.9850  1.7809
 6849TIP3   OH241961   1.911   0.302   0.878  0.5400  0.9602  0.4807
 6849TIP3    H141962   1.952   0.230   0.926 -0.4045 -1.8903 -2.8119
 6849TIP3    H241963   1.983   0.362   0.858  2.1581 -1.2769 -0.5311
 6850TIP3   OH241964   0.698   5.194   5.829 -0.3530  0.3893  0.0229
 6850TIP3    H141965   0.740   5.212   5.746  0.4178 -0.1143  0.3014
 6850TIP3    H241966   0.604   5.199   5.810 -0.2564 -2.9697 -1.6211
 6851TIP3   OH241967   3.519   6.722  12.082  0.1884  0.9521 -0.0402
 6851TIP3    H141968   3.483   6.734  12.170 -1.4689  3.5047 -1.0024
 6851TIP3    H241969   3.590   6.786  12.076  1.5456 -0.5062  0.0418
 6852TIP3   OH241970   3.720   3.092   2.708 -0.4131  0.1072 -0.2406
 6852TIP3    H141971   3.716   3.075   2.802  0.3339  0.0804 -0.2132
 6852TIP3    H241972   3.780   3.166   2.700 -0.1596 -0.1546 -0.7365
 6853TIP3   OH241973   0.696   2.562  11.433 -0.0306 -0.3175 -0.1918
 6853TIP3    H141974   0.788   2.547  11.454  0.0510  1.7527  1.1717
 6853TIP3    H241975   0.652   2.561  11.518 -0.7518  1.7202 -0.5018
 6854TIP3   OH241976   0.893   5.042   0.286  0.3608  0.3107 -0.1364
 6854TIP3    H141977   0.970   4.986   0.291 -0.8182 -1.2008  1.8555
 6854TIP3    H241978   0.834   4.996   0.227 -0.0930  0.1018  0.4786
 6855TIP3   OH241979   2.465   5.723   2.355  0.7835 -0.5236  0.2109
 6855TIP3    H141980   2.534   5.790   2.352 -0.3170  0.6045 -1.8885
 6855TIP3    H241981   2.512   5.640   2.353  2.1027  0.2164 -0.5744
 6856TIP3   OH241982   1.123   3.237   1.570  0.3071  0.6712 -0.1534
 6856TIP3    H141983   1.087   3.299   1.633  1.0607  1.0708 -0.1164
 6856TIP3    H241984   1.154   3.164   1.624 -1.2317 -0.0711 -0.2507
 6857TIP3   OH241985   2.038   5.112   3.490  0.1448 -0.1846 -0.1808
 6857TIP3    H141986   2.095   5.165   3.435  2.6633 -0.6908  1.8628
 6857TIP3    H241987   2.045   5.151   3.577 -0.9258 -1.5852  0.5626
 6858TIP3   OH241988   2.553   4.176   2.515 -0.1387 -0.2996 -0.2899
 6858TIP3    H141989   2.607   4.251   2.540  0.6652 -0.9913  0.0963
 6858TIP3    H241990   2.478   4.179   2.575  1.2148 -1.3036  1.4870
 6859TIP3   OH241991   1.019   1.049   3.907  0.0737  0.3107  0.3990
 6859TIP3    H141992   0.924   1.046   3.891  0.2615 -0.5579 -0.6306
 6859TIP3    H241993   1.030   1.120   3.971 -0.9673  2.4122 -1.6646
 6860TIP3   OH241994   0.886   0.139  15.277 -0.2714 -0.0862  0.5047
 6860TIP3    H141995   0.907   0.205  15.211  0.4796  1.5447  2.3098
 6860TIP3    H241996   0.836   0.073  15.230  0.4796  0.8945 -1.7468
 6861TIP3   OH241997   3.265   2.624  15.858 -0.6062  0.3921  0.6621
 6861TIP3    H141998   3.271   2.544  15.804 -0.1098  0.5562  0.4688
 6861TIP3    H241999   3.292   2.596  15.945 -2.6339 -0.1620  1.1341
 6862TIP3   OH242000   3.158   3.799  11.068 -0.1277  0.4454 -0.1959
 6862TIP3    H142001   3.182   3.708  11.083 -0.7638  0.4510  0.9092
 6862TIP3    H242002   3.242   3.844  11.058  0.2028 -0.1653 -0.2248
 6863TIP3   OH242003   6.242   3.787  12.673  0.2696  0.6871 -0.6252
 6863TIP3    H142004   6.197   3.712  12.635  1.4548  1.3415 -3.4166
 6863TIP3    H242005   6.175   3.855  12.680 -0.1723  0.2557 -0.7049
 6864TIP3   OH242006   1.630   4.260  14.621 -0.3731  1.0237  0.1475
 6864TIP3    H142007   1.664   4.346  14.596  1.5414  0.6269  1.3732
 6864TIP3    H242008   1.618   4.265  14.715  1.1885 -0.5447  0.4475
 6865TIP3   OH242009   6.563   6.489   1.685 -0.1027  0.8880 -0.3332
 6865TIP3    H142010   6.482   6.438   1.680 -0.7969  1.7671  1.2654
 6865TIP3    H242011   6.555   6.553   1.615 -0.4119  0.4323 -0.7166
 6866TIP3   OH242012   5.965   2.456   3.173 -0.5469  0.0294 -0.8471
 6866TIP3    H142013   5.979   2.385   3.235 -0.7601  0.3488 -0.4264
 6866TIP3    H242014   5.921   2.524   3.225 -3.9391 -1.0479 -2.2009
 6867TIP3   OH242015   0.978   3.426   2.120 -0.1876 -0.1420 -1.0249
 6867TIP3    H142016   0.994   3.513   2.083 -2.5558 -0.4337 -2.7732
 6867TIP3    H242017   0.905   3.391   2.071 -1.4592 -1.8006  1.8923
 6868TIP3   OH242018   6.323   1.602  13.617  0.0475 -0.2657  0.2389
 6868TIP3    H142019   6.396   1.562  13.666 -0.2890 -0.3684  0.6611
 6868TIP3    H242020   6.343   1.583  13.526  1.2249  0.8316  0.2568
 6869TIP3   OH242021   0.053   4.507   2.174 -0.2325 -0.3265 -0.2215
 6869TIP3    H142022   0.147   4.494   2.184  0.0208  2.0103  0.6436
 6869TIP3    H242023   0.029   4.566   2.245 -1.6496  2.0965 -2.5982
 6870TIP3   OH242024   2.482   6.701  16.007  0.4605  0.5394 -0.2237
 6870TIP3    H142025   2.432   6.770  15.965 -0.5557  0.3382  0.6372
 6870TIP3    H242026   2.552   6.746  16.055  0.0278  0.9397  0.0267
 6871TIP3   OH242027   1.053   0.464  12.724 -0.3291 -0.1150  0.1532
 6871TIP3    H142028   1.008   0.386  12.755 -0.8673  0.2527  0.2898
 6871TIP3    H242029   1.025   0.474  12.633 -1.5102  0.8318  0.6119
 6872TIP3   OH242030   4.238   3.206  16.652 -0.8437 -0.2787  0.1740
 6872TIP3    H142031   4.208   3.228  16.564 -1.5570 -0.6022  0.3296
 6872TIP3    H242032   4.280   3.120  16.643  1.8248  1.0478 -0.4122
 6873TIP3   OH242033   0.448   4.030   3.562 -0.2296  0.0013 -0.4070
 6873TIP3    H142034   0.493   4.114   3.570  0.4207 -0.3902  0.0236
 6873TIP3    H242035   0.494   3.984   3.492 -0.4701 -0.0784 -0.5162
 6874TIP3   OH242036   5.250   0.750  11.813 -0.7866 -0.1502 -0.3372
 6874TIP3    H142037   5.160   0.745  11.780 -0.1280 -0.6818 -2.1478
 6874TIP3    H242038   5.269   0.844  11.818 -1.6050 -0.0298  0.5353
 6875TIP3   OH242039   3.023   6.311  14.688 -0.5159 -0.2224 -0.0724
 6875TIP3    H142040   3.001   6.227  14.648  0.7111 -0.9972  0.8310
 6875TIP3    H242041   2.943   6.339  14.733 -1.2696 -0.3444 -1.3097
 6876TIP3   OH242042   5.013   5.163   4.296  0.1616  0.0730 -0.3249
 6876TIP3    H142043   5.062   5.215   4.360  0.1757  0.0749 -0.3375
 6876TIP3    H242044   4.922   5.189   4.310  0.0849 -0.4758  0.2059
 6877TIP3   OH242045   5.162   3.220  13.076  0.8215 -0.2369  0.5499
 6877TIP3    H142046   5.246   3.184  13.046  0.1895 -0.4538 -1.0369
 6877TIP3    H242047   5.139   3.167  13.153  2.1532 -0.1398  1.0242
 6878TIP3   OH242048   5.375   5.392   2.451 -0.0102 -0.1470 -0.7263
 6878TIP3    H142049   5.316   5.317   2.464 -0.5899  0.4703  0.3350
 6878TIP3    H242050   5.362   5.418   2.360  1.7942 -2.6708 -1.7583
 6879TIP3   OH242051   5.030   3.482   3.331  0.4729  0.2948  0.0725
 6879TIP3    H142052   4.975   3.486   3.409 -1.2654 -0.7938 -1.0605
 6879TIP3    H242053   5.114   3.447   3.363  0.1648  0.9508  1.6353
 6880TIP3   OH242054   4.296   5.434  13.226  0.3166 -0.4802 -0.0521
 6880TIP3    H142055   4.352   5.405  13.297  0.0081  1.7095  1.1227
 6880TIP3    H242056   4.208   5.406  13.251  0.5208 -1.6770 -0.6620
 6881TIP3   OH242057   1.418   0.802   1.340 -0.4439 -0.3238  0.2693
 6881TIP3    H142058   1.405   0.708   1.324 -1.9055 -0.4095  1.7422
 6881TIP3    H242059   1.329   0.835   1.356  0.2494  0.9389  1.6395
 6882TIP3   OH242060   4.638   4.706   3.369 -0.2930  0.3021  0.9149
 6882TIP3    H142061   4.709   4.665   3.418 -0.5782 -0.5389  0.6417
 6882TIP3    H242062   4.566   4.642   3.373 -0.0448 -0.1811 -1.2871
 6883TIP3   OH242063   6.634   0.053  11.027  0.2171  0.2525 -0.1454
 6883TIP3    H142064   6.625   0.124  11.090  2.3892 -0.6431  1.2193
 6883TIP3    H242065   6.712   0.076  10.976 -1.7391  1.1851 -2.8477
 6884TIP3   OH242066   5.575   4.898   4.501  0.1552 -0.2128  0.1565
 6884TIP3    H142067   5.583   4.967   4.435  2.4953 -2.5663 -2.1398
 6884TIP3    H242068   5.591   4.817   4.453  1.4171 -2.0602  3.5327
 6885TIP3   OH242069   1.835   5.591   5.962 -0.5973  0.1243 -0.5382
 6885TIP3    H142070   1.905   5.656   5.948  0.3081 -0.1540  2.4415
 6885TIP3    H242071   1.880   5.515   5.999 -2.4658 -0.0754  1.3967
 6886TIP3   OH242072   4.518   5.333  14.521  0.5751 -0.0719  0.3125
 6886TIP3    H142073   4.441   5.386  14.501  0.6686  0.5477  1.5435
 6886TIP3    H242074   4.592   5.392  14.507  0.8441 -0.6708 -0.8891
 6887TIP3   OH242075   4.155   0.084  13.753 -0.0824  0.0020  0.3764
 6887TIP3    H142076   4.195   0.001  13.776  0.1372 -0.2472 -0.8660
 6887TIP3    H242077   4.172   0.141  13.829 -0.0061 -0.9931  1.1105
 6888TIP3   OH242078   2.402   4.618   5.587 -0.6692  0.2917  0.3240
 6888TIP3    H142079   2.372   4.665   5.664  0.0035  0.2723  0.6055
 6888TIP3    H242080   2.415   4.686   5.521  0.4501  0.5391  0.7768
 6889TIP3   OH242081   0.228   0.328   1.152 -0.6071 -0.3492 -0.2566
 6889TIP3    H142082   0.205   0.275   1.076  1.2792 -2.1486  0.4095
 6889TIP3    H242083   0.165   0.302   1.219 -0.0621 -1.3231 -0.1166
 6890TIP3   OH242084   1.247   4.427  16.316 -0.0883 -0.1598 -0.3284
 6890TIP3    H142085   1.237   4.410  16.222  1.8946 -3.1007 -0.0572
 6890TIP3    H242086   1.328   4.478  16.323 -0.6059  0.6710 -0.2375
 6891TIP3   OH242087   5.887   5.573  16.802 -0.0205  0.6233  0.0091
 6891TIP3    H142088   5.963   5.595  16.749 -0.1562  2.8047  0.6897
 6891TIP3    H242089   5.907   5.485  16.836  2.3779  1.3138  0.4946
 6892TIP3   OH242090   3.295   2.433  15.391  0.0491 -0.3754  0.1858
 6892TIP3    H142091   3.235   2.420  15.317 -1.8273 -1.0205  1.7889
 6892TIP3    H242092   3.343   2.350  15.398  1.3210  0.2047 -1.2106
 6893TIP3   OH242093   1.482   6.524   5.927 -0.6791  0.2899 -0.3805
 6893TIP3    H142094   1.475   6.428   5.920 -0.1920  0.3469 -1.7043
 6893TIP3    H242095   1.538   6.538   6.003 -0.9226 -0.4700 -0.0504
 6894TIP3   OH242096   3.340   3.134  15.835 -0.4340  0.6361 -0.2955
 6894TIP3    H142097   3.398   3.155  15.908  0.0173 -0.1756 -0.4110
 6894TIP3    H242098   3.339   3.038  15.833 -1.7341  0.6334 -0.3249
 6895TIP3   OH242099   3.821   2.127   4.286  0.8118 -0.0172  0.6522
 6895TIP3    H142100   3.866   2.086   4.212 -1.3392 -2.0858  0.4189
 6895TIP3    H242101   3.743   2.167   4.248  1.0883  1.2927  1.4267
 6896TIP3   OH242102   6.548   2.519   0.828 -0.1079 -0.5182 -0.1697
 6896TIP3    H142103   6.488   2.581   0.787 -0.7468 -1.3479 -0.5047
 6896TIP3    H242104   6.630   2.568   0.838 -0.8291  0.6167  0.2732
 6897TIP3   OH242105   3.495   0.264  11.498 -0.0080 -0.2617 -0.4161
 6897TIP3    H142106   3.493   0.195  11.565 -0.8124  0.3893  0.2342
 6897TIP3    H242107   3.446   0.337  11.536  0.5799  0.5701 -1.2230
 6898TIP3   OH242108   4.407   3.589   2.772  0.1396 -0.2893  0.1634
 6898TIP3    H142109   4.466   3.637   2.714  1.1482 -0.8630  0.6940
 6898TIP3    H242110   4.428   3.496   2.757  0.1930 -0.4545  1.1976
 6899TIP3   OH242111   5.420   3.213  12.824 -0.2427 -0.2699 -0.0859
 6899TIP3    H142112   5.387   3.198  12.735  0.2229  0.8986 -0.4622
 6899TIP3    H242113   5.511   3.239  12.812 -0.2211  0.0313  0.7241
 6900TIP3   OH242114   1.887   5.949  14.071 -0.1396  0.4386 -0.7642
 6900TIP3    H142115   1.923   5.942  13.982  1.6984 -0.7439  0.0404
 6900TIP3    H242116   1.821   6.018  14.065  1.4458  1.8470 -2.5743
 6901TIP3   OH242117   3.212   3.379   1.663  0.0643  0.4940 -0.4734
 6901TIP3    H142118   3.176   3.319   1.598  0.1405 -0.0483 -0.0209
 6901TIP3    H242119   3.161   3.459   1.652  0.0858  0.4140 -1.2045
 6902TIP3   OH242120   3.845   4.157   0.083  0.0625  0.0156 -0.1131
 6902TIP3    H142121   3.818   4.097   0.014  0.0162 -1.4194  1.1311
 6902TIP3    H242122   3.876   4.100   0.153  2.5785  1.5225  0.0452
 6903TIP3   OH242123   4.442   1.453   5.841  0.4534 -0.2395  0.1386
 6903TIP3    H142124   4.515   1.445   5.902  0.2272 -0.3515  0.3975
 6903TIP3    H242125   4.368   1.479   5.896  0.2514 -0.3244 -0.0930
 6904TIP3   OH242126   3.110   5.055   4.990 -0.6466 -0.5425 -0.3603
 6904TIP3    H142127   3.112   4.986   5.056 -1.3004  0.3619  0.6314
 6904TIP3    H242128   3.088   5.011   4.908  0.2586 -1.6917  0.0092
 6905TIP3   OH242129   0.222   4.530  16.541  0.3840  0.0711 -0.3219
 6905TIP3    H142130   0.273   4.556  16.618 -1.5605  0.8449  0.7335
 6905TIP3    H242131   0.164   4.461  16.572  1.0620 -1.1184 -1.6256
 6906TIP3   OH242132   6.611   2.932  15.218  0.4234 -0.5308 -0.3550
 6906TIP3    H142133   6.621   3.026  15.233 -1.2432 -0.1582 -1.4894
 6906TIP3    H242134   6.684   2.909  15.161  0.1677  0.3025 -1.0214
 6907TIP3   OH242135   6.462   0.823  13.833 -0.9641  0.0922  0.1236
 6907TIP3    H142136   6.412   0.742  13.846 -0.3671 -0.0291  1.9307
 6907TIP3    H242137   6.553   0.797  13.851 -0.2416  0.3147 -3.0727
 6908TIP3   OH242138   1.430   5.508  10.644 -0.0304  0.7460 -0.0073
 6908TIP3    H142139   1.392   5.452  10.712 -1.6095 -0.2958 -1.6876
 6908TIP3    H242140   1.525   5.502  10.658 -0.2495 -1.0442  0.8631
 6909TIP3   OH242141   5.518   3.755   1.018 -0.4942  0.2388  0.2597
 6909TIP3    H142142   5.556   3.697   1.084  0.8762  0.8748  0.0636
 6909TIP3    H242143   5.508   3.839   1.062  2.1532  1.1839 -0.7842
 6910TIP3   OH242144   3.692   6.001  11.667 -0.0290  0.0829  0.1023
 6910TIP3    H142145   3.735   6.067  11.611  0.6999 -0.3510  0.1420
 6910TIP3    H242146   3.738   6.009  11.751 -0.7186  0.3164  0.4620
 6911TIP3   OH242147   2.349   1.650  13.450 -0.0595  0.1384 -0.1813
 6911TIP3    H142148   2.272   1.597  13.473  0.5009 -0.7231 -0.2403
 6911TIP3    H242149   2.416   1.622  13.513  0.3892  0.4327 -0.5274
 6912TIP3   OH242150   6.130   6.500   3.160  0.5597 -0.2438  0.0781
 6912TIP3    H142151   6.043   6.463   3.145 -0.0381  0.6646  1.2941
 6912TIP3    H242152   6.177   6.485   3.077 -1.2010  0.5389 -1.0919
 6913TIP3   OH242153   0.229   1.675  12.261  0.1609 -0.2980 -0.0515
 6913TIP3    H142154   0.171   1.633  12.197  0.1951 -3.1563  1.7084
 6913TIP3    H242155   0.171   1.733  12.311 -0.2135  0.5688 -1.4648
 6914TIP3   OH242156   2.088   6.732   4.197 -0.6974  0.0933 -0.4170
 6914TIP3    H142157   2.074   6.794   4.126 -2.3756  1.6038  1.1685
 6914TIP3    H242158   2.092   6.646   4.155 -1.3914  0.9885 -2.3471
 6915TIP3   OH242159   6.612   3.879  15.071  0.0804 -0.2731 -0.4819
 6915TIP3    H142160   6.583   3.898  14.982 -2.3301 -0.4441  0.2443
 6915TIP3    H242161   6.628   3.965  15.110  1.2511 -0.2025 -1.0937
 6916TIP3   OH242162   3.031   5.287   1.540 -0.5177 -0.5447  0.1886
 6916TIP3    H142163   2.989   5.201   1.547 -0.6797 -0.4059  0.9570
 6916TIP3    H242164   3.124   5.267   1.526 -0.5505 -0.8427  0.4004
 6917TIP3   OH242165   2.098   0.067  10.549 -0.4929 -0.1729 -0.0791
 6917TIP3    H142166   2.022   0.038  10.497 -0.0945 -0.1015 -0.7025
 6917TIP3    H242167   2.066   0.142  10.599 -1.4743 -1.4874  1.3543
 6918TIP3   OH242168   3.477   5.735   3.823  0.5062 -0.6094 -0.1522
 6918TIP3    H142169   3.479   5.641   3.836 -1.7052 -0.6455  0.0535
 6918TIP3    H242170   3.499   5.747   3.730  3.8204 -1.0961  0.4966
 6919TIP3   OH242171   3.455   1.788  16.478  0.0758 -0.4040  0.2178
 6919TIP3    H142172   3.484   1.697  16.487  0.3374 -0.3587 -0.1656
 6919TIP3    H242173   3.373   1.791  16.527  0.5196 -0.6252  0.9927
 6920TIP3   OH242174   6.028   3.814   3.517 -0.1510 -0.1062 -0.0386
 6920TIP3    H142175   5.984   3.754   3.457 -0.7276  0.2420  0.0275
 6920TIP3    H242176   5.966   3.887   3.527  0.4352  0.3852  0.0682
 6921TIP3   OH242177   0.600   3.203  15.733  0.3546 -0.2774  0.3872
 6921TIP3    H142178   0.615   3.229  15.642  0.1884 -0.2150  0.3767
 6921TIP3    H242179   0.549   3.275  15.770 -0.1614 -0.6217  0.3404
 6922TIP3   OH242180   0.406   5.334  16.438 -0.3060 -0.2776 -0.1459
 6922TIP3    H142181   0.441   5.300  16.355 -0.9298 -1.3948  0.0470
 6922TIP3    H242182   0.484   5.352  16.491  0.0280 -1.5471 -0.1911
 6923TIP3   OH242183   1.026   4.235  16.905  0.5248 -0.2234 -0.3157
 6923TIP3    H142184   1.052   4.176  16.834 -0.0170  0.9941 -1.5539
 6923TIP3    H242185   1.011   4.319  16.862 -0.3880  0.3940  1.1651
 6924TIP3   OH242186   6.632   5.553   2.686 -0.4779  0.4540  0.2314
 6924TIP3    H142187   6.720   5.528   2.711  0.9210 -0.1222 -4.8020
 6924TIP3    H242188   6.579   5.475   2.702  0.7043 -0.4623 -0.2518
 6925TIP3   OH242189   3.707   2.617   2.698  0.0169 -0.1456 -0.1233
 6925TIP3    H142190   3.738   2.707   2.682 -0.8445 -0.0386 -1.2726
 6925TIP3    H242191   3.616   2.618   2.670  0.0811 -1.4449 -0.4021
 6926TIP3   OH242192   0.174   5.154  14.365  0.1232 -0.0744  0.2639
 6926TIP3    H142193   0.225   5.111  14.296  0.3936  0.0494  0.3823
 6926TIP3    H242194   0.196   5.247  14.357  0.0320 -0.0394  0.4112
 6927TIP3   OH242195   2.615   5.936  12.504  0.5652  0.1793  0.6166
 6927TIP3    H142196   2.664   5.859  12.534  0.2775 -0.3380 -0.2233
 6927TIP3    H242197   2.655   6.009  12.551  2.7411 -0.1089 -0.7049
 6928TIP3   OH242198   0.106   6.492  14.264 -1.0740 -0.3013 -0.1868
 6928TIP3    H142199   0.149   6.424  14.212 -2.2502 -0.2288 -1.2829
 6928TIP3    H242200   0.062   6.445  14.335  1.4447 -0.3025  1.4077
 6929TIP3   OH242201   1.887   2.349  13.602  0.8126  0.4041 -0.2480
 6929TIP3    H142202   1.956   2.373  13.540 -0.7442  1.1754 -1.7313
 6929TIP3    H242203   1.807   2.348  13.550 -0.3505 -0.2739  1.4828
 6930TIP3   OH242204   0.003   5.584  13.560 -0.4243 -0.0133  0.2350
 6930TIP3    H142205   0.094   5.597  13.531 -0.6736  2.1422  0.3078
 6930TIP3    H242206  -0.049   5.594  13.481 -0.6511 -0.5596  0.3143
 6931TIP3   OH242207   1.416   1.430   0.182 -0.2111 -0.3095  0.7984
 6931TIP3    H142208   1.495   1.382   0.207  0.6604  1.1166  0.8433
 6931TIP3    H242209   1.368   1.443   0.263  0.3722  0.3427  1.0406
 6932TIP3   OH242210   5.033   4.257  13.812  0.1375  0.3768 -0.2197
 6932TIP3    H142211   4.966   4.194  13.837  1.3099 -1.0048 -0.4651
 6932TIP3    H242212   5.033   4.322  13.882 -0.4300 -0.4228  0.5290
 6933TIP3   OH242213   6.371   4.209   1.096  0.4859 -0.3283  0.4387
 6933TIP3    H142214   6.301   4.144   1.094  0.8039 -0.7193  2.0579
 6933TIP3    H242215   6.452   4.159   1.089  0.6979 -0.0617  0.9363
 6934TIP3   OH242216   4.454   6.237   6.795  0.6869 -0.6244 -0.2053
 6934TIP3    H142217   4.441   6.284   6.712  1.5454 -0.8583 -0.4797
 6934TIP3    H242218   4.549   6.224   6.800  0.7503  0.3525  1.3546
 6935TIP3   OH242219   5.074   5.753  15.939  0.1869  0.0182  0.7754
 6935TIP3    H142220   5.152   5.802  15.965  2.9397 -2.3997 -2.3957
 6935TIP3    H242221   5.076   5.674  15.993  0.1185 -0.2078  0.4467
 6936TIP3   OH242222   5.054   1.877  14.125 -0.1507  0.5517  0.3210
 6936TIP3    H142223   5.039   1.867  14.219  1.0808 -0.4466  0.4149
 6936TIP3    H242224   5.002   1.954  14.101 -0.2882  0.9514  1.8523
 6937TIP3   OH242225   3.631   4.571  15.500 -0.5217 -0.1503 -0.1841
 6937TIP3    H142226   3.658   4.621  15.577 -2.1797  0.2595  0.1439
 6937TIP3    H242227   3.623   4.481  15.532  0.4765 -0.2908 -0.3001
 6938TIP3   OH242228   6.208   1.558   1.515  0.2639 -0.2865 -0.2530
 6938TIP3    H142229   6.278   1.493   1.513 -1.0802 -1.7618 -0.6445
 6938TIP3    H242230   6.128   1.506   1.509 -0.8154  1.4609 -1.2032
 6939TIP3   OH242231   5.275   1.095   5.214 -0.0474 -0.7345 -0.1037
 6939TIP3    H142232   5.268   1.133   5.126 -0.2326 -0.8870 -0.1563
 6939TIP3    H242233   5.224   1.014   5.208 -2.7587  0.8316  1.0400
 6940TIP3   OH242234   0.952   1.025   0.377 -0.2259 -0.0599  0.3068
 6940TIP3    H142235   0.943   1.010   0.471 -0.2736 -0.8231  0.1837
 6940TIP3    H242236   1.022   1.090   0.370 -0.3356  0.1235  0.8789
 6941TIP3   OH242237   1.451   5.018   1.327 -0.2535 -0.1137 -0.1032
 6941TIP3    H142238   1.481   5.077   1.396 -0.9060  0.3912 -0.2486
 6941TIP3    H242239   1.428   5.075   1.254  0.9601 -0.6794 -0.9582
 6942TIP3   OH242240   5.082   2.451  17.074 -0.0900 -0.3596 -0.1501
 6942TIP3    H142241   5.068   2.463  16.980 -0.7258 -0.2024 -0.0314
 6942TIP3    H242242   5.020   2.510  17.116 -1.3943 -2.0809  0.4030
 6943TIP3   OH242243   4.806   5.990   1.433  0.0907 -0.5369  0.1015
 6943TIP3    H142244   4.830   5.903   1.465  0.8114  0.2312  1.7312
 6943TIP3    H242245   4.884   6.043   1.449 -1.9170  1.5202  3.5254
 6944TIP3   OH242246   1.244   0.135  10.681 -0.0426  0.4514  0.4221
 6944TIP3    H142247   1.263   0.160  10.771  1.6963  0.7409 -0.0011
 6944TIP3    H242248   1.318   0.080  10.655 -0.2563  0.7979 -0.9822
 6945TIP3   OH242249   2.900   4.301  13.730 -0.0492  0.0454 -0.4238
 6945TIP3    H142250   2.937   4.310  13.642  1.2884 -0.6862  0.0406
 6945TIP3    H242251   2.893   4.206  13.743 -0.9221  0.1649 -0.0184
 6946TIP3   OH242252   2.109   4.535  14.793  0.1223 -0.1237  0.1538
 6946TIP3    H142253   2.123   4.592  14.869 -0.7496 -0.6118  0.6934
 6946TIP3    H242254   2.146   4.451  14.818  0.1666 -0.1830 -0.1067
 6947TIP3   OH242255   3.846   0.683  13.428  0.0530 -0.7010 -0.1647
 6947TIP3    H142256   3.755   0.711  13.415  0.2142  0.0948  0.3680
 6947TIP3    H242257   3.878   0.738  13.500  1.2337 -0.3392 -0.9469
 6948TIP3   OH242258   4.525   4.304  16.838  0.3952 -0.4509 -0.3039
 6948TIP3    H142259   4.589   4.251  16.792  2.0168  0.2861  1.0566
 6948TIP3    H242260   4.492   4.246  16.908 -0.0886 -0.6691 -0.7088
 6949TIP3   OH242261   1.927   3.129  16.578  0.2042 -0.1781 -0.1524
 6949TIP3    H142262   1.942   3.222  16.560  0.4205 -0.5040 -1.7583
 6949TIP3    H242263   2.005   3.102  16.626  0.5777  0.2628 -0.4949
 6950TIP3   OH242264   4.096   6.393   2.730  0.1565 -0.4588  0.5358
 6950TIP3    H142265   4.145   6.474   2.715 -2.7323  1.2332 -0.1435
 6950TIP3    H242266   4.136   6.355   2.808  1.6772  1.5187  0.7637
 6951TIP3   OH242267   6.478   6.222  13.742 -0.0099 -0.2121 -0.0043
 6951TIP3    H142268   6.538   6.151  13.765 -0.6465 -1.3127 -1.6284
 6951TIP3    H242269   6.417   6.226  13.815  0.5316 -0.7770  0.4902
 6952TIP3   OH242270   0.113   3.932  16.954 -0.4472 -0.3326  0.4362
 6952TIP3    H142271   0.153   3.962  17.035 -1.1415 -0.0042  0.6647
 6952TIP3    H242272   0.179   3.951  16.886  0.0646 -0.4613  0.8962
 6953TIP3   OH242273   0.271   5.543   0.385  0.0651 -0.0619 -0.1092
 6953TIP3    H142274   0.291   5.631   0.356 -1.4579  0.2615 -0.2352
 6953TIP3    H242275   0.354   5.496   0.382  0.3078  0.4843 -3.1219
 6954TIP3   OH242276   4.286   1.120  11.229  0.6379 -0.3443  0.3265
 6954TIP3    H142277   4.241   1.195  11.189  1.3787  0.3840  0.8456
 6954TIP3    H242278   4.233   1.044  11.204  0.0894  0.3079 -0.5179
 6955TIP3   OH242279   5.493   3.047   4.229  1.3737 -0.3326  0.3298
 6955TIP3    H142280   5.412   3.098   4.222  1.9699  0.4484 -1.1430
 6955TIP3    H242281   5.519   3.031   4.138  3.4444  0.3782  0.7605
 6956TIP3   OH242282   3.396   4.427  12.366  0.3363 -0.5224 -0.1095
 6956TIP3    H142283   3.466   4.398  12.309 -1.1084 -0.3567 -2.0103
 6956TIP3    H242284   3.378   4.517  12.339 -0.7355 -0.6312  0.2077
 6957TIP3   OH242285   5.225   4.173   5.577  0.3625 -0.0104 -0.4010
 6957TIP3    H142286   5.176   4.099   5.541  1.0961  0.1228 -1.6742
 6957TIP3    H242287   5.307   4.174   5.529  0.1818  1.9116 -0.7319
 6958TIP3   OH242288   2.162   3.655   5.536  0.1597  0.0301 -0.1587
 6958TIP3    H142289   2.132   3.693   5.454  0.1546 -1.3472 -0.8112
 6958TIP3    H242290   2.243   3.702   5.556 -0.2794  0.9432 -0.5084
 6959TIP3   OH242291   5.869   1.721  14.175 -1.0148  0.0611 -0.5149
 6959TIP3    H142292   5.922   1.642  14.161  2.2722  2.1384 -0.1534
 6959TIP3    H242293   5.808   1.696  14.245 -0.4738 -2.3629 -0.8579
 6960TIP3   OH242294   6.353   2.493   3.324  0.2076 -0.1024 -0.3394
 6960TIP3    H142295   6.346   2.494   3.229 -0.3692  0.8057 -0.2874
 6960TIP3    H242296   6.410   2.418   3.343 -1.8948 -2.0261 -1.2634
 6961TIP3   OH242297   3.534   5.333  14.929  0.3059 -0.5059 -0.2275
 6961TIP3    H142298   3.449   5.349  14.887 -0.3564 -1.4604  0.7363
 6961TIP3    H242299   3.512   5.292  15.012  1.7001 -0.2079  0.2875
 6962TIP3   OH242300   3.926   6.629   1.729  0.2573 -0.1960 -0.6475
 6962TIP3    H142301   3.911   6.651   1.637 -2.6662  0.0577 -0.1667
 6962TIP3    H242302   3.935   6.533   1.729  0.0910 -0.2139 -1.1745
 6963TIP3   OH242303   2.026   2.716  13.919  0.3064 -0.0017  0.3389
 6963TIP3    H142304   1.959   2.753  13.976 -1.2814 -3.6064  0.9637
 6963TIP3    H242305   1.990   2.724  13.831 -1.0016 -1.8462  0.6658
 6964TIP3   OH242306   1.955   5.993  12.247  0.1652  0.1979  0.2003
 6964TIP3    H142307   1.881   5.938  12.223 -1.0438 -0.5751  5.0290
 6964TIP3    H242308   1.928   6.082  12.224 -1.9832 -0.1611  1.2066
 6965TIP3   OH242309   6.468   2.017  12.691 -0.4923  0.4597  0.2470
 6965TIP3    H142310   6.522   2.018  12.770 -0.0640  1.0097 -0.0502
 6965TIP3    H242311   6.423   1.932  12.694 -0.4325  0.4504  1.0411
 6966TIP3   OH242312   1.820   5.779  11.232 -0.1177 -0.2140 -0.2030
 6966TIP3    H142313   1.843   5.855  11.286  0.5602 -0.7685  0.2996
 6966TIP3    H242314   1.848   5.803  11.143 -0.2379  0.2698 -0.1082
 6967TIP3   OH242315   4.444   4.915   3.798 -0.2095  0.0889  0.0119
 6967TIP3    H142316   4.371   4.966   3.763 -0.9664 -0.3241  0.9910
 6967TIP3    H242317   4.416   4.888   3.885  0.7324 -0.8603  0.0371
 6968TIP3   OH242318   5.023   4.407   3.066  0.3540 -0.6401 -0.3162
 6968TIP3    H142319   5.010   4.490   3.113 -0.1403  0.5224 -2.4417
 6968TIP3    H242320   4.992   4.340   3.127  0.9111  0.7019  1.5021
 6969TIP3   OH242321   4.712   6.107  15.284 -0.1406 -0.1877 -0.1789
 6969TIP3    H142322   4.746   6.019  15.269  1.6279  0.5606 -0.6699
 6969TIP3    H242323   4.691   6.109  15.378 -2.5462 -1.9114 -0.6518
 6970TIP3   OH242324   4.476   1.082  12.264 -0.3064  0.6048  0.3579
 6970TIP3    H142325   4.428   1.018  12.211 -2.3491  2.4091 -0.0770
 6970TIP3    H242326   4.458   1.057  12.354  1.1241 -1.0046  0.2086
 6971TIP3   OH242327   1.941   2.165  14.197  0.0059 -0.3909  0.0032
 6971TIP3    H142328   1.882   2.234  14.166  1.0012 -0.2927 -1.7653
 6971TIP3    H242329   2.016   2.213  14.234  0.3360 -0.5105 -0.5044
 6972TIP3   OH242330   0.837   5.832   4.769 -0.4944 -0.0676 -0.4580
 6972TIP3    H142331   0.800   5.856   4.854  2.9222 -0.4636  1.2139
 6972TIP3    H242332   0.808   5.742   4.755 -0.7332 -0.1466  0.4863
 6973TIP3   OH242333   6.200   3.449  10.868 -0.1410  0.0698  0.1407
 6973TIP3    H142334   6.294   3.443  10.882 -0.2244 -0.3149  0.5242
 6973TIP3    H242335   6.163   3.377  10.919 -0.6523  0.2938  0.0898
 6974TIP3   OH242336   0.666   5.962   0.763  0.0858  0.2061  0.5398
 6974TIP3    H142337   0.638   5.945   0.673  0.9173 -1.1454  0.5202
 6974TIP3    H242338   0.720   5.886   0.786 -1.0540 -0.0130  2.5719
 6975TIP3   OH242339   5.726   2.424  14.542  0.3141 -0.4085 -0.2849
 6975TIP3    H142340   5.786   2.477  14.490  1.2124 -1.0688  0.0524
 6975TIP3    H242341   5.782   2.386  14.611 -0.3899 -1.4490 -0.2779
 6976TIP3   OH242342   0.386   4.546  14.137 -0.2915  0.2485  0.2258
 6976TIP3    H142343   0.382   4.592  14.221 -0.9628 -1.2903  1.0455
 6976TIP3    H242344   0.342   4.462  14.153  2.0071 -1.2044 -0.9167
 6977TIP3   OH242345   6.774   5.018  17.149  0.4679 -0.5242 -0.1033
 6977TIP3    H142346   6.783   4.929  17.115  0.4737 -0.9442  0.9729
 6977TIP3    H242347   6.774   5.074  17.072  1.3243 -1.3961 -0.7430
 6978TIP3   OH242348   4.456   1.835   1.608 -0.1879  0.5528  1.1402
 6978TIP3    H142349   4.465   1.774   1.534  1.6314  0.3957  1.4708
 6978TIP3    H242350   4.422   1.781   1.679 -0.6370  0.4061  0.8217
 6979TIP3   OH242351   0.795   6.408   6.217 -0.0670 -0.4267  0.5954
 6979TIP3    H142352   0.824   6.319   6.200 -1.0480 -0.6394 -0.0151
 6979TIP3    H242353   0.728   6.424   6.151  2.3546  1.9437 -1.3887
 6980TIP3   OH242354   5.437   4.864   0.501  0.0123  0.1328 -0.3368
 6980TIP3    H142355   5.440   4.932   0.568  1.3403  0.3943 -0.6366
 6980TIP3    H242356   5.524   4.824   0.503 -1.2036 -2.5843  0.8449
 6981TIP3   OH242357   2.243   3.950   3.406 -0.1625 -0.4548  0.3286
 6981TIP3    H142358   2.335   3.934   3.429 -0.2821 -1.5380  0.0616
 6981TIP3    H242359   2.216   4.020   3.465  1.7271  2.0663 -1.6124
 6982TIP3   OH242360   1.895   5.733  16.876  0.3582 -0.3000 -0.0020
 6982TIP3    H142361   1.848   5.667  16.825  0.3397 -0.5773  0.3774
 6982TIP3    H242362   1.936   5.789  16.810 -0.2805 -0.2156 -0.3352
 6983TIP3   OH242363   2.559   2.110   1.004  0.4511  0.2168  0.0594
 6983TIP3    H142364   2.499   2.036   1.005 -0.2726  0.7960  0.8226
 6983TIP3    H242365   2.646   2.071   1.003  0.0917 -0.6516  1.3252
 6984TIP3   OH242366   0.518   6.373  16.518  0.0295  0.0174  0.1077
 6984TIP3    H142367   0.460   6.297  16.506 -0.3696  0.4170 -0.5639
 6984TIP3    H242368   0.597   6.351  16.469 -0.2546  0.2139 -0.4410
 6985TIP3   OH242369   5.405   3.467   0.099  0.1867  0.1409 -0.1467
 6985TIP3    H142370   5.399   3.466   0.004  0.1641 -0.2839 -0.1442
 6985TIP3    H242371   5.375   3.554   0.125 -1.7519 -0.4095 -0.4153
 6986TIP3   OH242372   6.593   6.662  16.450  0.0033  0.3584 -0.1840
 6986TIP3    H142373   6.552   6.748  16.460  2.9260  1.6325  1.4819
 6986TIP3    H242374   6.570   6.615  16.529 -1.0245 -0.1798 -0.7853
 6987TIP3   OH242375   4.310   0.834   1.958 -0.3377  0.2487  0.1731
 6987TIP3    H142376   4.268   0.920   1.955 -1.7964 -0.4876 -1.3973
 6987TIP3    H242377   4.274   0.793   2.036 -1.6395  0.0937 -0.4882
 6988TIP3   OH242378   1.135   4.898  13.905 -0.5315  0.2888 -0.1612
 6988TIP3    H142379   1.148   4.855  13.990  0.9587  2.2451  0.6281
 6988TIP3    H242380   1.153   4.829  13.841  2.2565 -0.2159  1.0724
 6989TIP3   OH242381   2.468   6.279  13.107 -0.5718  0.4445 -0.0723
 6989TIP3    H142382   2.393   6.276  13.167 -1.2712 -0.4401 -0.9702
 6989TIP3    H242383   2.458   6.201  13.052  1.4448 -0.1149  0.2975
 6990TIP3   OH242384   4.512   4.639  13.344  0.0253  0.2264 -0.1847
 6990TIP3    H142385   4.549   4.650  13.432 -1.1055 -0.2577  0.3510
 6990TIP3    H242386   4.424   4.675  13.350  0.0112  0.3624 -1.1736
 6991TIP3   OH242387   0.856   1.367   3.487  1.1012 -0.0402  0.6072
 6991TIP3    H142388   0.827   1.419   3.412 -1.2837 -1.1319  0.7163
 6991TIP3    H242389   0.844   1.425   3.563  0.2147 -0.0846  0.5125
 6992TIP3   OH242390   1.211   3.975   5.614 -0.5208 -0.0671 -1.1256
 6992TIP3    H142391   1.169   4.016   5.538 -0.6338  1.8155 -0.0678
 6992TIP3    H242392   1.139   3.954   5.673 -0.1648  1.4576 -0.1263
 6993TIP3   OH242393   0.783   6.134  10.884 -0.1103  0.3248 -0.0585
 6993TIP3    H142394   0.753   6.217  10.848  1.7387  1.1005  0.1344
 6993TIP3    H242395   0.815   6.085  10.809  2.0329  1.2104  0.2233
 6994TIP3   OH242396   6.650   2.971   3.486  0.4492  0.4278 -0.6293
 6994TIP3    H142397   6.691   3.057   3.476 -1.0829  1.1673 -0.6214
 6994TIP3    H242398   6.643   2.938   3.397  1.4055  0.1228 -0.6009
 6995TIP3   OH242399   1.363   5.259  12.418 -0.6955 -0.0341 -0.0055
 6995TIP3    H142400   1.412   5.187  12.377  0.8892  0.7147  0.5400
 6995TIP3    H242401   1.284   5.267  12.364  0.6602 -0.0327 -2.0631
 6996TIP3   OH242402   1.489   1.818   1.851  0.3167  0.9716 -0.3631
 6996TIP3    H142403   1.492   1.755   1.779  0.4868  1.6077 -0.9217
 6996TIP3    H242404   1.574   1.809   1.894 -1.1565 -2.1204  2.1437
 6997TIP3   OH242405   5.015   1.953  14.996 -0.4530  0.1903  0.4075
 6997TIP3    H142406   5.067   1.920  15.070 -0.2192 -1.9066 -0.6605
 6997TIP3    H242407   5.012   1.880  14.934  0.2986  2.2789 -2.1896
 6998TIP3   OH242408   1.610   5.660  15.313 -0.0624 -0.4366  0.2757
 6998TIP3    H142409   1.522   5.683  15.342 -1.1850 -2.5051 -1.4031
 6998TIP3    H242410   1.667   5.692  15.383 -2.0528  1.6632  0.9943
 6999TIP3   OH242411   5.614   4.892  15.798  0.1580 -0.6587  0.6350
 6999TIP3    H142412   5.664   4.854  15.726 -0.1687  2.1053 -1.1324
 6999TIP3    H242413   5.670   4.962  15.833 -0.5909 -0.5391  1.6287
 7000TIP3   OH242414   5.992   0.482  12.133  0.0487  0.2754  0.3441
 7000TIP3    H142415   5.971   0.519  12.218 -1.9738 -1.2688  0.5516
 7000TIP3    H242416   5.931   0.524  12.072  0.9283  0.7648 -0.2086
 7001TIP3   OH242417   1.908   4.780  15.488  0.5523  0.2170  0.0881
 7001TIP3    H142418   1.921   4.802  15.396  2.3406  1.9811  0.7198
 7001TIP3    H242419   1.972   4.834  15.535  0.0435 -1.0498  2.3229
 7002TIP3   OH242420   6.139   3.049  12.883 -0.0308  0.2896  0.3928
 7002TIP3    H142421   6.047   3.075  12.875  0.0441  0.4685  0.1337
 7002TIP3    H242422   6.158   3.060  12.977 -1.0087 -2.2043  0.9254
 7003TIP3   OH242423   1.217   3.401  16.369 -0.7053  0.0860  0.2358
 7003TIP3    H142424   1.161   3.415  16.292 -0.5256  0.4765  0.1754
 7003TIP3    H242425   1.217   3.306  16.382  0.6368 -0.1324 -1.2699
 7004TIP3   OH242426   2.910   5.608   6.411  0.2142  0.3184  0.5972
 7004TIP3    H142427   2.887   5.654   6.491  0.0759 -1.1006  1.3970
 7004TIP3    H242428   2.851   5.533   6.408  0.9077 -0.2143 -0.2879
 7005TIP3   OH242429   6.666   3.631  11.420  0.0295 -0.3154  0.6263
 7005TIP3    H142430   6.725   3.592  11.484  1.7346 -0.2426 -0.8457
 7005TIP3    H242431   6.725   3.668  11.353 -1.7063 -1.5658 -1.6409
 7006TIP3   OH242432   0.347   3.399  13.156  0.2193  0.2713  0.5749
 7006TIP3    H142433   0.262   3.405  13.112  0.4788  0.5487  0.1033
 7006TIP3    H242434   0.373   3.308  13.148  0.8574  0.5677 -0.9839
 7007TIP3   OH242435   1.113   0.752  12.269  0.2653 -0.1112 -0.1550
 7007TIP3    H142436   1.057   0.827  12.253 -0.8165 -0.0902  3.4737
 7007TIP3    H242437   1.194   0.788  12.303  0.2404 -0.4991  0.3265
 7008TIP3   OH242438   6.085   6.763  12.074  0.2628 -0.8937 -0.7479
 7008TIP3    H142439   6.012   6.707  12.047  0.6576 -1.8188  0.0864
 7008TIP3    H242440   6.087   6.755  12.169  1.4121 -0.8092 -0.7632
 7009TIP3   OH242441   1.411   2.567   3.815 -0.3623  0.0323 -0.3567
 7009TIP3    H142442   1.407   2.486   3.866  1.4327  0.7661  1.0084
 7009TIP3    H242443   1.504   2.582   3.801 -0.6470  1.9870 -0.3674
 7010TIP3   OH242444   4.948   5.932   5.808 -0.4215  0.3386  0.4929
 7010TIP3    H142445   4.978   6.005   5.754  0.3085 -1.8701 -2.2883
 7010TIP3    H242446   5.026   5.904   5.856 -0.9423  1.9674  2.3462
 7011TIP3   OH242447   3.458   1.132   2.669 -0.5893 -0.4133 -0.2326
 7011TIP3    H142448   3.459   1.211   2.722 -2.4146 -0.4792 -0.0854
 7011TIP3    H242449   3.496   1.159   2.585  1.5495 -0.1176  0.8106
 7012TIP3   OH242450   1.179   2.632  11.744 -0.0083 -0.1622 -0.0930
 7012TIP3    H142451   1.088   2.619  11.771  0.3188 -1.0718  0.5627
 7012TIP3    H242452   1.214   2.694  11.808 -0.2866  0.5533 -0.6183
 7013TIP3   OH242453   0.080   5.918  13.611 -0.2059  0.1659  0.3902
 7013TIP3    H142454   0.054   5.883  13.696 -1.5025  1.6854  0.6326
 7013TIP3    H242455  -0.002   5.932  13.564  0.4004  1.1426 -0.3909
 7014TIP3   OH242456   6.043   5.854   0.460  0.2215  0.3690 -0.0949
 7014TIP3    H142457   5.948   5.868   0.458  0.3552  1.3917 -3.3371
 7014TIP3    H242458   6.080   5.943   0.456  1.2989 -0.0708  0.0116
 7015TIP3   OH242459   0.944   6.695   2.987  0.1967 -0.1289  0.4516
 7015TIP3    H142460   0.947   6.762   2.918  0.0204 -1.1850 -0.6050
 7015TIP3    H242461   0.977   6.616   2.944 -0.7285 -1.0036  1.3499
 7016TIP3   OH242462   2.257   5.748  12.600 -0.4100 -0.4727 -0.0644
 7016TIP3    H142463   2.323   5.682  12.621  0.8356  0.5507 -0.7091
 7016TIP3    H242464   2.296   5.798  12.528 -1.2402  1.1143  0.5752
 7017TIP3   OH242465   3.107   5.975   3.133 -0.3270  0.0451  0.0846
 7017TIP3    H142466   3.103   6.047   3.195  1.7786  0.2775 -0.0047
 7017TIP3    H242467   3.077   5.898   3.182  1.8427  0.1066  1.6088
 7018TIP3   OH242468   0.174   0.136   2.077  0.0697 -0.5034 -0.2989
 7018TIP3    H142469   0.104   0.141   2.142 -0.4581 -0.0741 -0.8950
 7018TIP3    H242470   0.128   0.133   1.993  0.7670  2.4730 -0.8615
 7019TIP3   OH242471   4.623   3.217  15.456 -0.1062 -1.0323 -0.3817
 7019TIP3    H142472   4.614   3.272  15.379  1.1094  0.3553  0.4278
 7019TIP3    H242473   4.553   3.246  15.515  1.0141  0.2199  0.3598
 7020TIP3   OH242474   6.672   3.455  12.344 -0.4674  0.5176  0.3385
 7020TIP3    H142475   6.703   3.537  12.305 -0.1731  0.9952  1.5501
 7020TIP3    H242476   6.579   3.472  12.363 -0.9881 -0.2251 -1.4773
 7021TIP3   OH242477   2.604   1.061   2.479  0.4348  0.1889 -0.4109
 7021TIP3    H142478   2.534   0.997   2.492 -0.2232  0.9596 -0.0934
 7021TIP3    H242479   2.681   1.009   2.454  0.1691 -0.8070  0.8169
 7022TIP3   OH242480   2.271   2.554   5.145  0.2727  0.1746  0.3317
 7022TIP3    H142481   2.351   2.590   5.106  0.3104 -2.2354 -2.0344
 7022TIP3    H242482   2.291   2.544   5.238  2.0638  1.3051  0.0831
 7023TIP3   OH242483   5.490   4.474   2.278 -0.0724  0.1606  0.3731
 7023TIP3    H142484   5.473   4.470   2.372  0.4769  0.0291  0.4724
 7023TIP3    H242485   5.419   4.424   2.238 -0.2176  0.0835  0.7288
 7024TIP3   OH242486   3.054   1.136  15.981  0.9604 -1.0600  0.4780
 7024TIP3    H142487   3.076   1.059  15.929 -1.6739 -2.4394  1.3512
 7024TIP3    H242488   3.001   1.103  16.053 -1.1972  1.7017  0.2520
 7025TIP3   OH242489   3.750   0.086   6.345 -0.5371  0.1074  0.1525
 7025TIP3    H142490   3.797   0.163   6.377 -1.6612  0.3505  1.2585
 7025TIP3    H242491   3.727   0.108   6.255 -0.3778  0.8348  0.2857
 7026TIP3   OH242492   3.322   6.101  17.229 -0.2583 -0.4375 -0.0776
 7026TIP3    H142493   3.304   6.193  17.214 -0.3058 -0.2540  1.1162
 7026TIP3    H242494   3.285   6.057  17.152 -1.8570  0.3550  0.2314
 7027TIP3   OH242495   3.963   0.086  12.592  0.2082  0.5516 -0.4160
 7027TIP3    H142496   3.933   0.176  12.591  1.7564  1.0921 -0.4874
 7027TIP3    H242497   4.051   0.090  12.554  0.2194 -1.0067 -0.5897
 7028TIP3   OH242498   5.330   5.395   3.458 -0.1908  0.4740  0.1909
 7028TIP3    H142499   5.297   5.332   3.394  2.0185 -0.9239  0.3943
 7028TIP3    H242500   5.326   5.349   3.541 -0.2869  1.2416  0.6104
 7029TIP3   OH242501   1.774   3.004  16.055 -0.3523  0.1638  0.1099
 7029TIP3    H142502   1.729   2.948  15.992 -1.3501  1.4730 -0.3914
 7029TIP3    H242503   1.779   2.952  16.135  0.8674 -1.4910 -1.0158
 7030TIP3   OH242504   3.989   2.083   1.826  0.0561 -0.2977  0.0558
 7030TIP3    H142505   4.064   2.117   1.776  0.0849 -0.1753  0.1804
 7030TIP3    H242506   4.009   2.107   1.916  0.3772 -1.2023  0.2240
 7031TIP3   OH242507   1.293   3.196   1.131  0.0320 -0.1505 -0.8985
 7031TIP3    H142508   1.230   3.267   1.118  0.3199  0.0165 -1.3770
 7031TIP3    H242509   1.283   3.172   1.223 -0.7332 -0.1234 -0.9723
 7032TIP3   OH242510   6.571   0.183  11.599  0.5700  0.1773  0.0009
 7032TIP3    H142511   6.655   0.227  11.584  0.6436  1.1927  3.1471
 7032TIP3    H242512   6.509   0.232  11.546  1.5703  0.7966 -0.6197
 7033TIP3   OH242513   5.748   6.681  15.627  0.0897 -0.1647  0.5331
 7033TIP3    H142514   5.653   6.682  15.634 -0.2344 -0.5319 -2.7201
 7033TIP3    H242515   5.769   6.593  15.596  1.3482  0.3405 -0.1126
 7034TIP3   OH242516   2.684   2.800  10.877  0.1812 -0.1463 -0.3205
 7034TIP3    H142517   2.633   2.733  10.831  2.5094 -2.5022  0.4249
 7034TIP3    H242518   2.624   2.874  10.887 -2.1805 -1.8084 -1.9168
 7035TIP3   OH242519   3.968   3.890  14.128  0.0848 -0.8112 -0.4470
 7035TIP3    H142520   3.996   3.864  14.040  1.4057  2.3090 -0.9949
 7035TIP3    H242521   4.048   3.887  14.180 -0.8398 -3.4769  0.9423
 7036TIP3   OH242522   6.397   0.085  17.200 -0.3601 -0.2006 -0.4545
 7036TIP3    H142523   6.426   0.156  17.257 -1.3107 -0.3876  0.2696
 7036TIP3    H242524   6.311   0.113  17.169 -0.3644 -0.6519 -0.8431
 7037TIP3   OH242525   0.690   5.388   5.136 -0.4518 -0.2247  0.3992
 7037TIP3    H142526   0.676   5.474   5.176 -0.0902 -0.9048  2.0686
 7037TIP3    H242527   0.750   5.405   5.064 -0.3701  0.9256  0.7200
 7038TIP3   OH242528   3.699   3.335  16.726  0.0726  0.0454 -0.1093
 7038TIP3    H142529   3.758   3.261  16.712  0.4521  0.2171  0.5122
 7038TIP3    H242530   3.705   3.386  16.646  1.3519  0.4515  0.2284
 7039TIP3   OH242531   2.439   2.837  17.179  0.1764 -0.6400  0.1406
 7039TIP3    H142532   2.489   2.811  17.256 -0.3536  0.1427  0.7551
 7039TIP3    H242533   2.503   2.882  17.123 -0.3517  2.7869  2.1154
 7040TIP3   OH242534   1.276   6.631   1.635 -0.1195 -0.2272  0.2635
 7040TIP3    H142535   1.348   6.667   1.582 -0.2872  0.5564  0.5623
 7040TIP3    H242536   1.319   6.601   1.715 -0.1171  0.2076  0.4271
 7041TIP3   OH242537   0.944   1.724   1.469  0.1653 -0.5759  0.0718
 7041TIP3    H142538   0.948   1.820   1.469  2.5476 -0.6324 -1.3170
 7041TIP3    H242539   0.909   1.701   1.383  2.1083 -0.9814 -0.6439
 7042TIP3   OH242540   3.397   1.724   0.679  0.2593 -0.1058 -0.6155
 7042TIP3    H142541   3.453   1.677   0.740 -1.3771 -0.0388  0.9696
 7042TIP3    H242542   3.375   1.659   0.612  0.3892 -0.7618 -0.0225
 7043TIP3   OH242543   5.024   0.409   3.992  0.5114 -0.6768 -0.0056
 7043TIP3    H142544   5.040   0.495   3.953  0.0143 -1.0099 -0.9486
 7043TIP3    H242545   5.074   0.411   4.074 -0.3374  0.9014  0.4983
 7044TIP3   OH242546   3.370   1.075  14.465  0.2234 -0.1957  0.1806
 7044TIP3    H142547   3.281   1.092  14.434  0.3932  0.0478 -0.1849
 7044TIP3    H242548   3.399   1.000  14.414  1.2359  1.4455 -1.7430
 7045TIP3   OH242549   1.642   1.918  17.068 -0.3945  0.1629 -0.3158
 7045TIP3    H142550   1.702   1.863  17.119 -0.9624 -2.2907 -2.2204
 7045TIP3    H242551   1.581   1.953  17.133 -1.0015 -2.7490  0.7384
 7046TIP3   OH242552   1.370   1.267  13.351  0.2579  0.6453  0.8907
 7046TIP3    H142553   1.369   1.290  13.258  0.8995 -1.6586  0.2869
 7046TIP3    H242554   1.283   1.231  13.368  0.4432  0.2253  0.9548
 7047TIP3   OH242555   2.821   6.423  14.790  0.4149 -0.5527 -0.0654
 7047TIP3    H142556   2.813   6.453  14.880  0.1188  0.7399 -0.5202
 7047TIP3    H242557   2.774   6.488  14.738  0.9794 -1.0316 -1.2002
 7048TIP3   OH242558   5.021   2.790  16.900 -0.3884  0.5231 -0.3754
 7048TIP3    H142559   5.018   2.811  16.807 -0.8636  1.0672 -0.2443
 7048TIP3    H242560   4.948   2.729  16.913 -1.6161  2.0445  0.0160
 7049TIP3   OH242561   5.426   0.532  14.886 -0.1939  0.7870  0.2708
 7049TIP3    H142562   5.457   0.469  14.820 -2.0647  0.7972 -0.6470
 7049TIP3    H242563   5.398   0.608  14.835 -1.2586  0.9665  1.1047
 7050TIP3   OH242564   1.222   1.189   4.491 -0.4175  0.4533 -0.2595
 7050TIP3    H142565   1.261   1.276   4.494 -0.3209  0.4753 -1.8590
 7050TIP3    H242566   1.159   1.189   4.563  0.0837  1.5964  0.1994
 7051TIP3   OH242567   2.458   0.789   3.247  0.0121 -0.7958  0.0581
 7051TIP3    H142568   2.376   0.800   3.199  0.7008  0.9516 -0.7676
 7051TIP3    H242569   2.500   0.713   3.207  0.0548 -0.0457 -1.3555
 7052TIP3   OH242570   6.250   1.681   3.181 -0.1113  0.6712 -0.7647
 7052TIP3    H142571   6.213   1.759   3.222  0.2321  0.8321 -0.7504
 7052TIP3    H242572   6.251   1.700   3.087  0.4928  0.9151 -0.7119
 7053TIP3   OH242573   4.221   6.763   4.586 -0.8452  0.1979  0.3662
 7053TIP3    H142574   4.160   6.829   4.553 -0.0150  1.2731  0.9836
 7053TIP3    H242575   4.303   6.810   4.600  0.0449 -1.1696 -0.1419
 7054TIP3   OH242576   2.715   4.852  17.021  0.6678  0.1377  0.1666
 7054TIP3    H142577   2.743   4.942  17.000 -1.4639  0.6752 -0.4949
 7054TIP3    H242578   2.646   4.864  17.086 -0.1305 -0.9940 -0.4737
 7055TIP3   OH242579   5.369   3.203   3.686  0.2755 -0.2757 -0.4838
 7055TIP3    H142580   5.428   3.148   3.634  0.5065  0.0202 -0.5374
 7055TIP3    H242581   5.398   3.292   3.667  1.6402 -0.2288  1.6790
 7056TIP3   OH242582   4.163   2.897  15.286 -0.0896  0.4256  0.7835
 7056TIP3    H142583   4.093   2.835  15.304 -0.9047  1.3267  0.7421
 7056TIP3    H242584   4.122   2.966  15.234  0.9229  0.7447  0.3912
 7057TIP3   OH242585   5.623   1.208   5.389 -0.3569 -0.6878  0.6918
 7057TIP3    H142586   5.698   1.249   5.431  1.6770 -1.1434 -2.2896
 7057TIP3    H242587   5.559   1.278   5.380  0.1652  0.0053  2.2107
 7058TIP3   OH242588   0.486   0.984   5.767  0.0597 -0.5953  0.7866
 7058TIP3    H142589   0.432   1.061   5.784  0.0007 -0.9469  2.2919
 7058TIP3    H242590   0.573   1.009   5.799  0.3959 -0.6125 -0.1214
 7059TIP3   OH242591   1.766   0.333  14.940  0.0756  0.1768 -0.4819
 7059TIP3    H142592   1.837   0.344  14.877  1.7480 -2.2500  0.8912
 7059TIP3    H242593   1.710   0.266  14.901  0.5762 -0.6026  0.1133
 7060TIP3   OH242594   2.740   4.307  14.323 -0.2360  0.0214  0.1649
 7060TIP3    H142595   2.744   4.256  14.403 -0.7232 -0.6974 -0.2602
 7060TIP3    H242596   2.651   4.342  14.321 -0.1496  0.2376  0.0579
 7061TIP3   OH242597   1.508   0.133  14.076 -0.5706  0.8111 -0.7727
 7061TIP3    H142598   1.477   0.082  14.151 -1.6743 -0.3935 -2.0147
 7061TIP3    H242599   1.598   0.156  14.098 -0.3316 -0.9612  0.1818
 7062TIP3   OH242600   4.326   5.937   5.886  0.2324  0.5024 -0.3972
 7062TIP3    H142601   4.416   5.913   5.864  0.6023  1.4595  0.0261
 7062TIP3    H242602   4.315   5.908   5.977 -0.2707 -0.6505 -0.8187
 7063TIP3   OH242603   2.883   0.756   0.580 -0.2571 -0.5695 -0.2260
 7063TIP3    H142604   2.919   0.750   0.492 -0.1566  0.5607 -0.2733
 7063TIP3    H242605   2.911   0.843   0.611 -0.2460 -0.9726  0.9284
 7064TIP3   OH242606   5.232   1.895   4.379 -0.3501  0.3669 -0.3718
 7064TIP3    H142607   5.281   1.927   4.454 -0.8277  1.0488 -0.3472
 7064TIP3    H242608   5.140   1.910   4.402 -0.5236  0.1231 -0.8847
 7065TIP3   OH242609   1.298   6.202   3.536 -0.3620  0.1065 -0.2840
 7065TIP3    H142610   1.223   6.147   3.561 -2.8751  2.9086 -1.3413
 7065TIP3    H242611   1.319   6.175   3.447 -0.8350  0.0298 -0.3744
 7066TIP3   OH242612   1.581   4.012  12.199  0.2187  0.4656  0.2296
 7066TIP3    H142613   1.661   3.970  12.167  0.0642  1.3052 -1.3237
 7066TIP3    H242614   1.591   4.013  12.294  1.9377  0.3097  0.0769
 7067TIP3   OH242615   2.995   1.489   2.139 -0.7043  0.1695 -0.8020
 7067TIP3    H142616   2.992   1.435   2.060  1.2515  0.6102 -1.2036
 7067TIP3    H242617   2.964   1.575   2.111  0.6289  0.5029 -1.2358
 7068TIP3   OH242618   2.173   4.108   4.524  0.5512 -0.4631  0.7926
 7068TIP3    H142619   2.245   4.083   4.466 -0.8925  0.7406 -1.6039
 7068TIP3    H242620   2.216   4.155   4.596  2.0583  1.4141 -1.2661
 7069TIP3   OH242621   5.950   1.276  13.975 -0.1540 -0.0916 -0.3050
 7069TIP3    H142622   5.908   1.336  13.913 -1.0755 -1.2650 -0.8401
 7069TIP3    H242623   5.968   1.197  13.923 -0.1373 -0.7631  0.7041
 7070TIP3   OH242624   0.419   4.921  13.494 -0.2424 -0.1385  0.0554
 7070TIP3    H142625   0.427   4.890  13.584 -0.6766  0.0055  0.1455
 7070TIP3    H242626   0.325   4.912  13.474 -0.1250 -0.3158 -0.4324
 7071TIP3   OH242627   5.265   1.405   4.639  0.4434  0.3419 -0.2681
 7071TIP3    H142628   5.353   1.442   4.635  0.5966  0.3301  2.0356
 7071TIP3    H242629   5.206   1.479   4.627  0.7749  1.0711  2.1936
 7072TIP3   OH242630   4.208   6.203  12.853  0.5266  0.4674  0.0591
 7072TIP3    H142631   4.136   6.186  12.914  0.4010  0.7650 -0.0036
 7072TIP3    H242632   4.168   6.194  12.766  1.2713 -2.4853 -0.0324
 7073TIP3   OH242633   5.802   3.761   6.015 -0.7666  0.3363  0.1979
 7073TIP3    H142634   5.864   3.690   6.030  0.4361  1.4017  0.2852
 7073TIP3    H242635   5.726   3.718   5.974 -0.5610 -1.1799  1.3726
 7074TIP3   OH242636   6.786   4.988  11.565 -0.3205  0.3814 -0.2033
 7074TIP3    H142637   6.819   4.929  11.497  0.1405  1.0760 -0.5926
 7074TIP3    H242638   6.860   5.045  11.585 -0.2860 -0.1852  1.2968
 7075TIP3   OH242639   1.167   2.367  15.661  0.2243  0.5947 -0.3830
 7075TIP3    H142640   1.090   2.424  15.661 -0.6565 -0.5595  0.6009
 7075TIP3    H242641   1.159   2.315  15.581 -0.5407 -0.1860  0.1892
 7076TIP3   OH242642   2.638   0.455  14.421 -0.2010  0.6888 -0.2119
 7076TIP3    H142643   2.697   0.453  14.346 -1.0322  0.7200 -0.8759
 7076TIP3    H242644   2.552   0.472  14.383 -0.4143  2.1083  0.8895
 7077TIP3   OH242645   1.380   6.591  13.160 -0.2495 -0.2644  0.0249
 7077TIP3    H142646   1.446   6.603  13.091  0.2950 -2.1015  0.1860
 7077TIP3    H242647   1.336   6.509  13.137  1.1672 -1.8954  2.7714
 7078TIP3   OH242648   6.597   3.715  14.266  0.2683 -0.3376 -0.5233
 7078TIP3    H142649   6.664   3.781  14.286 -1.8584  1.1171  2.1322
 7078TIP3    H242650   6.582   3.724  14.172  1.4929  1.5319 -0.5744
 7079TIP3   OH242651   4.823   5.325  13.270 -0.3431 -0.2935 -0.1794
 7079TIP3    H142652   4.783   5.274  13.340  0.1289  0.1473  0.4245
 7079TIP3    H242653   4.900   5.275  13.245 -0.2781 -0.2431 -0.0831
 7080TIP3   OH242654   6.557   6.139   4.859  0.1681  0.0634  0.4638
 7080TIP3    H142655   6.635   6.092   4.888  0.9407  1.5426  0.7878
 7080TIP3    H242656   6.512   6.163   4.939 -1.0446 -1.4746  0.2593
 7081TIP3   OH242657   0.006   3.909  14.241  0.0084  0.3024  0.1363
 7081TIP3    H142658   0.065   3.966  14.290 -0.5387 -0.4247  1.6530
 7081TIP3    H242659  -0.014   3.959  14.161  1.6000  1.1095  0.2300
 7082TIP3   OH242660   2.958   6.301   0.780 -0.4985  0.0386 -0.0733
 7082TIP3    H142661   2.912   6.221   0.754 -0.6256  0.2151 -0.3924
 7082TIP3    H242662   2.959   6.355   0.701 -1.3165  0.7782  0.4122
 7083TIP3   OH242663   1.154   2.090  12.778 -0.2624  0.0042 -0.1007
 7083TIP3    H142664   1.083   2.154  12.772 -0.7644 -0.6239 -0.9309
 7083TIP3    H242665   1.225   2.138  12.822  0.2669  1.9349 -2.9382
 7084TIP3   OH242666   1.704   5.058  17.180 -0.1050 -0.4950  0.1243
 7084TIP3    H142667   1.612   5.084  17.174 -0.0167 -0.4730 -1.3440
 7084TIP3    H242668   1.712   5.019  17.267 -1.3202  0.1874  0.5563
 7085TIP3   OH242669   4.562   6.525  13.715 -0.2939  0.0860 -0.5906
 7085TIP3    H142670   4.578   6.431  13.712 -0.2888  0.0972 -1.0150
 7085TIP3    H242671   4.646   6.564  13.691 -0.6753  0.1660 -1.8360
 7086TIP3   OH242672   1.977   1.206   3.693 -0.4902  0.3179 -0.2317
 7086TIP3    H142673   1.998   1.125   3.740 -1.1890  0.2308 -0.0642
 7086TIP3    H242674   1.904   1.182   3.636 -1.3612  1.0954  0.5600
 7087TIP3   OH242675   3.915   5.219   6.844  0.2206  0.5660 -0.0836
 7087TIP3    H142676   3.961   5.273   6.780  1.1670 -0.5933 -0.3951
 7087TIP3    H242677   3.828   5.259   6.850  0.4571  1.3093 -1.3071
 7088TIP3   OH242678   0.127   4.067   0.826  0.8163  0.0936  0.2644
 7088TIP3    H142679   0.044   4.053   0.781  0.9614 -2.2708  0.6471
 7088TIP3    H242680   0.176   4.125   0.768 -0.9659  1.2936 -0.1078
 7089TIP3   OH242681   6.381   4.896  12.568  0.3991  0.2963 -0.0714
 7089TIP3    H142682   6.373   4.991  12.578  3.1010  1.1366 -4.4032
 7089TIP3    H242683   6.454   4.871  12.624 -1.9895  0.1891  3.1868
 7090TIP3   OH242684   5.924   5.287  15.203  0.3001 -0.2675  0.0172
 7090TIP3    H142685   5.877   5.350  15.148  1.1700 -0.5868 -1.1171
 7090TIP3    H242686   5.855   5.228  15.235  0.0585 -1.5648 -2.7454
 7091TIP3   OH242687   4.337   3.459  13.702  0.0759  0.1208 -0.3677
 7091TIP3    H142688   4.356   3.466  13.608 -1.1693 -3.7461 -0.9803
 7091TIP3    H242689   4.405   3.401  13.736 -0.4367  0.1990  0.8268
 7092TIP3   OH242690   3.875   1.636   5.277 -0.8539  0.5839  0.3051
 7092TIP3    H142691   3.921   1.591   5.347 -0.3083  3.8400  2.1325
 7092TIP3    H242692   3.782   1.627   5.299 -0.7344  0.7167  0.8500
 7093TIP3   OH242693   0.439   3.131   3.940 -0.4878  0.3860 -0.1876
 7093TIP3    H142694   0.493   3.086   4.005 -0.5420  1.0099  0.2934
 7093TIP3    H242695   0.463   3.090   3.857 -0.8604 -0.8383  0.2911
 7094TIP3   OH242696   3.704   4.310  14.117 -0.4897 -0.1097  0.9023
 7094TIP3    H142697   3.751   4.393  14.124  0.3952 -0.4434 -0.9920
 7094TIP3    H242698   3.762   4.245  14.157 -0.3896 -0.1179  0.7431
 7095TIP3   OH242699   3.649   3.538  15.901 -0.3200  0.3900 -0.4421
 7095TIP3    H142700   3.736   3.574  15.889  0.2584 -0.5380  0.9616
 7095TIP3    H242701   3.594   3.613  15.924  0.5140  0.6630  0.6669
 7096TIP3   OH242702   4.782   3.230   3.894 -0.0125  0.5386  0.3619
 7096TIP3    H142703   4.696   3.213   3.856  1.5781  0.5664 -3.4595
 7096TIP3    H242704   4.791   3.325   3.892  0.3243  0.5050  0.2223
 7097TIP3   OH242705   5.244   4.457  15.974 -0.2042 -0.3404  0.4102
 7097TIP3    H142706   5.327   4.504  15.970 -0.6036  0.2826 -0.6673
 7097TIP3    H242707   5.268   4.365  15.959  0.3548 -0.2461  0.7171
 7098TIP3   OH242708   1.784   6.288  17.075 -0.3668  0.4186  0.0316
 7098TIP3    H142709   1.754   6.348  17.144 -1.5085 -0.3008  0.1716
 7098TIP3    H242710   1.746   6.204  17.099  0.8916 -0.2708 -0.3917
 7099TIP3   OH242711   3.072   2.506   6.382 -0.5509  0.4051  0.2516
 7099TIP3    H142712   3.050   2.597   6.399 -0.1379  0.6331 -0.4412
 7099TIP3    H242713   3.023   2.457   6.449  0.9809  1.2684  2.0446
 7100TIP3   OH242714   1.462   5.182  14.583 -0.1985 -0.5833 -0.2474
 7100TIP3    H142715   1.525   5.186  14.511 -1.2777  0.3168 -1.1567
 7100TIP3    H242716   1.387   5.232  14.552 -0.3262  0.5684  1.8560
 7101TIP3   OH242717   2.446   4.274   4.086 -0.6326  0.5077 -0.3383
 7101TIP3    H142718   2.377   4.335   4.112 -1.3014  0.3077 -1.5768
 7101TIP3    H242719   2.429   4.258   3.993 -0.1998 -1.2184 -0.1276
 7102TIP3   OH242720   4.390   1.542  10.158  0.2543  0.2147 -0.0735
 7102TIP3    H142721   4.391   1.478  10.086  0.4911 -1.0334  1.0317
 7102TIP3    H242722   4.473   1.528  10.204  0.6041  1.7597 -0.1818
 7103TIP3   OH242723   6.378   1.448   1.922 -0.1403  0.2896 -0.9159
 7103TIP3    H142724   6.304   1.468   1.866  0.4332  2.2569 -0.9922
 7103TIP3    H242725   6.407   1.533   1.956  0.9750 -0.6263  0.4957
 7104TIP3   OH242726   2.409   0.107  11.542 -0.4697  0.1947  0.0121
 7104TIP3    H142727   2.431   0.167  11.471  2.7572 -0.3385  0.4723
 7104TIP3    H242728   2.392   0.024  11.499 -0.4705  0.3489 -0.2899
 7105TIP3   OH242729   4.472   3.244   4.924 -0.3452  0.0041 -0.3883
 7105TIP3    H142730   4.479   3.310   4.856  1.9159 -0.5221 -0.7168
 7105TIP3    H242731   4.455   3.293   5.005 -1.2192  0.7584 -1.0204
 7106TIP3   OH242732   5.382   4.191   2.219  0.2918  0.1776 -0.0227
 7106TIP3    H142733   5.420   4.112   2.180  1.6508  0.6351  0.3313
 7106TIP3    H242734   5.360   4.247   2.144  2.8908  1.0552 -0.1879
 7107TIP3   OH242735   6.313   4.597   0.893  0.6911  0.2956 -0.3355
 7107TIP3    H142736   6.308   4.632   0.804 -1.1787 -0.4834 -0.5772
 7107TIP3    H242737   6.383   4.532   0.890  0.6081  0.2393 -1.2613
 7108TIP3   OH242738   2.879   6.090   5.281 -0.9717 -0.0483  0.5455
 7108TIP3    H142739   2.913   6.087   5.370  0.1507  0.0677  0.1261
 7108TIP3    H242740   2.921   6.017   5.236 -1.2500  0.1126  0.0175
 7109TIP3   OH242741   4.570   2.559  11.010  0.3864 -0.5489 -0.3460
 7109TIP3    H142742   4.578   2.546  11.105  0.6101 -0.8493 -0.4037
 7109TIP3    H242743   4.476   2.554  10.993  0.4139 -1.4857 -0.2750
 7110TIP3   OH242744   4.205   4.859   3.460  0.1917 -0.5042 -0.1399
 7110TIP3    H142745   4.110   4.864   3.457  0.1731 -0.8449 -0.1221
 7110TIP3    H242746   4.233   4.943   3.497 -0.1781 -1.0293  1.3761
 7111TIP3   OH242747   5.637   5.637  12.797 -0.4980  0.4141  0.1102
 7111TIP3    H142748   5.600   5.714  12.754 -0.7737 -0.1461 -0.6702
 7111TIP3    H242749   5.687   5.593  12.728  1.2083  0.8913  1.0184
 7112TIP3   OH242750   6.273   4.856  12.224 -0.2793 -0.1373  0.1397
 7112TIP3    H142751   6.321   4.795  12.168 -0.6820  0.4680 -0.8774
 7112TIP3    H242752   6.243   4.802  12.297 -2.0956 -1.5595 -1.5887
 7113TIP3   OH242753   3.835   4.863  15.577  0.5529  0.4711 -0.2035
 7113TIP3    H142754   3.881   4.794  15.625  4.6600  2.5151 -0.9569
 7113TIP3    H242755   3.784   4.909  15.644  2.9140  0.7045  1.5061
 7114TIP3   OH242756   0.689   3.387  12.198  0.9305 -0.2450  0.4844
 7114TIP3    H142757   0.604   3.345  12.204  1.0313 -0.4234  0.6602
 7114TIP3    H242758   0.677   3.472  12.239  0.5817  0.1233 -0.3631
 7115TIP3   OH242759   4.063   5.870  15.653  0.3404 -0.4286  0.3138
 7115TIP3    H142760   4.128   5.937  15.675 -0.6278 -0.1702  2.5560
 7115TIP3    H242761   3.989   5.920  15.618 -0.4260 -0.2759  2.0900
 7116TIP3   OH242762   5.588   4.505  15.125  0.3563  0.3937  0.2789
 7116TIP3    H142763   5.512   4.468  15.081  1.0794 -2.5809  1.3700
 7116TIP3    H242764   5.656   4.508  15.058 -0.0810  0.9871 -0.1404
 7117TIP3   OH242765   1.725   2.443   3.438  0.7580 -0.5319  0.4677
 7117TIP3    H142766   1.701   2.353   3.458 -0.4950 -0.2298  0.3461
 7117TIP3    H242767   1.778   2.437   3.359  0.4941 -1.1378  0.3388
 7118TIP3   OH242768   3.332   0.098  13.816  0.3730 -0.1815 -0.1617
 7118TIP3    H142769   3.323   0.082  13.910  0.6546  1.8199  0.2433
 7118TIP3    H242770   3.419   0.137  13.807  1.2981 -2.4980 -1.5803
 7119TIP3   OH242771   0.252   1.792   0.180  0.4155 -0.3972 -0.3027
 7119TIP3    H142772   0.172   1.783   0.129  0.9407 -1.2601 -1.0037
 7119TIP3    H242773   0.233   1.747   0.263  0.0335 -0.2327 -0.3027
 7120TIP3   OH242774   0.879   4.862  12.228  0.6770 -0.2110 -0.3612
 7120TIP3    H142775   0.890   4.940  12.281  0.4377  1.4416 -2.6643
 7120TIP3    H242776   0.958   4.857  12.174  0.9728 -1.9084  0.1919
 7121TIP3   OH242777   1.670   0.239   2.102  0.0109 -0.0763 -0.4505
 7121TIP3    H142778   1.614   0.256   2.026 -0.6819 -1.3450 -0.2356
 7121TIP3    H242779   1.685   0.145   2.101 -0.1254 -0.1388  1.0574
 7122TIP3   OH242780   3.517   0.477   4.580 -0.1260  0.4030 -0.1240
 7122TIP3    H142781   3.494   0.386   4.564 -0.1735  0.1462  1.3702
 7122TIP3    H242782   3.612   0.481   4.564 -0.0706  0.0171  0.1030
 7123TIP3   OH242783   3.603   4.250  15.943 -0.7257 -0.4969  0.7015
 7123TIP3    H142784   3.597   4.154  15.937  0.2019 -0.6247  1.7993
 7123TIP3    H242785   3.590   4.269  16.035  0.2623  0.3543  0.6678
 7124TIP3   OH242786   6.016   4.812  14.127  0.0996 -0.6984  0.3944
 7124TIP3    H142787   6.007   4.732  14.075 -0.7916 -1.3404  1.5195
 7124TIP3    H242788   6.107   4.812  14.156 -0.0411 -1.6013  0.8522
 7125TIP3   OH242789   1.483   2.051  11.323 -0.0192  0.2098 -0.6201
 7125TIP3    H142790   1.396   2.080  11.350  0.0646 -0.8849  0.8612
 7125TIP3    H242791   1.543   2.118  11.356 -0.0213 -0.5626  0.9473
 7126TIP3   OH242792   1.682   5.648   5.728 -0.6468  0.4519 -0.2929
 7126TIP3    H142793   1.726   5.625   5.809 -1.2877 -1.7486 -0.5482
 7126TIP3    H242794   1.749   5.638   5.660 -0.6404  0.3514 -0.2718
 7127TIP3   OH242795   1.756   5.058   0.542 -0.1099 -0.2117  0.5460
 7127TIP3    H142796   1.800   4.982   0.578  1.0882  0.7784  1.2168
 7127TIP3    H242797   1.667   5.055   0.579 -0.0621 -1.2653  0.5723
 7128TIP3   OH242798   2.730   0.467  13.889 -0.3935  0.5798  0.1560
 7128TIP3    H142799   2.815   0.451  13.849  0.5652  1.2460  1.8963
 7128TIP3    H242800   2.676   0.503  13.818 -0.0024 -2.1350 -1.5958
 7129TIP3   OH242801   2.357   0.494   0.299 -0.4405  0.2436 -0.3211
 7129TIP3    H142802   2.340   0.548   0.222  0.6084  1.4769  0.2896
 7129TIP3    H242803   2.436   0.532   0.338 -1.2299 -0.0469  1.6289
 7130TIP3   OH242804   1.930   0.809  14.268 -0.5888  0.1614  0.1559
 7130TIP3    H142805   1.884   0.823  14.351 -0.0564 -0.6328  0.5907
 7130TIP3    H242806   2.010   0.861  14.275 -1.5940  1.8899 -0.7752
 7131TIP3   OH242807   0.947   0.302  14.153  0.4734  1.1721  0.4150
 7131TIP3    H142808   1.027   0.354  14.155  0.8437  0.5979  0.7830
 7131TIP3    H242809   0.949   0.258  14.068  1.7515 -0.6729  1.3520
 7132TIP3   OH242810   0.415   3.459   0.885  0.1157 -0.5010  0.6685
 7132TIP3    H142811   0.507   3.478   0.864 -0.0634 -0.0816  0.2480
 7132TIP3    H242812   0.379   3.425   0.804 -0.5300  0.9273  0.3409
 7133TIP3   OH242813   4.509   4.712  15.678 -0.1306  0.2056 -0.2044
 7133TIP3    H142814   4.590   4.666  15.699  0.0163 -0.1329 -1.4561
 7133TIP3    H242815   4.519   4.798  15.719  0.1196 -0.4439  1.1067
 7134TIP3   OH242816   4.113   3.206  11.879  0.4835  0.2937 -0.2104
 7134TIP3    H142817   4.174   3.207  11.952 -0.1379 -0.8567  0.3361
 7134TIP3    H242818   4.050   3.275  11.899 -0.1605 -0.5554  0.7708
 7135TIP3   OH242819   2.190   4.261  11.534 -0.3795 -0.3995  0.0870
 7135TIP3    H142820   2.272   4.253  11.485 -1.3163 -1.9125 -1.2912
 7135TIP3    H242821   2.132   4.197  11.493 -1.8322 -0.2730  1.9055
 7136TIP3   OH242822   6.618   5.273  11.974  0.1103  0.3374 -0.1354
 7136TIP3    H142823   6.596   5.182  11.994  0.8734  0.9210  3.6314
 7136TIP3    H242824   6.546   5.324  12.011  1.1687  1.4476  0.4344
 7137TIP3   OH242825   0.883   4.487  11.324 -0.3033 -0.2271 -0.2611
 7137TIP3    H142826   0.875   4.494  11.419 -2.1478  0.0021 -0.4215
 7137TIP3    H242827   0.966   4.441  11.311  0.1113 -0.0088  1.4436
 7138TIP3   OH242828   2.781   5.634   1.807 -0.2813 -0.5700  0.2186
 7138TIP3    H142829   2.689   5.623   1.783  0.2137 -1.3925 -1.3832
 7138TIP3    H242830   2.801   5.558   1.862  0.3700 -2.3238 -2.3638
 7139TIP3   OH242831   2.781   0.988   4.303 -0.4119  0.0850 -0.7694
 7139TIP3    H142832   2.780   0.934   4.223  0.2033  0.9367 -1.3559
 7139TIP3    H242833   2.740   1.070   4.276  2.1790  1.3591 -0.9171
 7140TIP3   OH242834   2.921   3.157   4.908 -0.4997  0.0815  0.4302
 7140TIP3    H142835   2.881   3.238   4.941 -0.6228 -0.0353  0.5656
 7140TIP3    H242836   2.860   3.088   4.934 -1.6449  0.1973 -1.7999
 7141TIP3   OH242837   0.828   2.774   4.886 -0.1453 -0.2109  0.6776
 7141TIP3    H142838   0.854   2.767   4.794 -1.2051  0.5007  0.3267
 7141TIP3    H242839   0.733   2.766   4.885 -0.2050  0.3561  1.6675
 7142TIP3   OH242840   0.195   0.907   5.013 -0.1539 -0.3731 -0.4865
 7142TIP3    H142841   0.252   0.983   4.998  0.6067 -0.8761 -0.1558
 7142TIP3    H242842   0.256   0.833   5.023 -0.8246 -0.7913  0.5954
 7143TIP3   OH242843   2.647   0.966   4.540  0.7817  0.0616 -0.2663
 7143TIP3    H142844   2.634   0.871   4.545 -0.9173  0.2986 -0.1368
 7143TIP3    H242845   2.692   0.980   4.456 -0.4592 -0.7009 -1.0691
 7144TIP3   OH242846   0.895   4.856  15.475 -0.3557  0.2320 -0.2309
 7144TIP3    H142847   0.928   4.944  15.454 -1.9989  0.5993 -1.4519
 7144TIP3    H242848   0.931   4.836  15.561  2.3265  0.9283 -1.1521
 7145TIP3   OH242849   1.455   6.594   1.830  0.7409 -0.6263 -0.1230
 7145TIP3    H142850   1.429   6.544   1.908 -1.1035  0.3470 -0.0886
 7145TIP3    H242851   1.500   6.671   1.865  0.0040 -0.2409 -0.0091
 7146TIP3   OH242852   6.741   6.337  14.446 -0.5383 -0.0229  0.0772
 7146TIP3    H142853   6.700   6.422  14.457 -0.1568  0.3368 -1.2316
 7146TIP3    H242854   6.671   6.281  14.413  0.1115  0.7147 -2.6390
 7147TIP3   OH242855   0.455   3.743   4.876  0.1390  0.0454 -0.3700
 7147TIP3    H142856   0.502   3.662   4.856  1.3433  0.6100  0.1335
 7147TIP3    H242857   0.389   3.750   4.807  0.8066 -0.7431 -1.0929
 7148TIP3   OH242858   0.723   6.717   5.462 -0.4838 -0.5403  0.7687
 7148TIP3    H142859   0.656   6.657   5.497 -2.2613 -0.0811 -1.6572
 7148TIP3    H242860   0.672   6.785   5.417  1.5822  1.3829  1.2986
 7149TIP3   OH242861   5.993   0.164   3.700  0.4876 -0.5962 -0.1274
 7149TIP3    H142862   5.962   0.176   3.611 -2.6359  0.6198  1.0274
 7149TIP3    H242863   6.021   0.251   3.728  2.7096 -1.2193 -0.3181
 7150TIP3   OH242864   3.697   1.647  12.175  0.0406  0.2506 -0.2963
 7150TIP3    H142865   3.746   1.708  12.231 -2.2115  0.8948  1.0477
 7150TIP3    H242866   3.750   1.567  12.175  1.1262  0.9427  1.1014
 7151TIP3   OH242867   1.251   4.659  16.060  0.1730  0.0525 -0.3795
 7151TIP3    H142868   1.201   4.730  16.021  0.7529 -0.2672 -1.7193
 7151TIP3    H242869   1.285   4.696  16.142  0.0625  1.1528 -0.8326
 7152TIP3   OH242870   4.144   2.247  12.467  0.2536 -0.3934 -0.3151
 7152TIP3    H142871   4.096   2.203  12.397  0.5387  0.2218 -0.9173
 7152TIP3    H242872   4.219   2.287  12.422  0.6600 -0.3323  0.4112
 7153TIP3   OH242873   2.641   4.024  17.015 -0.0387  0.8449 -0.3568
 7153TIP3    H142874   2.596   3.967  16.954 -0.0031  1.1482 -0.6660
 7153TIP3    H242875   2.592   4.106  17.013  0.9386  1.4187 -1.2292
 7154TIP3   OH242876   0.492   5.005   0.393  0.1822 -0.3439  0.4431
 7154TIP3    H142877   0.545   5.073   0.350 -0.3631  0.2024  0.6361
 7154TIP3    H242878   0.421   5.053   0.435  1.4938 -0.7124  3.1971
 7155TIP3   OH242879   2.435   5.611  14.127  0.3355 -0.0331 -0.0957
 7155TIP3    H142880   2.488   5.688  14.112 -1.0503  0.8915 -0.3286
 7155TIP3    H242881   2.476   5.542  14.075  0.7970  0.8774 -0.9379
 7156TIP3   OH242882   5.492   5.720  16.602  0.3103  0.0729  0.5250
 7156TIP3    H142883   5.534   5.697  16.685  1.5500  4.0766  1.0753
 7156TIP3    H242884   5.399   5.725  16.623  0.4552 -0.4409  1.3107
 7157TIP3   OH242885   5.028   3.557   1.819 -0.2335 -0.9374 -0.0331
 7157TIP3    H142886   5.037   3.628   1.756 -2.4759 -1.6059 -1.1513
 7157TIP3    H242887   5.062   3.480   1.774 -0.7225 -1.1771 -0.0019
 7158TIP3   OH242888   1.685   2.560  14.583  0.2006  0.1475  0.2315
 7158TIP3    H142889   1.741   2.484  14.568 -0.4776 -0.2238 -0.5032
 7158TIP3    H242890   1.662   2.555  14.676  0.4697 -0.3384  0.2752
 7159TIP3   OH242891   1.001   3.389   3.082  0.2811  0.2932 -0.0285
 7159TIP3    H142892   0.938   3.456   3.054 -0.0347 -0.5201 -1.3351
 7159TIP3    H242893   0.953   3.336   3.146  0.3542  0.9829  0.6021
 7160TIP3   OH242894   0.061   2.362  14.375  0.1321 -0.8122  0.4092
 7160TIP3    H142895   0.019   2.299  14.433 -1.4770 -0.3912 -0.2686
 7160TIP3    H242896   0.088   2.433  14.432 -0.6227 -0.8151  0.7794
 7161TIP3   OH242897   2.425   1.179  12.499  0.4588  0.0261 -0.3855
 7161TIP3    H142898   2.376   1.118  12.444  1.0626 -1.5560  0.7799
 7161TIP3    H242899   2.390   1.265  12.476 -0.3533 -0.7272 -2.1356
 7162TIP3   OH242900   4.192   6.318  12.072  0.4587 -0.4227 -0.2129
 7162TIP3    H142901   4.200   6.281  11.984  0.9136 -2.4313  0.6656
 7162TIP3    H242902   4.278   6.356  12.090 -0.2188  1.7998 -1.3959
 7163TIP3   OH242903   2.925   5.965  16.833 -0.0654  0.1438  0.0871
 7163TIP3    H142904   2.968   5.914  16.902 -0.9544  0.0357  0.5866
 7163TIP3    H242905   2.935   5.913  16.754  0.5102  0.0087  0.2511
 7164TIP3   OH242906   4.876   5.351   3.030  0.0552 -0.0695  0.2489
 7164TIP3    H142907   4.912   5.405   3.101  1.4730 -1.2693  0.4653
 7164TIP3    H242908   4.838   5.414   2.969 -1.6024  0.9554  2.3009
 7165TIP3   OH242909   5.292   3.678   3.796 -0.3118 -0.1502 -1.5772
 7165TIP3    H142910   5.268   3.631   3.876  1.2310  0.1729 -0.9023
 7165TIP3    H242911   5.211   3.682   3.745 -1.4286  0.0767  0.1855
 7166TIP3   OH242912   2.289   4.294  14.800  0.4245 -0.4715 -0.0517
 7166TIP3    H142913   2.375   4.259  14.822 -1.2592 -3.4053  2.2299
 7166TIP3    H242914   2.232   4.267  14.872 -2.8363 -0.2206 -2.3955
 7167TIP3   OH242915   5.334   2.813  11.998  0.1308 -0.0068  0.2020
 7167TIP3    H142916   5.298   2.894  11.961 -0.7387  0.3600  1.8204
 7167TIP3    H242917   5.342   2.754  11.923 -2.0869  0.5521 -0.5027
 7168TIP3   OH242918   4.333   3.458   4.697  0.5442 -0.0704 -0.1520
 7168TIP3    H142919   4.396   3.465   4.768  1.1365 -0.7029 -0.5979
 7168TIP3    H242920   4.343   3.368   4.665 -2.7025 -1.1748  1.7119
 7169TIP3   OH242921   6.194   4.824   5.631 -0.4945  0.5408 -0.0812
 7169TIP3    H142922   6.113   4.872   5.647  0.4393  1.9970  0.3993
 7169TIP3    H242923   6.225   4.798   5.718 -0.1868  0.4307 -0.2199
 7170TIP3   OH242924   5.706   4.563   3.878  0.0096  0.2033  0.8133
 7170TIP3    H142925   5.691   4.651   3.912 -0.8024 -0.3076  1.7871
 7170TIP3    H242926   5.703   4.507   3.954 -0.3653 -0.7822  0.0816
 7171TIP3   OH242927   6.327   4.055  16.335  0.2893  0.2049 -0.7069
 7171TIP3    H142928   6.236   4.051  16.303 -0.0338  1.1870  0.0577
 7171TIP3    H242929   6.333   3.984  16.399 -0.2022  0.6823 -0.1262
 7172TIP3   OH242930   0.373   5.616   3.822 -0.0882  0.7470 -0.4862
 7172TIP3    H142931   0.378   5.685   3.888  0.1716  0.6465 -0.4021
 7172TIP3    H242932   0.395   5.659   3.740 -0.7859  0.9571 -0.5692
 7173TIP3   OH242933   0.222   3.538  15.005  0.0420  0.1944  0.4491
 7173TIP3    H142934   0.147   3.596  14.994  0.2110  0.6567  1.6986
 7173TIP3    H242935   0.278   3.557  14.930  0.2460  1.8767  1.0011
 7174TIP3   OH242936   6.639   2.228  13.783  0.1384  0.4043 -0.4039
 7174TIP3    H142937   6.665   2.321  13.783 -0.1761  0.4968  0.2001
 7174TIP3    H242938   6.554   2.227  13.741  0.8090  0.1856 -1.7880
 7175TIP3   OH242939   0.798   4.225   0.181  0.3861 -0.0402  0.0698
 7175TIP3    H142940   0.867   4.159   0.185  0.2256 -0.3669 -1.9100
 7175TIP3    H242941   0.718   4.176   0.201  0.3339 -0.3455 -0.8634
 7176TIP3   OH242942   5.370   5.783  14.076 -0.4353 -0.0446 -0.0312
 7176TIP3    H142943   5.442   5.847  14.079 -0.2150 -0.3543  2.1853
 7176TIP3    H242944   5.389   5.730  13.998  1.1438  0.5569 -0.0820
 7177TIP3   OH242945   3.300   2.263  14.442  0.3664 -0.1718 -0.2253
 7177TIP3    H142946   3.249   2.342  14.461  0.9807  0.3282 -0.6332
 7177TIP3    H242947   3.235   2.193  14.440 -0.3331  0.4798 -0.8850
 7178TIP3   OH242948   4.226   0.621  12.927 -0.0774  0.0325 -0.0843
 7178TIP3    H142949   4.321   0.633  12.921 -0.2040  0.1679 -2.7866
 7178TIP3    H242950   4.192   0.707  12.949  0.3149  0.4927 -1.2123
 7179TIP3   OH242951   1.730   2.500   5.805  0.1881  0.4054 -0.0564
 7179TIP3    H142952   1.783   2.421   5.817 -1.0870 -0.4419  0.0778
 7179TIP3    H242953   1.642   2.473   5.830 -0.6182  1.3474 -1.8123
 7180TIP3   OH242954   5.287   4.997   4.109  0.1962 -0.6822  0.1117
 7180TIP3    H142955   5.324   4.954   4.186  1.7386 -0.1235 -0.3080
 7180TIP3    H242956   5.346   4.975   4.038 -1.1161 -1.0320 -0.8993
 7181TIP3   OH242957   3.162   4.356   2.137  0.2646 -0.3091 -0.5748
 7181TIP3    H142958   3.162   4.375   2.231  1.6147 -0.7453 -0.4800
 7181TIP3    H242959   3.127   4.435   2.097 -1.2109 -0.4677  0.3595
 7182TIP3   OH242960   4.814   6.589  11.988  0.8235 -0.2490 -0.2089
 7182TIP3    H142961   4.779   6.520  12.044 -2.4641  0.1484 -1.6178
 7182TIP3    H242962   4.842   6.545  11.908 -1.2454 -0.0249 -1.0951
 7183TIP3   OH242963   3.307   2.079  15.127  0.9135 -0.0067  0.1247
 7183TIP3    H142964   3.383   2.022  15.141  2.0589  1.4396 -0.1012
 7183TIP3    H242965   3.232   2.022  15.140  2.0385 -1.9057 -1.4121
 7184TIP3   OH242966   2.454   1.595  15.945  0.0345 -0.0917 -0.0159
 7184TIP3    H142967   2.437   1.672  15.891 -0.9942 -1.0921 -1.1615
 7184TIP3    H242968   2.377   1.588  16.002 -0.6293 -1.1351 -0.9972
 7185TIP3   OH242969   3.715   2.752   5.938  1.0700  0.4778  0.2635
 7185TIP3    H142970   3.628   2.750   5.978  0.7378 -0.2791 -0.4840
 7185TIP3    H242971   3.763   2.817   5.989  0.3533  0.2293  1.2848
 7186TIP3   OH242972   5.618   6.773   2.215  0.0224  0.0707 -0.0074
 7186TIP3    H142973   5.712   6.774   2.233 -0.2472 -1.5772  1.5880
 7186TIP3    H242974   5.580   6.832   2.280 -0.2583 -0.8812  0.7050
 7187TIP3   OH242975   2.728   2.973   4.125  0.5975 -0.1660  0.2227
 7187TIP3    H142976   2.672   2.923   4.184 -1.2459  1.3973 -0.1453
 7187TIP3    H242977   2.779   3.031   4.182 -1.1620  1.3268  0.3268
 7188TIP3   OH242978   4.757   5.205  11.317  0.2298  0.0411  0.3519
 7188TIP3    H142979   4.801   5.255  11.386  0.5295  0.3904 -0.0945
 7188TIP3    H242980   4.793   5.239  11.235 -1.4231  0.8807 -0.0622
 7189TIP3   OH242981   4.017   2.636  13.822  0.5999  0.1038  0.4083
 7189TIP3    H142982   4.023   2.693  13.745 -1.0047 -1.3145 -0.8187
 7189TIP3    H242983   3.987   2.693  13.892  0.0854  0.9951 -0.5366
 7190TIP3   OH242984   0.526   2.332  16.299 -0.4034 -0.3812 -0.0913
 7190TIP3    H142985   0.503   2.415  16.258  0.1869 -0.2596 -0.1746
 7190TIP3    H242986   0.484   2.334  16.385  0.2010  0.3021  0.1896
 7191TIP3   OH242987   0.903   4.579   5.861  0.5156 -0.2815 -0.0482
 7191TIP3    H142988   0.959   4.632   5.805 -0.1442 -0.8558 -1.2719
 7191TIP3    H242989   0.903   4.493   5.821  0.2787 -0.7844  1.0143
 7192TIP3   OH242990   2.356   3.279  16.368 -0.3073  0.4598  0.5375
 7192TIP3    H142991   2.374   3.190  16.398 -0.6456  0.8864  2.0865
 7192TIP3    H242992   2.269   3.275  16.329  1.4780 -0.8200 -3.5350
 7193TIP3   OH242993   0.059   5.811  14.019 -0.3225  0.0173 -0.5996
 7193TIP3    H142994   0.038   5.774  13.934 -0.8055 -0.0473 -0.4556
 7193TIP3    H242995  -0.025   5.819  14.063  0.0709 -1.4712  0.4939
 7194TIP3   OH242996   0.004   4.907   6.256  0.2710 -0.0711 -0.8532
 7194TIP3    H142997  -0.035   4.921   6.169  1.7623 -1.8572 -1.8425
 7194TIP3    H242998   0.033   4.994   6.283 -1.4220  0.7318 -1.5429
 7195TIP3   OH242999   1.100   6.359  15.872 -0.0772  0.3507  0.0467
 7195TIP3    H143000   1.119   6.401  15.788 -0.7641 -1.0974 -0.8511
 7195TIP3    H243001   1.005   6.369  15.883 -0.3074 -1.2090 -0.3386
 7196TIP3   OH243002   4.223   3.549   4.097 -0.0622 -0.4859 -0.3965
 7196TIP3    H143003   4.299   3.494   4.078  0.4489  0.3789 -0.9066
 7196TIP3    H243004   4.258   3.621   4.149 -0.8191 -0.9095  0.7256
 7197TIP3   OH243005   4.488   5.207  12.622 -0.6272 -0.5126 -0.1175
 7197TIP3    H143006   4.470   5.268  12.551 -1.3825 -0.9098 -0.2765
 7197TIP3    H243007   4.404   5.196  12.666  0.0752  0.5636  1.5108
 7198TIP3   OH243008   6.548   2.206  13.052  0.1810 -0.0379  0.9316
 7198TIP3    H143009   6.458   2.237  13.049  0.4091  0.5308 -0.1043
 7198TIP3    H243010   6.595   2.261  12.990  0.9190 -1.3767  0.2785
 7199TIP3   OH243011   3.318   0.307   3.482 -0.1007  0.0753  0.6498
 7199TIP3    H143012   3.360   0.320   3.398 -0.6767  0.7655  0.4560
 7199TIP3    H243013   3.287   0.216   3.481  0.3737 -0.0816  0.3427
 7200TIP3   OH243014   3.387   4.917   4.307  0.0081 -0.2122  0.2120
 7200TIP3    H143015   3.328   4.991   4.292 -0.3949 -0.8699 -1.6074
 7200TIP3    H243016   3.376   4.862   4.230  2.3392 -0.8236  0.2877
 7201TIP3   OH243017   4.679   2.783   5.044  0.3608  0.1878 -0.0155
 7201TIP3    H143018   4.657   2.711   4.986 -0.0689  0.4951 -0.2335
 7201TIP3    H243019   4.771   2.801   5.026  0.3033  0.0980 -0.3944
 7202TIP3   OH243020   5.600   0.275   4.719 -0.0361  0.9696  0.2322
 7202TIP3    H143021   5.692   0.251   4.707  0.3815  2.7582 -0.2347
 7202TIP3    H243022   5.572   0.307   4.633 -0.4644  2.5284  0.9386
 7203TIP3   OH243023   4.477   2.994   4.408  0.5871  0.3168 -0.5156
 7203TIP3    H143024   4.485   3.089   4.402  1.2854  0.3096  0.2579
 7203TIP3    H243025   4.451   2.966   4.320  0.2129  1.2381 -0.6946
 7204TIP3   OH243026   1.108   3.246  16.017 -0.0142 -0.2854 -0.3807
 7204TIP3    H143027   1.201   3.256  16.000  0.4786 -2.9972  0.4846
 7204TIP3    H243028   1.065   3.274  15.936  1.4552  1.9443 -0.4385
 7205TIP3   OH243029   2.314   4.038  13.709  0.4015  0.4752 -0.2931
 7205TIP3    H143030   2.311   3.967  13.645 -1.4433  0.3327 -0.0847
 7205TIP3    H243031   2.222   4.064  13.721  0.8812  1.7083  0.9493
 7206TIP3   OH243032   0.272   4.824  15.830 -0.6552 -0.5515  0.1001
 7206TIP3    H143033   0.234   4.768  15.762  0.5389 -1.0837 -0.1430
 7206TIP3    H243034   0.223   4.906  15.824 -1.9315 -1.2993 -0.0307
 7207TIP3   OH243035   3.501   0.330  13.140  0.8029 -0.3695  0.3237
 7207TIP3    H143036   3.419   0.378  13.146  0.0588 -1.5944  0.1470
 7207TIP3    H243037   3.519   0.302  13.230  1.0352 -0.0911  0.3651
 7208TIP3   OH243038   4.254   1.542   0.610  0.4114  0.0799 -0.4211
 7208TIP3    H143039   4.296   1.495   0.538 -0.1791  0.2697 -0.8871
 7208TIP3    H243040   4.315   1.612   0.631  0.8429 -0.3074 -0.3645
 7209TIP3   OH243041   5.238   0.720   2.549 -0.0390  0.3856  0.1697
 7209TIP3    H143042   5.277   0.633   2.547 -0.8500  0.0294 -0.7163
 7209TIP3    H243043   5.144   0.704   2.553 -0.1859  1.2183  0.0932
 7210TIP3   OH243044   3.505   4.059  15.384  0.1554 -0.0654 -0.1257
 7210TIP3    H143045   3.434   4.091  15.329 -0.8256 -0.7136  0.7425
 7210TIP3    H243046   3.485   4.095  15.471  0.1956 -1.2723  0.3904
 7211TIP3   OH243047   5.297   5.279   4.066 -0.4067 -0.1033  0.4356
 7211TIP3    H143048   5.387   5.298   4.090 -0.4271 -0.8088  1.1291
 7211TIP3    H243049   5.281   5.191   4.101 -1.5083  0.2047  0.7611
 7212TIP3   OH243050   3.483   4.833   4.968 -0.2658 -0.0666  0.3723
 7212TIP3    H143051   3.573   4.801   4.972  0.4836  1.9952  1.0056
 7212TIP3    H243052   3.472   4.881   5.050 -1.5755  0.6266 -0.2001
 7213TIP3   OH243053   0.215   0.587  14.665 -0.0392  0.0909 -0.0255
 7213TIP3    H143054   0.120   0.578  14.673 -0.0285  0.6756  0.8841
 7213TIP3    H243055   0.249   0.502  14.694 -0.2999 -0.3232 -0.9118
 7214TIP3   OH243056   0.652   3.448   5.539  0.5235 -0.1558 -0.9512
 7214TIP3    H143057   0.677   3.399   5.618  0.9578  1.2395 -0.1957
 7214TIP3    H243058   0.566   3.415   5.516 -0.1069  0.2201  0.8027
 7215TIP3   OH243059   5.052   0.836  15.481  0.1122 -0.2942 -0.1110
 7215TIP3    H143060   4.965   0.814  15.515  0.9166  1.1029  3.1097
 7215TIP3    H243061   5.075   0.762  15.425 -3.0407 -0.7852 -0.8973
 7216TIP3   OH243062   6.073   5.494   1.718 -0.5505  0.1258  0.3131
 7216TIP3    H143063   6.007   5.463   1.656 -0.8538  0.2519  0.5728
 7216TIP3    H243064   6.062   5.589   1.720 -0.3680  0.1465  0.3637
 7217TIP3   OH243065   0.953   1.168   5.947 -0.6545  0.0932  0.0137
 7217TIP3    H143066   1.005   1.126   6.016  1.1650  0.8957 -0.8521
 7217TIP3    H243067   0.979   1.260   5.950 -1.4081  0.3362 -0.9907
 7218TIP3   OH243068   5.011   2.129   3.413  0.1675 -0.0083 -0.6987
 7218TIP3    H143069   5.083   2.118   3.350  1.7408 -0.9332  1.2215
 7218TIP3    H243070   4.984   2.039   3.434  0.9905  0.2253  1.4331
 7219TIP3   OH243071   1.009   2.540   4.871 -0.1448 -0.7536 -0.0628
 7219TIP3    H143072   1.095   2.568   4.842  0.2287 -0.5510  1.2186
 7219TIP3    H243073   0.968   2.619   4.907 -1.1904 -0.6646 -1.4286
 7220TIP3   OH243074   0.047   2.746  13.710  0.3850  0.8002  0.4996
 7220TIP3    H143075   0.022   2.837  13.690 -1.4764  0.2692  0.2852
 7220TIP3    H243076   0.072   2.748  13.803  1.4091  1.7364  0.2132
 7221TIP3   OH243077   6.482   6.172   5.834  0.4131  0.1136  0.0858
 7221TIP3    H143078   6.527   6.214   5.907 -0.3575 -2.4047  2.0817
 7221TIP3    H243079   6.512   6.219   5.756  0.5956  3.4323  2.0795
 7222TIP3   OH243080   5.130   6.415   6.613 -0.2593  0.4667 -0.0092
 7222TIP3    H143081   5.098   6.328   6.592  0.9132  0.2676 -1.0517
 7222TIP3    H243082   5.079   6.442   6.690 -1.6358 -0.5369 -0.5484
 7223TIP3   OH243083   5.850   2.679  16.000  0.6017 -0.4169  0.1697
 7223TIP3    H143084   5.899   2.749  15.957 -0.5823 -0.2333 -0.9121
 7223TIP3    H243085   5.762   2.687  15.965 -0.3328 -0.4530  2.4602
 7224TIP3   OH243086   1.931   1.786  10.704  0.3578 -0.1145  0.4044
 7224TIP3    H143087   1.908   1.811  10.615  1.8847  0.8861  0.2803
 7224TIP3    H243088   1.968   1.698  10.696 -1.5259 -0.9379  0.3582
 7225TIP3   OH243089   5.440   3.199   5.939 -0.0413  0.0583 -0.2407
 7225TIP3    H143090   5.376   3.268   5.922  0.0030  0.0087 -0.6041
 7225TIP3    H243091   5.399   3.120   5.904  0.0352 -0.0504 -0.0869
 7226TIP3   OH243092   4.827   2.520   5.078 -0.1215  0.1704  0.4344
 7226TIP3    H143093   4.737   2.545   5.102 -0.1046 -0.2140  0.9118
 7226TIP3    H243094   4.818   2.463   5.002 -0.2509  0.4866  0.2097
 7227TIP3   OH243095   1.030   3.203  13.681  0.1021  0.2782  0.4147
 7227TIP3    H143096   1.030   3.218  13.586  0.3036  0.8760  0.5081
 7227TIP3    H243097   0.940   3.221  13.707  0.3746  1.4721  0.5463
 7228TIP3   OH243098   3.020   0.752   1.780 -0.5243 -0.1079  0.1173
 7228TIP3    H143099   2.980   0.759   1.866  0.3667  0.2241  0.5163
 7228TIP3    H243100   3.027   0.842   1.749 -1.1611 -0.2521 -0.4578
 7229TIP3   OH243101   2.969   0.694   0.898  0.1498  0.0477 -0.3616
 7229TIP3    H143102   2.882   0.654   0.899  0.7833 -1.3557 -0.6819
 7229TIP3    H243103   2.975   0.736   0.813 -0.3849  0.5481 -0.1603
 7230TIP3   OH243104   0.058   1.418   2.878  0.5349  0.5359  0.0192
 7230TIP3    H143105   0.036   1.424   2.971  1.1809  0.5191  0.1753
 7230TIP3    H243106  -0.012   1.364   2.840  0.0257  0.9245  0.4081
 7231TIP3   OH243107   3.908   5.251  15.623 -0.3478  0.4668 -0.5826
 7231TIP3    H143108   3.863   5.194  15.561  0.0940  0.2650 -0.7211
 7231TIP3    H243109   3.998   5.255  15.590 -0.2519  0.8171 -0.2745
 7232TIP3   OH243110   1.724   5.786  16.321 -0.2370 -0.5174  0.0135
 7232TIP3    H143111   1.764   5.873  16.317  0.3267 -0.8100 -1.2787
 7232TIP3    H243112   1.682   5.776  16.235 -1.2383 -1.0890  0.5612
 7233TIP3   OH243113   3.578   3.415   0.918 -0.1859  0.3770  0.0740
 7233TIP3    H143114   3.554   3.500   0.953  0.2624  0.3274  0.5130
 7233TIP3    H243115   3.613   3.367   0.993 -1.3499 -0.5454  0.0322
 7234TIP3   OH243116   6.342   2.043   1.846  0.1103  0.7649  0.2677
 7234TIP3    H143117   6.291   2.009   1.772  1.5143  1.3842 -1.0288
 7234TIP3    H243118   6.431   2.012   1.829  0.1623 -0.4671  2.5912
 7235TIP3   OH243119   0.076   5.466  16.401 -0.5545 -0.0463  0.4431
 7235TIP3    H143120   0.153   5.472  16.344  0.0043  1.7970  1.3463
 7235TIP3    H243121   0.007   5.510  16.352 -0.3726  0.5186  0.6889
 7236TIP3   OH243122   1.440   1.012   4.483  0.1152  0.3308 -0.5087
 7236TIP3    H143123   1.401   0.930   4.455 -1.0183  1.0823 -1.1872
 7236TIP3    H243124   1.369   1.076   4.477  1.3989  1.7050 -1.6667
 7237TIP3   OH243125   2.426   5.897  14.816  0.2049 -0.0394 -0.2443
 7237TIP3    H143126   2.339   5.870  14.789  1.0672 -2.4541 -0.6849
 7237TIP3    H243127   2.434   5.987  14.785 -2.1440  0.2463 -0.1131
 7238TIP3   OH243128   1.181   0.488  13.433 -0.1322  0.4283 -0.3490
 7238TIP3    H143129   1.177   0.434  13.512  0.2414 -0.0952 -0.6863
 7238TIP3    H243130   1.089   0.506  13.412 -0.3654 -1.7065 -1.3295
 7239TIP3   OH243131   4.545   1.102  13.730 -0.3010  1.0145  0.3252
 7239TIP3    H143132   4.457   1.081  13.759 -0.3013 -0.8578 -1.0067
 7239TIP3    H243133   4.545   1.198  13.722 -2.1733  1.0309  0.3905
 7240TIP3   OH243134   6.785   3.123   0.120  0.0081 -0.1241  0.2869
 7240TIP3    H143135   6.776   3.076   0.203  0.2084  2.0398  1.5704
 7240TIP3    H243136   6.804   3.213   0.145  2.7295  0.0540 -2.1301
 7241TIP3   OH243137   2.340   2.260   0.926  0.4834  0.1137 -0.2388
 7241TIP3    H143138   2.266   2.226   0.975  0.8190 -0.7371 -0.3218
 7241TIP3    H243139   2.415   2.208   0.955  0.9591  0.6209 -0.5343
 7242TIP3   OH243140   1.328   6.448   3.753 -0.0639  0.6422 -0.7607
 7242TIP3    H143141   1.312   6.376   3.814  0.4338  0.2740 -1.0710
 7242TIP3    H243142   1.386   6.412   3.687 -3.6279 -0.1458 -3.6574
 7243TIP3   OH243143   2.914   5.045   1.519 -0.0553  0.2329  0.0681
 7243TIP3    H143144   2.987   4.984   1.515 -0.5172 -0.5825  2.8118
 7243TIP3    H243145   2.841   4.997   1.479  0.6428  0.6731 -1.7644
 7244TIP3   OH243146   5.867   6.530   4.256  0.0807 -0.0592  0.8543
 7244TIP3    H143147   5.786   6.544   4.305  0.1468  1.7822  0.4735
 7244TIP3    H243148   5.937   6.545   4.320  0.1455  0.8260  0.5816
 7245TIP3   OH243149   4.217   0.706  10.655  0.3878 -0.0620  0.3723
 7245TIP3    H143150   4.122   0.698  10.656  0.5553 -2.5522  0.3063
 7245TIP3    H243151   4.241   0.730  10.744 -0.3912  2.1346  0.0104
 7246TIP3   OH243152   5.108   3.260  12.071 -0.1519  0.1810  0.1923
 7246TIP3    H143153   5.045   3.291  12.006 -0.5805  1.8224  1.3643
 7246TIP3    H243154   5.160   3.337  12.093  0.4268 -0.5125  1.3157
 7247TIP3   OH243155   2.162   0.341  12.749 -0.1726 -0.2091 -0.4667
 7247TIP3    H143156   2.250   0.315  12.721 -0.4865 -2.7648  0.7403
 7247TIP3    H243157   2.103   0.289  12.694 -0.8950  0.0315  0.0716
 7248TIP3   OH243158   2.333   0.579   3.005 -0.2239  0.3414  0.1766
 7248TIP3    H143159   2.331   0.575   2.910 -2.6664  1.9862  0.1178
 7248TIP3    H243160   2.351   0.489   3.033 -1.4840 -0.5542 -1.8075
 7249TIP3   OH243161   5.197   6.530   2.880  0.3706  0.3138  0.4803
 7249TIP3    H143162   5.104   6.509   2.870  0.5075  0.2932 -0.8219
 7249TIP3    H243163   5.208   6.545   2.974 -0.9925  0.5046  0.6218
 7250TIP3   OH243164   4.266   4.773   2.651 -0.3241 -0.0957 -0.2054
 7250TIP3    H143165   4.303   4.850   2.694  0.4097 -1.4125  1.5649
 7250TIP3    H243166   4.341   4.728   2.614 -0.2342 -2.1055  2.2978
 7251TIP3   OH243167   6.326   2.578   1.723 -0.5826  0.1679  0.9258
 7251TIP3    H143168   6.404   2.526   1.702  0.5304  2.0314  0.3653
 7251TIP3    H243169   6.257   2.539   1.669  0.8083  0.8484 -1.3989
 7252TIP3   OH243170   2.832   6.563   3.428 -0.1058 -0.3139 -0.5748
 7252TIP3    H143171   2.872   6.625   3.367  0.6824 -0.9726 -0.7455
 7252TIP3    H243172   2.788   6.499   3.372 -2.2930  0.9698 -0.3663
 7253TIP3   OH243173   0.070   6.669   4.028  0.0384 -0.5682 -0.3751
 7253TIP3    H143174  -0.010   6.718   4.050 -0.2225 -0.4186 -1.5924
 7253TIP3    H243175   0.093   6.623   4.108 -0.3791  0.6367  0.4563
 7254TIP3   OH243176   2.303   6.586   4.859 -0.6516  0.0049 -0.5650
 7254TIP3    H143177   2.283   6.601   4.766  1.1369  1.5473 -0.7354
 7254TIP3    H243178   2.226   6.619   4.906 -1.6692 -1.0020 -1.4858
 7255TIP3   OH243179   2.694   4.235  11.778 -0.0462 -0.1527 -0.1358
 7255TIP3    H143180   2.710   4.152  11.823  0.5623 -0.5565 -1.0688
 7255TIP3    H243181   2.599   4.244  11.776 -0.0708  0.2899  1.9489
 7256TIP3   OH243182   6.534   3.058   4.768  0.5513 -0.9399 -0.0198
 7256TIP3    H143183   6.491   3.097   4.844 -1.1189 -0.5401 -1.1309
 7256TIP3    H243184   6.471   3.069   4.696  2.4448 -0.5135 -1.6752
 7257TIP3   OH243185   3.927   3.897   3.094 -0.4356 -0.2177 -0.5757
 7257TIP3    H143186   3.926   3.974   3.038 -0.7040  0.3412  0.1737
 7257TIP3    H243187   3.951   3.825   3.037 -0.0743  0.4454 -1.2642
 7258TIP3   OH243188   4.706   0.854   0.993  0.3522  0.5663 -0.4085
 7258TIP3    H143189   4.704   0.759   0.994 -1.2292  0.5681 -1.3282
 7258TIP3    H243190   4.738   0.879   1.080  1.5380 -0.8004 -0.4460
 7259TIP3   OH243191   6.005   6.578   5.012  0.4959  0.6058 -0.0851
 7259TIP3    H143192   6.027   6.667   4.984  2.8857 -0.1368 -0.7583
 7259TIP3    H243193   6.072   6.524   4.970  1.1025 -1.1180  2.9846
 7260TIP3   OH243194   0.364   2.230  12.533 -0.6454 -0.2848  0.1507
 7260TIP3    H143195   0.373   2.322  12.556  0.5865 -0.5695  0.8661
 7260TIP3    H243196   0.321   2.230  12.448 -1.2017  0.9315  0.4324
 7261TIP3   OH243197   6.424   5.130   5.358 -0.6715 -0.1228 -0.1613
 7261TIP3    H143198   6.429   5.137   5.263  0.6562  0.3456 -0.0755
 7261TIP3    H243199   6.513   5.150   5.388 -0.9754 -0.6901  1.1506
 7262TIP3   OH243200   6.348   5.886   4.832  0.1991 -0.4290  0.0159
 7262TIP3    H143201   6.295   5.934   4.769  0.2989 -0.5711 -0.1763
 7262TIP3    H243202   6.436   5.924   4.824  0.4544 -1.1508 -0.6752
 7263TIP3   OH243203   0.473   3.540   3.495  0.0914 -0.4234 -0.1581
 7263TIP3    H143204   0.428   3.605   3.550 -1.0990 -0.6278 -0.8873
 7263TIP3    H243205   0.472   3.460   3.548 -1.7966 -0.8450 -0.7822
 7264TIP3   OH243206   0.035   3.721  11.144 -0.3466 -0.1555 -0.3081
 7264TIP3    H143207   0.031   3.625  11.142 -2.9439 -0.1295  1.3305
 7264TIP3    H243208  -0.048   3.749  11.105 -0.0931  1.4164  0.2405
 7265TIP3   OH243209   6.208   2.599   5.537  0.4144  0.1447  0.0231
 7265TIP3    H143210   6.120   2.591   5.576  0.8664 -0.6756  0.8843
 7265TIP3    H243211   6.226   2.693   5.538  0.1208  0.1971  1.1446
 7266TIP3   OH243212   4.995   4.414  15.840  0.2480 -0.3385  0.0554
 7266TIP3    H143213   5.026   4.416  15.750 -0.8253 -0.5400 -0.3215
 7266TIP3    H243214   5.075   4.417  15.893  1.0453 -3.2962 -0.9093
 7267TIP3   OH243215   2.631   1.627   4.225 -0.9322  0.0714  0.3498
 7267TIP3    H143216   2.606   1.541   4.193 -1.6242  0.4490 -0.1226
 7267TIP3    H243217   2.551   1.679   4.222 -0.3726  0.9319 -0.0223
 7268TIP3   OH243218   4.665   1.028  12.532  1.0796 -0.2523 -0.1785
 7268TIP3    H143219   4.752   1.030  12.570  0.6920  0.9044  0.6757
 7268TIP3    H243220   4.670   1.088  12.457  1.0399 -0.2100 -0.1483
 7269TIP3   OH243221   1.236   3.016   2.373 -0.0852 -0.3322  0.1239
 7269TIP3    H143222   1.263   3.107   2.358 -0.6159 -0.5138 -2.0580
 7269TIP3    H243223   1.237   3.007   2.468 -1.1114  2.3242  0.4593
 7270TIP3   OH243224   2.657   0.270   2.184  0.4168 -0.0157  0.0597
 7270TIP3    H143225   2.674   0.187   2.140 -0.1644  0.4200 -0.9957
 7270TIP3    H243226   2.711   0.267   2.263  0.1768 -1.5219  0.1756
 7271TIP3   OH243227   2.158   5.361   3.567  0.2448 -0.6274  0.5145
 7271TIP3    H143228   2.102   5.414   3.624 -0.9282 -1.1325 -0.1324
 7271TIP3    H243229   2.191   5.422   3.502 -0.3792 -0.5096  0.3042
 7272TIP3   OH243230   0.211   2.667  16.408  0.3328  0.8310 -0.3247
 7272TIP3    H143231   0.183   2.576  16.396  0.2027  0.9207 -0.7158
 7272TIP3    H243232   0.244   2.693  16.322  0.4990  1.1090 -0.1735
 7273TIP3   OH243233   1.537   5.055  16.499 -0.2832  0.6626  0.0571
 7273TIP3    H143234   1.598   5.049  16.425 -0.0082 -0.6426  0.3680
 7273TIP3    H243235   1.496   5.141  16.490  2.8884  2.3436  0.8279
 7274TIP3   OH243236   1.405   6.370  11.331 -0.3613 -0.5091 -0.0330
 7274TIP3    H143237   1.487   6.419  11.325 -0.0188 -0.9483  0.9101
 7274TIP3    H243238   1.432   6.281  11.352 -1.1629 -0.1674  2.7099
 7275TIP3   OH243239   4.843   0.684  11.072  0.5826 -0.0544 -0.4964
 7275TIP3    H143240   4.886   0.658  10.991  0.4079  0.1896 -0.6655
 7275TIP3    H243241   4.761   0.725  11.044 -0.5399 -1.9897 -0.1285
 7276TIP3   OH243242   3.614   3.022  14.880  0.2167  0.2974 -0.3558
 7276TIP3    H143243   3.679   3.071  14.930  1.1561 -1.4663  0.1854
 7276TIP3    H243244   3.596   2.945  14.934 -4.1371  1.9126  0.6703
 7277TIP3   OH243245   2.591   1.580   0.009  0.0943  0.3976  0.0156
 7277TIP3    H143246   2.505   1.538   0.002 -0.9155  2.4051 -0.0827
 7277TIP3    H243247   2.637   1.553  -0.070 -1.2366  0.9992 -0.9848
 7278TIP3   OH243248   3.630   6.559  16.834  0.1929 -0.0311 -0.2216
 7278TIP3    H143249   3.538   6.536  16.837  0.4252 -1.1265 -1.5468
 7278TIP3    H243250   3.635   6.631  16.771 -0.0579  1.5246  1.4914
 7279TIP3   OH243251   5.018   6.685   4.451  0.2808 -0.1989 -0.4693
 7279TIP3    H143252   5.021   6.776   4.422 -0.9086 -0.2837 -0.9029
 7279TIP3    H243253   5.096   6.674   4.506  2.2917  0.1118 -3.1408
 7280TIP3   OH243254   1.956   6.696   4.458 -0.5164  0.0031 -0.2321
 7280TIP3    H143255   1.887   6.637   4.426 -1.6575  1.1335  0.0858
 7280TIP3    H243256   2.005   6.722   4.380 -0.1264 -1.2057 -0.3965
 7281TIP3   OH243257   0.329   4.094   1.650  0.2454 -0.0992  0.8894
 7281TIP3    H143258   0.369   4.061   1.731  0.4678 -1.1758  0.3488
 7281TIP3    H243259   0.254   4.145   1.680  0.4627 -0.2903  1.7908
 7282TIP3   OH243260   6.109   6.388  15.546  0.1161  0.2790  0.3130
 7282TIP3    H143261   6.189   6.337  15.560  0.9514  1.0780 -1.4571
 7282TIP3    H243262   6.126   6.472  15.588 -0.8107 -0.4326  2.1929
 7283TIP3   OH243263   6.726   5.771   5.119  0.3532 -0.3463  0.1712
 7283TIP3    H143264   6.649   5.724   5.150  1.3305 -0.6647  2.1840
 7283TIP3    H243265   6.731   5.849   5.174 -0.2958  1.2916 -2.0274
 7284TIP3   OH243266   4.827   4.822   4.613  0.1487  0.1135 -0.3106
 7284TIP3    H143267   4.785   4.803   4.697  1.2977  0.4370  0.3606
 7284TIP3    H243268   4.808   4.915   4.597 -0.5220 -0.0852 -0.6773
 7285TIP3   OH243269   4.518   1.688   4.814  0.4408  0.4653  0.1512
 7285TIP3    H143270   4.470   1.753   4.866  1.1820  0.6382  0.6350
 7285TIP3    H243271   4.522   1.727   4.726  0.4128  0.8332  0.3084
 7286TIP3   OH243272   3.617   3.879   2.430 -0.2070 -0.0217 -0.3765
 7286TIP3    H143273   3.576   3.859   2.515  0.5872 -1.9251 -0.4143
 7286TIP3    H243274   3.694   3.823   2.428  1.6199  2.4614 -0.9405
 7287TIP3   OH243275   3.218   4.126  12.057  0.2008  0.3950  0.0100
 7287TIP3    H143276   3.189   4.041  12.091  1.1967  0.5275  1.2487
 7287TIP3    H243277   3.225   4.181  12.135  1.8148  0.9389 -0.5051
 7288TIP3   OH243278   4.171   5.175   6.613  0.1849  0.3239 -0.0588
 7288TIP3    H143279   4.085   5.217   6.608 -0.3348 -0.7363 -0.1296
 7288TIP3    H243280   4.152   5.084   6.635  1.1840 -0.3781 -2.0212
 7289TIP3   OH243281   6.199   2.768   5.913 -0.6338  0.4243 -0.1023
 7289TIP3    H143282   6.167   2.746   6.001  1.6212  1.0560  0.9179
 7289TIP3    H243283   6.279   2.717   5.903 -0.5553  0.8124 -1.5596
 7290TIP3   OH243284   2.604   5.619  14.802  0.1088 -0.3794 -0.6196
 7290TIP3    H143285   2.595   5.667  14.885 -0.7600 -2.2325  0.4028
 7290TIP3    H243286   2.628   5.531  14.829 -1.1955 -1.2601 -2.3008
 7291TIP3   OH243287   5.860   1.956  13.011  0.2247  0.1673 -0.1886
 7291TIP3    H143288   5.938   2.006  12.987 -0.7010  1.1026 -1.2526
 7291TIP3    H243289   5.792   1.987  12.952 -1.2299  0.0831  1.4090
 7292TIP3   OH243290   4.508   5.785  12.629 -0.1010 -0.0794  0.3425
 7292TIP3    H143291   4.457   5.848  12.681 -0.1411  2.5007 -2.7179
 7292TIP3    H243292   4.473   5.699  12.655 -1.1569  1.1994  3.4124
 7293TIP3   OH243293   4.983   3.941  13.623  0.3632  0.2260 -0.1593
 7293TIP3    H143294   4.907   3.894  13.656  0.9229 -0.0403  0.7668
 7293TIP3    H243295   5.057   3.903  13.670  1.2871 -0.7122 -2.2830
 7294TIP3   OH243296   3.306   6.454   5.848  0.2123  0.7992 -0.1587
 7294TIP3    H143297   3.248   6.389   5.810  0.6004  0.7881 -0.7393
 7294TIP3    H243298   3.256   6.536   5.844  0.4949  0.9306 -1.3227
 7295TIP3   OH243299   0.916   0.001  14.944 -0.4105  0.1950  0.3487
 7295TIP3    H143300   0.845   0.035  14.890  0.4986  0.7491 -0.5391
 7295TIP3    H243301   0.979   0.073  14.949  2.1405 -1.6857 -2.5895
 7296TIP3   OH243302   6.028   2.442   0.415 -0.1951 -0.3668  0.3162
 7296TIP3    H143303   6.120   2.467   0.406 -0.1226 -0.9082 -0.4978
 7296TIP3    H243304   5.996   2.434   0.325 -0.7326 -1.3025  0.5864
 7297TIP3   OH243305   5.903   5.491   0.162 -0.5737 -0.0699  0.1087
 7297TIP3    H143306   5.882   5.454   0.076 -1.7496 -0.1145  0.3971
 7297TIP3    H243307   5.882   5.421   0.223  1.1729 -0.3795  0.3823
 7298TIP3   OH243308   0.231   2.171   3.734 -0.0142  0.2739 -0.2522
 7298TIP3    H143309   0.277   2.244   3.775  1.0206 -0.8688  0.6650
 7298TIP3    H243310   0.301   2.119   3.694 -0.7680 -0.0608 -1.1487
 7299TIP3   OH243311   0.050   2.667   4.908  0.2990  0.2138 -0.4358
 7299TIP3    H143312   0.087   2.704   4.988 -1.4015  1.7547 -0.3267
 7299TIP3    H243313   0.015   2.582   4.935  2.4825 -0.6391 -0.2422
 7300TIP3   OH243314   2.846   6.493   3.070 -0.3664  0.0684 -0.0700
 7300TIP3    H143315   2.789   6.471   3.143 -0.8142 -0.6905 -0.6431
 7300TIP3    H243316   2.815   6.579   3.041 -0.1130  0.4266  0.6974
 7301TIP3   OH243317   0.569   5.778  11.678 -0.1357  0.1741  0.3362
 7301TIP3    H143318   0.592   5.831  11.754 -1.5635 -1.6039  2.0851
 7301TIP3    H243319   0.619   5.697  11.690 -0.4232 -0.1392 -0.5531
 7302TIP3   OH243320   1.422   3.960  12.966  0.0848  0.1964  0.2674
 7302TIP3    H143321   1.366   3.946  13.043  2.4534  0.2713  2.0623
 7302TIP3    H243322   1.394   4.044  12.931  0.9310  1.6139  2.8373
 7303TIP3   OH243323   2.600   5.928  11.178 -0.3309  0.4208 -0.2027
 7303TIP3    H143324   2.622   5.951  11.088  2.7724 -3.7748 -0.7186
 7303TIP3    H243325   2.568   5.838  11.172  3.6906 -1.4207  3.1490
 7304TIP3   OH243326   3.582   1.979   3.927 -0.6089 -0.0983  0.1707
 7304TIP3    H143327   3.612   1.892   3.952  0.3295  0.6576  1.7574
 7304TIP3    H243328   3.515   2.000   3.992  1.0747  1.4341  1.4738
 7305TIP3   OH243329   3.399   5.562   4.731 -0.1387  0.2485 -0.4035
 7305TIP3    H143330   3.330   5.621   4.701 -1.0997 -0.7460 -0.1733
 7305TIP3    H243331   3.374   5.540   4.821 -0.6238 -1.7138 -1.0013
 7306TIP3   OH243332   4.690   2.138  16.710 -0.0498  0.5322 -0.1799
 7306TIP3    H143333   4.606   2.160  16.669 -0.1707  0.5936  0.1015
 7306TIP3    H243334   4.720   2.060  16.663 -0.1900  0.5985 -0.3837
 7307TIP3   OH243335   1.772   0.622   6.560 -0.0581  0.0039 -0.2733
 7307TIP3    H143336   1.852   0.569   6.564  0.4170  0.7947  1.0943
 7307TIP3    H243337   1.722   0.595   6.637 -0.1977  0.9253 -0.0403
 7308TIP3   OH243338   0.253   1.885   6.468  0.0550  0.0643  0.3781
 7308TIP3    H143339   0.247   1.807   6.523 -1.9127  0.8364  1.3409
 7308TIP3    H243340   0.321   1.938   6.509 -0.7068  0.1864  1.5259
 7309TIP3   OH243341   3.347   0.478  11.624  0.1012  0.0690 -0.4977
 7309TIP3    H143342   3.268   0.520  11.658 -0.6487 -1.1321 -0.7010
 7309TIP3    H243343   3.418   0.514  11.677 -0.9966 -1.5139  2.2169
 7310TIP3   OH243344   0.428   5.638  10.887 -0.6579 -0.2552  0.1439
 7310TIP3    H143345   0.503   5.685  10.853 -0.3552 -1.7606 -1.3581
 7310TIP3    H243346   0.466   5.564  10.936 -1.1534 -1.1653 -0.8382
 7311TIP3   OH243347   0.449   0.353  12.277 -0.1725  0.2080  0.9800
 7311TIP3    H143348   0.440   0.432  12.224  1.7034 -0.7784 -0.8876
 7311TIP3    H243349   0.366   0.307  12.265  0.1666  0.0581 -1.0858
 7312TIP3   OH243350   4.955   4.789   5.492  0.0242 -0.2586 -0.1896
 7312TIP3    H143351   5.005   4.757   5.417 -1.8054 -0.2085 -1.4383
 7312TIP3    H243352   4.866   4.757   5.478 -0.9395  1.9460  0.6165
 7313TIP3   OH243353   4.549   4.479  11.366 -0.0718 -0.2692 -0.2770
 7313TIP3    H143354   4.605   4.401  11.373  0.6204  0.1478 -1.0329
 7313TIP3    H243355   4.603   4.542  11.319 -1.3574 -0.0256 -1.4550
 7314TIP3   OH243356   4.044   5.247   3.709  0.1291 -0.2612  0.2079
 7314TIP3    H143357   4.092   5.327   3.688  1.2386 -0.7004  1.0347
 7314TIP3    H243358   4.108   5.191   3.752 -0.8016 -1.3589  0.1886
 7315TIP3   OH243359   0.663   5.312  13.934 -0.4770  0.3413 -0.2891
 7315TIP3    H143360   0.639   5.251  14.003  0.3580  1.4342  1.0096
 7315TIP3    H243361   0.712   5.381  13.979 -0.0223  1.1448 -1.9542
 7316TIP3   OH243362   3.875   1.323   5.310 -0.2730 -0.4883 -0.9770
 7316TIP3    H143363   3.823   1.251   5.345  2.2366 -1.7252  0.3408
 7316TIP3    H243364   3.889   1.381   5.385 -1.7513  1.0909 -1.8871
 7317TIP3   OH243365   6.286   4.167   4.488  0.0686 -0.3150 -0.3060
 7317TIP3    H143366   6.326   4.233   4.545 -0.7254  0.1627 -0.2818
 7317TIP3    H243367   6.337   4.088   4.503 -0.9283 -0.5419  2.0397
 7318TIP3   OH243368   1.891   2.813  12.295  0.1485  0.4706 -0.8800
 7318TIP3    H143369   1.885   2.806  12.199  2.8252 -0.7583 -1.0249
 7318TIP3    H243370   1.968   2.867  12.310  0.1627  0.0617  0.5672
 7319TIP3   OH243371   5.478   4.010  14.498  0.3388  0.5600 -0.4564
 7319TIP3    H143372   5.545   3.965  14.550  0.3696 -0.4972 -1.4211
 7319TIP3    H243373   5.514   4.013  14.410  0.6178  3.0322 -0.3059
 7320TIP3   OH243374   2.291   6.331   2.821  0.1512 -0.3596  0.3401
 7320TIP3    H143375   2.252   6.416   2.840 -1.9017 -1.3705  0.7693
 7320TIP3    H243376   2.304   6.331   2.726  0.1008  0.4047  0.3307
 7321TIP3   OH243377   0.919   2.555   1.232  0.2013 -0.6729  0.2538
 7321TIP3    H143378   0.910   2.565   1.137 -0.3756  1.8823  0.5330
 7321TIP3    H243379   0.837   2.590   1.267  2.2327  2.7524  1.8596
 7322TIP3   OH243380   6.702   5.647  13.312  0.9752 -0.0504 -0.1272
 7322TIP3    H143381   6.743   5.709  13.252  0.2441  0.7419  0.1735
 7322TIP3    H243382   6.611   5.641  13.282  1.6420 -3.0003 -1.7683
 7323TIP3   OH243383   6.279   3.918  11.216  0.4695 -0.5098 -0.2408
 7323TIP3    H143384   6.312   3.914  11.126  2.3403  1.9396  0.2617
 7323TIP3    H243385   6.301   3.833  11.254  0.2724 -1.3128 -1.9031
 7324TIP3   OH243386   4.516   0.671  12.966  0.3856  0.6091 -0.2642
 7324TIP3    H143387   4.561   0.619  13.033  0.0224  0.8323  0.1586
 7324TIP3    H243388   4.583   0.691  12.901  0.6967  0.2265 -0.0639
 7325TIP3   OH243389   0.079   3.023  14.133  0.5561  0.4903  0.9985
 7325TIP3    H143390  -0.007   3.034  14.095  0.6776 -0.9608  0.2375
 7325TIP3    H243391   0.064   2.971  14.212  0.7360  0.1086  0.7860
 7326TIP3   OH243392   2.994   1.092   0.966 -0.2286 -0.6601  0.2267
 7326TIP3    H143393   3.084   1.113   0.994  1.3220 -3.3788 -2.4289
 7326TIP3    H243394   2.962   1.031   1.032 -0.0037  0.0521  1.0008
 7327TIP3   OH243395   2.766   0.988  16.360 -0.2130 -0.9890 -0.4535
 7327TIP3    H143396   2.764   0.928  16.434  0.1825 -0.7200 -0.2251
 7327TIP3    H243397   2.679   0.981  16.320 -1.3524  0.8375  1.6158
 7328TIP3   OH243398   6.181   1.355   5.916  0.1667 -0.2354  0.4529
 7328TIP3    H143399   6.149   1.284   5.861  1.8754 -0.5285 -0.2021
 7328TIP3    H243400   6.119   1.427   5.903 -0.1895 -0.7669 -0.7879
 7329TIP3   OH243401   4.834   6.335  14.680  0.2134 -0.3086  0.0868
 7329TIP3    H143402   4.880   6.407  14.725 -0.4941 -0.9141  1.7980
 7329TIP3    H243403   4.865   6.341  14.589  3.0208 -0.1669  1.0046
 7330TIP3   OH243404   3.661   2.669   2.319 -0.6042  0.0331  0.4773
 7330TIP3    H143405   3.676   2.763   2.328 -1.5319  0.1074  1.4151
 7330TIP3    H243406   3.735   2.629   2.365  0.4366  0.2677 -0.9513
 7331TIP3   OH243407   5.535   4.169   2.454  0.3150 -0.2645  0.4049
 7331TIP3    H143408   5.491   4.173   2.369  1.0556  0.3758  0.0480
 7331TIP3    H243409   5.596   4.096   2.446  1.8168  1.0402 -0.3148
 7332TIP3   OH243410   0.456   5.967  16.986 -0.2592 -0.1278  0.2289
 7332TIP3    H143411   0.424   5.877  16.993 -0.8291  0.1409  1.1210
 7332TIP3    H243412   0.450   6.002  17.075  0.9406  0.4649  0.0927
 7333TIP3   OH243413   4.830   6.297  16.963 -0.0327 -0.1298 -0.0282
 7333TIP3    H143414   4.900   6.279  17.027 -0.4972  0.6718  0.7216
 7333TIP3    H243415   4.872   6.287  16.878  1.0588  0.5387  0.4200
 7334TIP3   OH243416   4.183   1.832   0.395  0.1682  0.3478  0.8536
 7334TIP3    H143417   4.260   1.833   0.338 -0.1177  1.1758  0.4786
 7334TIP3    H243418   4.218   1.855   0.482  0.3170  0.9046  0.6471
 7335TIP3   OH243419   0.371   3.860   0.846  0.4735  0.0455 -0.3194
 7335TIP3    H143420   0.399   3.855   0.938 -1.4145 -1.2319  0.2102
 7335TIP3    H243421   0.315   3.938   0.842 -1.2614 -1.1416  0.1544
 7336TIP3   OH243422   2.572   0.505  14.858  0.5388  0.7842 -0.3929
 7336TIP3    H143423   2.540   0.594  14.850 -0.5957  0.2428 -2.1340
 7336TIP3    H243424   2.519   0.467  14.929 -1.8742  0.2697 -2.4241
 7337TIP3   OH243425   5.608   4.558  13.425  0.5071  0.1035 -0.6698
 7337TIP3    H143426   5.666   4.561  13.502 -0.9816 -2.4266  0.6280
 7337TIP3    H243427   5.525   4.595  13.457 -0.4821 -2.0552 -0.6796
 7338TIP3   OH243428   4.345   3.643   6.433 -0.5008 -0.3285  0.0541
 7338TIP3    H143429   4.418   3.684   6.386 -0.8413 -1.8128 -1.8314
 7338TIP3    H243430   4.356   3.549   6.418 -1.2893 -0.7605  2.0102
 7339TIP3   OH243431   4.575   4.749  12.383  0.3554 -0.2912 -0.0043
 7339TIP3    H143432   4.565   4.818  12.448  0.6362  0.9367 -1.2509
 7339TIP3    H243433   4.665   4.758  12.351 -0.0556 -0.3107 -1.2084
 7340TIP3   OH243434   2.691   5.827   0.301  0.3589  0.0150  0.5857
 7340TIP3    H143435   2.661   5.791   0.218  1.1884 -0.0274  0.2992
 7340TIP3    H243436   2.649   5.913   0.307 -0.7070 -0.4983  0.7302
 7341TIP3   OH243437   5.492   0.707   0.524 -0.2512  0.2080 -0.0459
 7341TIP3    H143438   5.567   0.661   0.486 -0.7745  1.5715 -2.8646
 7341TIP3    H243439   5.515   0.799   0.520 -1.8888  0.6163 -0.5878
 7342TIP3   OH243440   6.049   2.718   6.481  0.1418  0.5088 -1.3164
 7342TIP3    H143441   6.127   2.685   6.435 -0.0176  0.0060 -1.2207
 7342TIP3    H243442   6.032   2.803   6.440  1.7313  1.3906 -0.2245
 7343TIP3   OH243443   2.074   4.973  12.696  1.3210  0.0316 -0.1607
 7343TIP3    H143444   2.065   5.059  12.654  0.4953 -0.5833 -1.2746
 7343TIP3    H243445   2.101   4.914  12.625 -0.3004 -1.0585  0.1056
 7344TIP3   OH243446   0.072   3.749   4.503 -0.5419  0.1072 -0.3619
 7344TIP3    H143447  -0.005   3.705   4.468 -0.0216 -0.2678 -1.0383
 7344TIP3    H243448   0.109   3.797   4.429  0.3762 -0.4260 -0.2565
 7345TIP3   OH243449   2.798   5.330  15.677 -0.0364  0.3208 -0.2233
 7345TIP3    H143450   2.792   5.251  15.623  0.3926 -1.1693  1.8341
 7345TIP3    H243451   2.708   5.361  15.685 -0.1379  0.3585 -1.4979
 7346TIP3   OH243452   1.139   1.521  11.022  0.1403 -0.2403 -0.2882
 7346TIP3    H143453   1.114   1.463  10.950  2.6431 -0.2672 -1.2062
 7346TIP3    H243454   1.129   1.468  11.101  0.9281 -1.4444 -0.9799
 7347TIP3   OH243455   6.459   5.960  11.697 -0.1423 -0.1132  0.4597
 7347TIP3    H143456   6.491   6.048  11.681 -0.7657  0.1761  0.7758
 7347TIP3    H243457   6.453   5.920  11.611 -0.9444  0.5408  0.2017
 7348TIP3   OH243458   5.027   6.175   6.646 -0.2334  0.0492  0.2033
 7348TIP3    H143459   4.939   6.159   6.610 -0.2673  1.7927 -0.5833
 7348TIP3    H243460   5.029   6.126   6.728 -1.6873 -0.6102 -0.1341
 7349TIP3   OH243461   4.850   0.122   4.978  0.0525 -0.6796 -0.3355
 7349TIP3    H143462   4.880   0.049   4.923 -2.5862 -0.8025 -1.6811
 7349TIP3    H243463   4.818   0.188   4.917 -0.4046  0.3342  0.9644
 7350TIP3   OH243464   2.345   5.437   4.590  0.7936  0.2879 -0.4872
 7350TIP3    H143465   2.422   5.492   4.573  0.4329  1.4606  1.4489
 7350TIP3    H243466   2.275   5.476   4.538  1.3075 -0.2666 -1.5927
 7351TIP3   OH243467   3.175   4.583   1.043  0.1755 -0.3170  0.3494
 7351TIP3    H143468   3.175   4.657   1.104  1.0597  1.1772 -1.4399
 7351TIP3    H243469   3.085   4.577   1.013  0.0746 -0.0515  0.5925
 7352TIP3   OH243470   0.162   3.876  11.566  0.0777 -0.1381  0.3889
 7352TIP3    H143471   0.079   3.850  11.605 -0.1552  1.9639  1.3512
 7352TIP3    H243472   0.178   3.964  11.600  1.9178  0.1041 -1.0388
 7353TIP3   OH243473   3.040   4.403   2.803  0.4581  0.2176 -1.1486
 7353TIP3    H143474   3.116   4.448   2.840  1.0182  1.0417 -3.2174
 7353TIP3    H243475   2.971   4.413   2.869  1.9680 -0.0041  0.4727
 7354TIP3   OH243476   4.175   0.593   1.699  0.6073  0.6658  0.1252
 7354TIP3    H143477   4.237   0.528   1.731 -0.0794 -0.9882 -1.7900
 7354TIP3    H243478   4.089   0.555   1.716  0.2120 -0.4038 -3.7812
 7355TIP3   OH243479   1.322   1.433  12.728  0.1501 -0.2046  0.1503
 7355TIP3    H143480   1.384   1.401  12.793 -0.7830 -2.2549  0.0906
 7355TIP3    H243481   1.338   1.379  12.651 -0.5039  0.4374 -0.4460
 7356TIP3   OH243482   2.402   2.846  13.351  0.3890 -0.3954 -0.4733
 7356TIP3    H143483   2.481   2.898  13.365  0.9247 -1.2121 -0.4220
 7356TIP3    H243484   2.434   2.759  13.328 -0.4730 -1.1309  0.9923
 7357TIP3   OH243485   4.274   5.162   3.863  0.3742 -0.4067  0.1997
 7357TIP3    H143486   4.205   5.199   3.919  0.8441 -0.4044  0.7738
 7357TIP3    H243487   4.342   5.133   3.923  0.5690 -1.0652 -0.3243
 7358TIP3   OH243488   0.996   1.656  13.691 -0.3071  0.0569 -0.4824
 7358TIP3    H143489   0.920   1.597  13.686 -0.8829  0.6355  1.0018
 7358TIP3    H243490   0.963   1.740  13.660 -0.2958  0.3197  0.2055
 7359TIP3   OH243491   0.914   3.786   3.798  0.1188  0.0187  0.5983
 7359TIP3    H143492   0.944   3.698   3.774 -1.6540 -0.4606  0.0561
 7359TIP3    H243493   0.841   3.803   3.738 -0.9585  0.9650  2.1589
 7360TIP3   OH243494   5.365   3.116  12.530 -0.2776  0.0559 -0.7534
 7360TIP3    H143495   5.366   3.211  12.519  0.4193  0.0483 -0.8075
 7360TIP3    H243496   5.415   3.083  12.455 -1.5198 -0.4230 -1.3767
 7361TIP3   OH243497   0.569   6.162   1.373 -0.2212  0.1908  0.1262
 7361TIP3    H143498   0.513   6.199   1.441 -0.4521 -1.3909  0.8081
 7361TIP3    H243499   0.509   6.140   1.301  0.0796  2.2779 -0.8027
 7362TIP3   OH243500   2.081   5.922  13.421  0.2409 -0.4049 -0.0320
 7362TIP3    H143501   2.124   5.948  13.339 -0.8130  1.9404  0.1255
 7362TIP3    H243502   2.151   5.883  13.473  0.9960 -1.6351 -1.9132
 7363TIP3   OH243503   4.187   5.750  16.226 -0.2412  0.8828 -0.1313
 7363TIP3    H143504   4.140   5.812  16.282  0.4923  1.7321 -0.4558
 7363TIP3    H243505   4.251   5.803  16.179  0.2754 -0.0932 -0.5442
 7364TIP3   OH243506   6.622   1.965  14.624  0.1659  0.0440 -0.1185
 7364TIP3    H143507   6.691   2.018  14.585 -0.3549  2.4086  2.0118
 7364TIP3    H243508   6.569   2.027  14.674 -1.5625 -2.2137  0.9834
 7365TIP3   OH243509   2.714   4.957   1.356  0.0394 -0.5953 -0.9100
 7365TIP3    H143510   2.669   4.875   1.337  0.6894 -1.2380  0.2939
 7365TIP3    H243511   2.649   5.010   1.403  0.2126 -1.1481 -0.0312
 7366TIP3   OH243512   1.796   3.749   5.673  0.5122  0.6838 -0.1608
 7366TIP3    H143513   1.867   3.742   5.737  1.9926 -0.2275 -1.8741
 7366TIP3    H243514   1.775   3.658   5.651  0.6341  0.9952 -1.6211
 7367TIP3   OH243515   6.069   5.361   6.194  0.4148  0.0867  0.0303
 7367TIP3    H143516   6.092   5.312   6.273 -0.1865 -2.2723 -1.2278
 7367TIP3    H243517   6.079   5.299   6.122 -0.7445  1.6891 -1.5798
 7368TIP3   OH243518   3.334   3.915  15.766 -0.0103  0.3402  0.3327
 7368TIP3    H143519   3.272   3.906  15.694  2.0282 -0.1115 -1.4245
 7368TIP3    H243520   3.319   4.004  15.800 -2.0419 -0.0100  0.3907
 7369TIP3   OH243521   2.145   3.688   6.113 -0.0392 -0.3642  0.7582
 7369TIP3    H143522   2.093   3.650   6.183 -0.1447 -1.0131  0.3245
 7369TIP3    H243523   2.113   3.778   6.106 -1.2375 -0.8291  0.3409
 7370TIP3   OH243524   5.648   2.393   0.113  0.4651 -0.5105 -0.0589
 7370TIP3    H143525   5.601   2.313   0.092  1.2491 -0.1066 -3.7720
 7370TIP3    H243526   5.587   2.464   0.090  1.1528 -0.0375 -0.4685
 7371TIP3   OH243527   5.866   6.480  14.600 -0.5835  0.6660  0.0155
 7371TIP3    H143528   5.881   6.463  14.692 -1.4207  0.6808  0.1628
 7371TIP3    H243529   5.941   6.532  14.572 -0.5415  1.0328  0.7938
 7372TIP3   OH243530   0.946   4.652   0.031 -0.1898  0.0764  0.5747
 7372TIP3    H143531   0.980   4.564   0.046 -0.1069  0.2422  1.3689
 7372TIP3    H243532   0.851   4.641   0.033 -0.1796  0.0136  0.7592
 7373TIP3   OH243533   1.032   3.693  13.229  0.2022 -0.1404 -0.8101
 7373TIP3    H143534   0.968   3.638  13.182 -2.1822 -0.3134  2.4507
 7373TIP3    H243535   0.995   3.782  13.223  0.1652 -0.0814  0.2100
 7374TIP3   OH243536   3.073   2.812   2.883  0.3167  0.5277 -0.6022
 7374TIP3    H143537   3.033   2.855   2.807 -0.6443  2.0479  0.7506
 7374TIP3    H243538   3.093   2.883   2.944  3.0898 -0.4524 -0.3154
 7375TIP3   OH243539   4.982   5.612   2.947 -0.6753  0.1860 -0.3351
 7375TIP3    H143540   5.066   5.642   2.913 -1.4314  1.9609 -0.6744
 7375TIP3    H243541   5.005   5.539   3.006  1.4242  2.7190  2.1335
 7376TIP3   OH243542   0.981   6.715  12.244 -0.1499  0.0497  0.4942
 7376TIP3    H143543   0.989   6.755  12.330 -0.1056 -0.2220  0.6186
 7376TIP3    H243544   1.007   6.783  12.182  0.3189  0.0822  0.7265
 7377TIP3   OH243545   3.063   1.480   3.760 -0.1491  0.2331 -0.2855
 7377TIP3    H143546   3.139   1.522   3.719  1.1208  0.9322  2.6312
 7377TIP3    H243547   2.992   1.544   3.749  0.6659  1.2660  0.3223
 7378TIP3   OH243548   0.741   0.116  14.495  0.0911 -0.2843 -0.1914
 7378TIP3    H143549   0.792   0.172  14.553 -1.7890 -0.2977  1.5224
 7378TIP3    H243550   0.692   0.177  14.440 -0.4538 -0.2551  0.3259
 7379TIP3   OH243551   6.432   0.747   2.252  0.1653  0.2529 -0.1145
 7379TIP3    H143552   6.370   0.815   2.227  1.6532  0.3514 -3.8751
 7379TIP3    H243553   6.514   0.793   2.268  0.1607 -0.2471  1.4670
 7380TIP3   OH243554   4.785   2.373   4.844  0.0543 -0.4170 -0.0100
 7380TIP3    H143555   4.745   2.294   4.879 -2.1332  1.4964  1.9676
 7380TIP3    H243556   4.783   2.362   4.749 -2.3533 -1.7089  0.1787
 7381TIP3   OH243557   5.565   4.574  16.880 -0.5637  0.0292  0.5752
 7381TIP3    H143558   5.569   4.500  16.820  0.0398 -0.1570  0.8388
 7381TIP3    H243559   5.637   4.559  16.942 -0.9643  0.3890  1.1438
 7382TIP3   OH243560   6.053   1.284   3.520  0.3372 -0.0734 -0.2789
 7382TIP3    H143561   6.141   1.282   3.558 -0.7292 -0.5612  2.2749
 7382TIP3    H243562   6.052   1.365   3.468  1.7251  0.8709  1.1013
 7383TIP3   OH243563   1.936   3.613   3.798 -0.3175  0.5840 -0.5553
 7383TIP3    H143564   2.005   3.604   3.733 -0.5771 -1.1031 -0.6218
 7383TIP3    H243565   1.875   3.541   3.779 -0.7481  0.4789  1.1206
 7384TIP3   OH243566   0.741   2.423  15.431  0.2004  0.0086 -0.8278
 7384TIP3    H143567   0.684   2.416  15.354  0.0186 -1.0583 -0.6028
 7384TIP3    H243568   0.694   2.377  15.500  1.4456 -1.0889 -0.7009
 7385TIP3   OH243569   4.400   4.721  15.413 -0.0325 -0.5801 -0.1054
 7385TIP3    H143570   4.474   4.762  15.369 -0.9510  1.4425  0.1745
 7385TIP3    H243571   4.427   4.712  15.504 -0.1245  0.1254 -0.0110
 7386TIP3   OH243572   2.401   6.030   2.355 -0.6718  0.3574  0.5179
 7386TIP3    H143573   2.431   6.094   2.291 -0.9199  1.6415  1.6694
 7386TIP3    H243574   2.480   5.982   2.381 -0.4070  0.5356  0.0302
 7387TIP3   OH243575   6.100   1.207  11.176  0.3576  0.2216  0.1793
 7387TIP3    H143576   6.068   1.278  11.232 -2.4661  0.1028 -1.2198
 7387TIP3    H243577   6.132   1.251  11.098 -1.0895  0.0156 -0.5500
 7388TIP3   OH243578   3.422   5.206   0.255  0.2372 -0.1859  0.0677
 7388TIP3    H143579   3.475   5.286   0.248  0.9052 -0.4275  2.2225
 7388TIP3    H243580   3.334   5.238   0.277  0.2822 -0.0109  0.0026
 7389TIP3   OH243581   5.580   0.844  11.722  0.1428  0.0411 -0.1501
 7389TIP3    H143582   5.553   0.752  11.723 -0.8362  0.3287  0.7889
 7389TIP3    H243583   5.607   0.859  11.632 -0.1207 -1.0512 -0.4251
 7390TIP3   OH243584   3.638   0.985  15.634 -0.3000  0.5684 -0.3302
 7390TIP3    H143585   3.574   0.935  15.583 -1.1087  1.9268 -0.6687
 7390TIP3    H243586   3.704   1.012  15.570  0.2188 -0.1754 -0.1196
 7391TIP3   OH243587   2.003   4.260   2.400  0.1203 -0.2868  0.3662
 7391TIP3    H143588   1.918   4.300   2.385 -0.3436 -1.1825  0.5472
 7391TIP3    H243589   1.987   4.192   2.466  1.1314  0.0970  1.0265
 7392TIP3   OH243590   3.772   3.359  14.852 -0.4028 -0.2527 -0.0939
 7392TIP3    H143591   3.785   3.434  14.910  0.4240 -0.5516  0.1116
 7392TIP3    H243592   3.678   3.340  14.858 -0.6296  0.8062 -0.2054
 7393TIP3   OH243593   4.590   1.181  16.392 -0.6481  0.8082  0.0246
 7393TIP3    H143594   4.495   1.193  16.392 -0.6531  0.8390  0.8647
 7393TIP3    H243595   4.603   1.094  16.429 -0.3737  0.5453 -0.6891
 7394TIP3   OH243596   6.207   1.879  16.531  0.1135  0.1591  0.0820
 7394TIP3    H143597   6.140   1.911  16.592  0.2735 -2.6709  1.8169
 7394TIP3    H243598   6.158   1.838  16.461 -0.0267 -1.4213  1.0760
 7395TIP3   OH243599   0.506   0.940  15.438  0.3758  0.3495  0.2854
 7395TIP3    H143600   0.463   0.855  15.430 -0.4255  0.7011  0.7775
 7395TIP3    H243601   0.557   0.949  15.358  0.4737 -0.6030  0.2342
 7396TIP3   OH243602   2.220   0.909  13.534  0.2761  0.4119 -0.2994
 7396TIP3    H143603   2.181   0.947  13.455  1.1730  1.8612 -0.0766
 7396TIP3    H243604   2.194   0.969  13.605 -0.0801 -0.5882  0.4262
 7397TIP3   OH243605   2.283   1.429   3.818 -0.1509 -0.0765 -0.2347
 7397TIP3    H143606   2.250   1.412   3.906  1.1784 -3.5388 -0.3341
 7397TIP3    H243607   2.378   1.422   3.826  0.0125  0.2028 -1.7924
 7398TIP3   OH243608   0.745   5.021   1.307  0.0739  0.1280  0.0820
 7398TIP3    H143609   0.822   5.031   1.362 -0.6127  0.4995  0.9897
 7398TIP3    H243610   0.711   5.110   1.297 -0.5679 -0.1010  0.1826
 7399TIP3   OH243611   4.932   3.977   6.264 -0.6014  0.2639  0.0688
 7399TIP3    H143612   4.881   3.899   6.243 -0.6677 -0.2275  1.9953
 7399TIP3    H243613   5.022   3.945   6.274 -0.4820  0.5737 -0.0172
 7400TIP3   OH243614   3.182   6.099   1.628  0.1852  0.1210  0.6067
 7400TIP3    H143615   3.227   6.179   1.656  1.3648 -0.9905  1.9559
 7400TIP3    H243616   3.245   6.029   1.644 -0.3371 -0.9604 -1.7903
 7401TIP3   OH243617   6.551   5.481   3.425 -0.1501  0.2679 -0.1766
 7401TIP3    H143618   6.496   5.507   3.499 -1.6267 -0.3453 -1.0358
 7401TIP3    H243619   6.640   5.496   3.455 -0.7851  1.4063  1.2075
 7402TIP3   OH243620   6.724   6.182  10.520  0.1448  0.0243  0.2246
 7402TIP3    H143621   6.643   6.142  10.488  0.6882 -0.1671 -0.9623
 7402TIP3    H243622   6.695   6.258  10.571 -0.7517  0.7607 -1.3384
 7403TIP3   OH243623   2.369   0.480   1.881  0.7873 -0.2953  0.2353
 7403TIP3    H143624   2.379   0.488   1.787 -0.1412 -1.2830  0.0414
 7403TIP3    H243625   2.281   0.444   1.893  1.4270 -1.5288  1.4168
 7404TIP3   OH243626   6.097   0.047   4.915  0.0425  0.1649  0.1185
 7404TIP3    H143627   6.073   0.109   4.984 -0.1999 -0.9255  1.0365
 7404TIP3    H243628   6.185   0.075   4.888  0.7471 -0.2325  1.8775
 7405TIP3   OH243629   1.412   5.550  12.317  0.2639 -0.1178  0.4928
 7405TIP3    H143630   1.362   5.471  12.295  2.9672 -1.5286 -0.7919
 7405TIP3    H243631   1.358   5.622  12.285 -0.2890 -1.6598 -2.1566
 7406TIP3   OH243632   1.617   6.717   4.658  0.5602 -0.4600 -0.0068
 7406TIP3    H143633   1.537   6.760   4.688  0.0574 -1.0522 -0.5031
 7406TIP3    H243634   1.594   6.625   4.652  0.8023 -0.4239 -1.7243
 7407TIP3   OH243635   4.068   5.458  14.947 -0.3968 -0.2762  0.2401
 7407TIP3    H143636   3.975   5.444  14.966 -1.2475 -0.4848 -3.7743
 7407TIP3    H243637   4.074   5.550  14.922  0.5529 -0.1664  0.8432
 7408TIP3   OH243638   1.556   5.563   4.291 -0.0608  0.1182  0.0366
 7408TIP3    H143639   1.500   5.598   4.221 -1.4687  0.2972  1.2137
 7408TIP3    H243640   1.521   5.476   4.308  1.5140 -0.6903 -0.7935
 7409TIP3   OH243641   2.625   3.342  15.698 -0.2116  0.1945 -0.8904
 7409TIP3    H143642   2.697   3.398  15.728 -0.4926  0.7975 -1.3435
 7409TIP3    H243643   2.546   3.386  15.727 -0.4107 -0.4010 -0.5154
 7410TIP3   OH243644   2.102   0.306  16.911 -0.0484  0.0851 -0.3615
 7410TIP3    H143645   2.026   0.249  16.915  0.1273 -0.0541  1.7297
 7410TIP3    H243646   2.144   0.285  16.828 -1.0621 -1.4226 -0.5091
 7411TIP3   OH243647   3.642   4.832   0.445  0.4346  0.1831 -0.4186
 7411TIP3    H143648   3.628   4.859   0.536 -0.2644  1.5891 -0.9298
 7411TIP3    H243649   3.582   4.759   0.432 -0.0576  0.5132  0.0033
 7412TIP3   OH243650   0.678   0.560  13.401  0.0606 -0.2205 -0.7979
 7412TIP3    H143651   0.643   0.627  13.343 -1.0004 -0.3118 -0.2713
 7412TIP3    H243652   0.693   0.606  13.484  0.9403 -0.2433 -0.9419
 7413TIP3   OH243653   1.643   1.282  14.997 -0.4690  0.1313 -0.0243
 7413TIP3    H143654   1.610   1.232  14.922 -0.8046 -1.0181  0.8774
 7413TIP3    H243655   1.637   1.373  14.969  2.2365 -0.3921 -2.5223
 7414TIP3   OH243656   0.097   1.950  11.827  0.3894  0.3837  1.0694
 7414TIP3    H143657   0.051   2.013  11.883  1.0961  1.2283  0.7087
 7414TIP3    H243658   0.106   1.994  11.743  1.0640 -0.1217  0.8680
 7415TIP3   OH243659   3.544   4.502   2.792 -0.0130 -0.2933 -0.1162
 7415TIP3    H143660   3.607   4.527   2.860 -1.7411  0.2920  1.3378
 7415TIP3    H243661   3.559   4.564   2.721  0.7124  0.1479  0.4101
 7416TIP3   OH243662   4.939   5.867  14.311 -0.7634 -0.1878  0.3243
 7416TIP3    H143663   4.949   5.948  14.262 -2.6246  0.3025  0.7221
 7416TIP3    H243664   4.909   5.894  14.398 -0.5364 -1.2550  0.7511
 7417TIP3   OH243665   6.355   6.202  12.947 -0.1548  0.0432 -0.5300
 7417TIP3    H143666   6.388   6.115  12.969  1.2885  0.4829 -0.8922
 7417TIP3    H243667   6.269   6.207  12.989  1.0321 -0.4310  2.0177
 7418TIP3   OH243668   2.008   5.539   2.574 -0.5297 -0.2090  0.1234
 7418TIP3    H143669   1.986   5.623   2.614  1.5632  0.5519 -0.2547
 7418TIP3    H243670   1.925   5.506   2.540 -1.5824  1.1124  1.3723
 7419TIP3   OH243671   1.328   0.207  12.731 -0.3801  0.2201 -0.0742
 7419TIP3    H143672   1.381   0.135  12.764 -0.7020 -0.1482 -0.3578
 7419TIP3    H243673   1.307   0.259  12.809 -2.4568 -1.5076  0.5634
 7420TIP3   OH243674   3.517   0.380  12.687  0.4314  0.3763  0.0455
 7420TIP3    H143675   3.526   0.321  12.612 -0.8295 -0.3921  0.4824
 7420TIP3    H243676   3.518   0.468  12.648  0.1956  0.0013 -0.8286
 7421TIP3   OH243677   0.203   3.360   3.132 -0.4102 -0.2712  0.2704
 7421TIP3    H143678   0.215   3.325   3.220 -0.9833 -1.7868 -0.2264
 7421TIP3    H243679   0.180   3.452   3.145  3.4970  0.6081  1.5203
 7422TIP3   OH243680   4.423   5.918  16.365 -0.0506 -0.2467  0.4310
 7422TIP3    H143681   4.352   5.944  16.307  0.0942  1.5144  1.0213
 7422TIP3    H243682   4.382   5.909  16.451  0.2288 -0.3576  0.5533
 7423TIP3   OH243683   2.142   2.981   5.725 -0.8146  0.3026  0.4032
 7423TIP3    H143684   2.164   3.068   5.759 -1.3166  0.9545 -0.8764
 7423TIP3    H243685   2.226   2.942   5.702 -0.4881 -0.0761  2.1858
 7424TIP3   OH243686   3.235   0.392   2.744 -0.1724 -0.0162 -0.2930
 7424TIP3    H143687   3.231   0.380   2.649  0.5791 -0.8625 -0.2151
 7424TIP3    H243688   3.213   0.307   2.781  0.5252  0.0477  0.2861
 7425TIP3   OH243689   6.673   0.840   0.812  0.1181  0.9036  0.2529
 7425TIP3    H143690   6.656   0.866   0.903 -0.1523  0.1605  0.4214
 7425TIP3    H243691   6.701   0.921   0.769  0.8284  1.1455  1.1375
 7426TIP3   OH243692   5.419   4.915  14.754  0.4396  0.4705 -0.4045
 7426TIP3    H143693   5.459   4.981  14.812  1.1400 -1.7882  1.7434
 7426TIP3    H243694   5.330   4.906  14.786  0.2770  0.5213 -0.8431
 7427TIP3   OH243695   3.445   0.965   3.171 -0.0461  0.0120  0.1581
 7427TIP3    H143696   3.477   0.901   3.108  0.8477  1.0534 -0.4627
 7427TIP3    H243697   3.522   0.987   3.224 -0.3888  0.4350  0.4883
 7428TIP3   OH243698   5.768   1.321  14.975  0.4090 -0.0066  0.0722
 7428TIP3    H143699   5.784   1.334  15.068  1.1697  2.4344 -0.3629
 7428TIP3    H243700   5.682   1.361  14.960  0.5980  0.2327 -0.3845
 7429TIP3   OH243701   2.106   5.076   1.907 -0.1225  0.0771 -0.6139
 7429TIP3    H143702   2.192   5.040   1.928 -0.1889 -0.0747 -0.6029
 7429TIP3    H243703   2.051   4.999   1.890  0.2466  0.2331 -2.5735
 7430TIP3   OH243704   0.043   3.828   6.030  0.4579 -0.8221 -0.1214
 7430TIP3    H143705  -0.003   3.767   6.088  1.2658 -1.1875  0.1355
 7430TIP3    H243706   0.057   3.779   5.949  1.4820 -1.1189  0.2358
 7431TIP3   OH243707   4.558   4.703   3.675 -0.4207  0.2776  0.7444
 7431TIP3    H143708   4.525   4.790   3.698  2.2695  0.9192  2.4053
 7431TIP3    H243709   4.560   4.656   3.758  3.3615  0.4906  0.8384
 7432TIP3   OH243710   1.858   2.065   3.474 -0.0442 -0.3751  0.1367
 7432TIP3    H143711   1.913   2.076   3.552  0.7876  0.8762 -0.5984
 7432TIP3    H243712   1.823   1.976   3.482  1.7138 -1.0329  0.8665
 7433TIP3   OH243713   1.377   1.430   4.705 -0.0676 -0.4399 -0.4685
 7433TIP3    H143714   1.425   1.493   4.650  1.6036 -1.4125 -0.1372
 7433TIP3    H243715   1.314   1.484   4.753  3.6997  1.5489  2.4459
 7434TIP3   OH243716   4.688   2.599   0.174 -0.2476 -0.3104  0.1414
 7434TIP3    H143717   4.769   2.608   0.123 -1.0807  0.2392 -1.1141
 7434TIP3    H243718   4.646   2.685   0.168 -0.4414 -0.2865  1.6421
 7435TIP3   OH243719   4.190   6.157   3.850  0.8397 -0.3837  1.1075
 7435TIP3    H143720   4.105   6.157   3.895  1.1679 -3.2653  1.8070
 7435TIP3    H243721   4.252   6.189   3.916  0.2394  2.5748  0.3291
 7436TIP3   OH243722   2.390   6.650  12.153 -0.2974 -0.1046 -0.0575
 7436TIP3    H143723   2.453   6.631  12.084  0.3040  0.8150  0.2396
 7436TIP3    H243724   2.328   6.577  12.149  0.6975 -0.9398 -0.4417
 7437TIP3   OH243725   6.726   3.957  12.957 -0.1840 -0.0372 -0.1635
 7437TIP3    H143726   6.775   3.893  13.008  1.8433  1.1104 -0.6476
 7437TIP3    H243727   6.659   3.989  13.018 -1.7477 -3.1185 -0.1367
 7438TIP3   OH243728   2.889   6.095  11.203 -0.3831  0.4465 -0.8473
 7438TIP3    H143729   2.979   6.064  11.197 -0.4700 -0.1527  0.5816
 7438TIP3    H243730   2.894   6.190  11.194  0.5339  0.5246  0.3318
 7439TIP3   OH243731   0.959   0.705   4.693  0.0237  0.0139  0.6734
 7439TIP3    H143732   0.864   0.716   4.690  0.1004  0.4055 -0.5330
 7439TIP3    H243733   0.993   0.791   4.717  0.2236  0.6595 -1.7937
 7440TIP3   OH243734   5.720   3.452  11.681  0.1094  0.4594 -0.4194
 7440TIP3    H143735   5.746   3.509  11.608  2.1528 -0.4039 -0.3980
 7440TIP3    H243736   5.743   3.502  11.760  3.5284 -1.0213 -0.3915
 7441TIP3   OH243737   5.865   3.882  14.101  0.1659 -0.5743  0.8338
 7441TIP3    H143738   5.831   3.862  14.188 -1.7634 -1.4165 -0.0761
 7441TIP3    H243739   5.814   3.958  14.072 -1.3353 -2.1517 -0.7524
 7442TIP3   OH243740   3.166   5.593   3.842  0.1325 -0.3977  0.4547
 7442TIP3    H143741   3.208   5.507   3.842 -0.5848 -0.7558 -0.3445
 7442TIP3    H243742   3.167   5.621   3.934  0.6614 -1.1081  0.6651
 7443TIP3   OH243743   5.855   0.182   0.276  0.5426 -0.6950 -0.3403
 7443TIP3    H143744   5.937   0.230   0.291  0.5926 -0.5695 -0.9881
 7443TIP3    H243745   5.847   0.125   0.352 -1.1258  2.5685  2.0609
 7444TIP3   OH243746   2.594   3.930   4.199  0.9198 -0.1608 -0.0460
 7444TIP3    H143747   2.638   3.940   4.115  1.0979 -1.7073 -0.1588
 7444TIP3    H243748   2.638   3.855   4.240  1.1400  0.8330  1.6171
 7445TIP3   OH243749   4.768   6.755  15.522 -0.0708 -0.7481 -0.0695
 7445TIP3    H143750   4.856   6.719  15.506  1.2028  2.1905  0.0623
 7445TIP3    H243751   4.767   6.772  15.616 -0.9636 -1.1731 -0.0026
 7446TIP3   OH243752   5.775   5.781   2.947 -0.4087  0.8614 -0.4168
 7446TIP3    H143753   5.758   5.704   2.893 -0.6619  0.7396 -0.1646
 7446TIP3    H243754   5.863   5.809   2.922 -0.0805  0.1338 -0.0897
 7447TIP3   OH243755   2.305   5.296   0.854  0.2965 -0.7446  0.2890
 7447TIP3    H143756   2.283   5.316   0.946 -0.5795  0.9125 -0.2543
 7447TIP3    H243757   2.310   5.382   0.812  1.4475 -1.4664 -1.0543
 7448TIP3   OH243758   0.118   2.109   0.823 -0.3323  0.2464 -0.4449
 7448TIP3    H143759   0.179   2.117   0.750 -0.7968 -2.1487 -1.1568
 7448TIP3    H243760   0.039   2.155   0.794 -0.6656 -1.0447 -1.6702
 7449TIP3   OH243761   3.623   4.396   6.036 -0.1910  0.1037 -0.1010
 7449TIP3    H143762   3.635   4.359   5.948 -2.1708 -1.6408  0.3267
 7449TIP3    H243763   3.528   4.390   6.052 -0.1208  2.2398  1.3746
 7450TIP3   OH243764   2.670   3.814   2.596 -0.0718  0.2724 -0.1003
 7450TIP3    H143765   2.612   3.868   2.649  0.8766  1.7346 -0.5073
 7450TIP3    H243766   2.754   3.860   2.598  1.0909 -1.7612  0.4496
 7451TIP3   OH243767   5.002   0.685   4.029 -0.8406  0.2354 -0.0674
 7451TIP3    H143768   4.918   0.640   4.029 -0.1524 -1.0945  0.1570
 7451TIP3    H243769   5.009   0.723   4.117 -0.8522 -0.3413  0.1845
 7452TIP3   OH243770   1.790   6.439  16.809  0.1932 -0.5692  0.0111
 7452TIP3    H143771   1.815   6.444  16.901 -1.1080  0.4596  0.3235
 7452TIP3    H243772   1.715   6.498  16.801  0.0412 -0.9543 -1.6224
 7453TIP3   OH243773   6.014   0.615   4.713  0.1577  0.1255 -0.1575
 7453TIP3    H143774   5.931   0.580   4.746 -0.5351  1.5645 -0.3332
 7453TIP3    H243775   6.040   0.680   4.778  0.9441 -0.0150 -0.3246
 7454TIP3   OH243776   1.826   1.605   5.767 -0.1964  0.4522  0.4760
 7454TIP3    H143777   1.844   1.647   5.684 -0.6995  0.7690  0.5238
 7454TIP3    H243778   1.770   1.531   5.745 -0.6931  0.7953  0.5824
 7455TIP3   OH243779   5.911   6.070  12.317  0.1531 -0.4247  0.1347
 7455TIP3    H143780   5.881   6.160  12.303  2.4317  0.3140 -0.1699
 7455TIP3    H243781   5.914   6.031  12.230  0.1867 -0.4592  0.1507
 7456TIP3   OH243782   4.994   3.003  11.564 -0.4638  0.0710  0.0113
 7456TIP3    H143783   4.944   3.058  11.503 -0.4176 -1.0628 -1.0793
 7456TIP3    H243784   5.072   2.978  11.514 -0.7254 -1.3807  0.3225
 7457TIP3   OH243785   1.714   5.934   4.542 -0.2718 -0.2878  0.1886
 7457TIP3    H143786   1.729   5.937   4.448 -2.6244  0.4519 -0.1890
 7457TIP3    H243787   1.797   5.903   4.579  0.9087  0.1661 -2.0445
 7458TIP3   OH243788   3.571   5.590  14.302 -0.1080 -0.2211 -0.5126
 7458TIP3    H143789   3.530   5.504  14.314  1.9034 -1.1718 -0.2887
 7458TIP3    H243790   3.549   5.638  14.382  2.0417 -1.9199  1.1742
 7459TIP3   OH243791   3.485   3.401  13.724 -1.1461 -0.0526  0.5603
 7459TIP3    H143792   3.576   3.425  13.738 -1.2028 -0.0321  0.9212
 7459TIP3    H243793   3.469   3.414  13.631 -1.4837  2.4102  0.9409
 7460TIP3   OH243794   4.384   6.111   2.872  0.4274 -0.0674 -0.3079
 7460TIP3    H143795   4.440   6.073   2.804  1.1918 -0.8901  0.7699
 7460TIP3    H243796   4.332   6.038   2.905  0.1528  0.3012  0.0843
 7461TIP3   OH243797   3.822   1.409  12.090  0.0518  0.1446  0.1473
 7461TIP3    H143798   3.888   1.443  12.029  0.0585  2.0353  1.1837
 7461TIP3    H243799   3.817   1.315  12.069  2.0845  0.2242 -0.8519
 7462TIP3   OH243800   4.197   2.247   1.796 -0.3902 -0.5880  0.1000
 7462TIP3    H143801   4.189   2.282   1.707 -0.0285  0.5494  0.5119
 7462TIP3    H243802   4.236   2.318   1.847  0.7622 -1.7380  0.8608
 7463TIP3   OH243803   0.309   0.237  13.186 -0.7907  0.2200  0.4605
 7463TIP3    H143804   0.372   0.255  13.256  0.0813 -1.3020  0.0839
 7463TIP3    H243805   0.358   0.249  13.105 -1.9383  2.5059  0.0482
 7464TIP3   OH243806   3.832   4.055   5.284 -0.3019 -0.1791 -0.0728
 7464TIP3    H143807   3.752   4.064   5.233 -0.7214  0.5810  0.7182
 7464TIP3    H243808   3.834   3.962   5.309  0.0196 -0.6154 -1.6271
 7465TIP3   OH243809   3.484   6.339  14.464  0.0064 -0.5136 -0.1168
 7465TIP3    H143810   3.503   6.265  14.521  1.3247  0.3446  0.5933
 7465TIP3    H243811   3.395   6.365  14.487  1.0985  0.8959  2.8562
 7466TIP3   OH243812   1.116   2.995   6.642 -0.5601  0.2341 -0.1444
 7466TIP3    H143813   1.076   3.080   6.623  0.0854  0.4065 -0.7664
 7466TIP3    H243814   1.193   3.016   6.696  0.0736  0.1305 -0.9896
 7467TIP3   OH243815   2.941   0.659   3.018  0.0666 -0.0172  0.4557
 7467TIP3    H143816   2.982   0.702   2.943  1.0465 -0.0385  0.9714
 7467TIP3    H243817   2.941   0.726   3.087  0.5364 -0.4653  0.8990
 7468TIP3   OH243818   5.918   2.406  16.861 -0.2706 -0.1461 -0.3809
 7468TIP3    H143819   5.972   2.466  16.810  0.4629 -1.4807 -1.2206
 7468TIP3    H243820   5.828   2.436  16.846 -0.0854 -0.5767 -2.6065
 7469TIP3   OH243821   2.625   4.701   2.538  0.1005 -0.2026  0.0917
 7469TIP3    H143822   2.553   4.745   2.583  0.5305  0.0486  0.5438
 7469TIP3    H243823   2.592   4.682   2.451 -1.1768 -1.7658  0.8882
 7470TIP3   OH243824   6.433   0.822  14.734 -0.2684  0.0533  0.2283
 7470TIP3    H143825   6.392   0.794  14.816  0.3634  1.0969  0.9188
 7470TIP3    H243826   6.464   0.911  14.752  2.7100 -0.8554 -0.0864
 7471TIP3   OH243827   1.017   4.948  14.808  0.1669 -0.3199 -0.1555
 7471TIP3    H143828   0.932   4.935  14.767 -0.7746 -0.3960  1.7780
 7471TIP3    H243829   1.080   4.941  14.736 -1.3802 -1.1997 -1.4410
 7472TIP3   OH243830   2.001   0.125   0.473 -0.2107 -0.2432  0.0152
 7472TIP3    H143831   1.990   0.199   0.532 -1.5038  0.7112 -1.3681
 7472TIP3    H243832   1.965   0.050   0.521  0.2468  0.1953  1.0567
 7473TIP3   OH243833   6.677   4.451  11.223 -0.1007  0.1616  0.1907
 7473TIP3    H143834   6.605   4.426  11.282 -0.3464 -0.4441 -0.3689
 7473TIP3    H243835   6.750   4.471  11.282 -0.2828 -0.6411  0.6970
 7474TIP3   OH243836   4.779   5.120   2.880 -0.1934 -0.4721  0.0651
 7474TIP3    H143837   4.793   5.186   2.947 -0.0247  1.9952 -2.3226
 7474TIP3    H243838   4.838   5.048   2.903  3.3942  2.3295 -0.0547
 7475TIP3   OH243839   5.800   1.376  16.104 -0.5787  0.1313  0.2298
 7475TIP3    H143840   5.831   1.432  16.032 -0.3557  0.3479  0.4921
 7475TIP3    H243841   5.880   1.344  16.145 -0.7109  0.6449  0.8806
 7476TIP3   OH243842   4.392   3.167  15.236 -0.3745  0.0898 -0.0448
 7476TIP3    H143843   4.345   3.214  15.305 -0.6603 -2.0073  1.2098
 7476TIP3    H243844   4.461   3.228  15.209 -1.5885  1.7778  0.5772
 7477TIP3   OH243845   3.020   6.112   6.146 -0.4208 -0.1204  0.2698
 7477TIP3    H143846   2.983   6.150   6.225 -1.3318  0.4192 -0.4064
 7477TIP3    H243847   3.040   6.187   6.090 -0.2688 -0.5210 -0.2225
 7478TIP3   OH243848   1.754   1.520   3.990 -0.0235  0.0212  0.5471
 7478TIP3    H143849   1.813   1.464   4.039  1.3997  0.5939 -0.4481
 7478TIP3    H243850   1.718   1.464   3.921  2.8599  0.7391 -1.6233
 7479TIP3   OH243851   5.860   1.857  16.468 -0.4394 -0.3991 -0.5424
 7479TIP3    H143852   5.911   1.786  16.428 -0.9410  0.1828 -2.2353
 7479TIP3    H243853   5.916   1.934  16.458 -1.0718 -0.0263 -1.1640
 7480TIP3   OH243854   4.966   6.177  10.932  0.5624 -0.4319 -0.0068
 7480TIP3    H143855   5.048   6.223  10.947  0.8712 -0.6429 -0.9803
 7480TIP3    H243856   4.990   6.106  10.872  0.0668 -1.7481  1.3349
 7481TIP3   OH243857   3.035   4.605   3.132  0.0984  0.0698  0.4268
 7481TIP3    H143858   3.089   4.634   3.205  0.9456 -0.1360 -0.1217
 7481TIP3    H243859   3.066   4.655   3.057  0.4670 -1.0673 -0.1782
 7482TIP3   OH243860   6.211   1.011  12.623  0.1844 -0.2130  0.5439
 7482TIP3    H143861   6.224   0.969  12.708 -2.2374 -1.4976  0.3234
 7482TIP3    H243862   6.288   1.067  12.612  1.9398 -2.2243  2.2542
 7483TIP3   OH243863   4.123   0.857   4.515 -0.1041  0.6197 -0.0751
 7483TIP3    H143864   4.083   0.773   4.493  0.2309  0.5678 -0.4932
 7483TIP3    H243865   4.218   0.840   4.511 -0.0156  1.4801 -1.9891
 7484TIP3   OH243866   5.719   5.696  17.139  0.1075 -0.1196  0.2708
 7484TIP3    H143867   5.723   5.662  17.228 -1.8841  0.5291  0.6243
 7484TIP3    H243868   5.656   5.639  17.094  0.0971  0.3862 -0.3609
 7485TIP3   OH243869   1.768   5.891   5.448 -0.3839  0.2102 -0.8919
 7485TIP3    H143870   1.814   5.966   5.487  0.9002 -0.6949 -0.6158
 7485TIP3    H243871   1.826   5.817   5.465  0.1820 -0.2519 -4.4061
 7486TIP3   OH243872   2.355   0.450  14.383  0.1272 -0.3501 -0.4677
 7486TIP3    H143873   2.351   0.354  14.380  1.5694 -0.4156 -0.6409
 7486TIP3    H243874   2.287   0.479  14.322  0.3208 -1.2766 -1.1282
 7487TIP3   OH243875   0.553   6.068  11.455 -0.3356  0.3881  0.1176
 7487TIP3    H143876   0.512   6.087  11.371  0.9367 -0.1783 -0.6586
 7487TIP3    H243877   0.506   5.992  11.488 -1.4065  1.1410  0.3245
 7488TIP3   OH243878   3.843   2.063   0.094 -0.3745 -0.4100 -0.3350
 7488TIP3    H143879   3.819   2.148   0.131  1.4294 -0.1197  0.2213
 7488TIP3    H243880   3.763   2.030   0.054 -0.9430  1.8307 -1.0865
 7489TIP3   OH243881   2.191   6.517  14.753 -0.4769 -0.0212 -0.0432
 7489TIP3    H143882   2.114   6.541  14.701  1.0726  0.0957 -2.3963
 7489TIP3    H243883   2.260   6.577  14.722  0.1609  1.0829  3.2595
 7490TIP3   OH243884   5.583   1.970  10.828  0.4283  0.1977  1.0757
 7490TIP3    H143885   5.580   2.020  10.909 -0.0185  0.4988  0.8761
 7490TIP3    H243886   5.644   2.017  10.772  0.0251  0.5087  0.8963
 7491TIP3   OH243887   5.345   0.991  11.801 -0.3360 -0.7456  0.3110
 7491TIP3    H143888   5.428   0.951  11.777 -0.0975 -0.0037 -0.0830
 7491TIP3    H243889   5.369   1.071  11.847 -0.8509  0.0988 -0.8985
 7492TIP3   OH243890   2.728   1.552   6.663 -0.6692 -0.0320 -0.0727
 7492TIP3    H143891   2.733   1.459   6.684 -0.9253 -0.1194 -0.3939
 7492TIP3    H243892   2.637   1.575   6.682 -0.4579  0.2899  0.5679
 7493TIP3   OH243893   4.014   5.925   2.062  0.5562  0.5334  0.3878
 7493TIP3    H143894   3.974   6.009   2.036  0.2871  0.5851  0.9636
 7493TIP3    H243895   3.940   5.865   2.068  0.7525  0.2520 -0.0330
 7494TIP3   OH243896   2.004   5.391   6.118  0.6706  0.4139 -0.1868
 7494TIP3    H143897   2.090   5.429   6.139  0.8468 -0.8779  1.6176
 7494TIP3    H243898   1.990   5.327   6.188 -1.5285  0.2356 -0.7818
 7495TIP3   OH243899   2.359   0.665   0.069 -0.0596 -0.2469  0.1923
 7495TIP3    H143900   2.302   0.597   0.034  0.0301  0.6764 -1.7991
 7495TIP3    H243901   2.448   0.631   0.057  0.0280  0.5937 -1.6622
 7496TIP3   OH243902   4.885   2.460   0.851 -0.0481  0.0346 -0.1138
 7496TIP3    H143903   4.938   2.538   0.865  2.1678 -1.7172  1.6710
 7496TIP3    H243904   4.799   2.493   0.826  1.3548  2.9908 -1.2270
 7497TIP3   OH243905   5.600   1.701  12.042  0.5198 -0.1303 -0.0171
 7497TIP3    H143906   5.689   1.671  12.057  0.4611  0.6521  1.9847
 7497TIP3    H243907   5.595   1.786  12.085 -1.3820 -0.4610  0.4758
 7498TIP3   OH243908   5.041   5.198   3.594  0.4034  0.0603  0.0569
 7498TIP3    H143909   5.090   5.277   3.618  0.4218 -0.0420  0.3594
 7498TIP3    H243910   4.989   5.177   3.672 -0.9140  0.7631 -0.6201
 7499TIP3   OH243911   6.171   4.006  14.709 -0.4278  0.0656  0.4994
 7499TIP3    H143912   6.105   4.012  14.779  0.5817  1.5249  1.3567
 7499TIP3    H243913   6.213   3.921  14.723 -0.3975  0.2373  1.5282
 7500TIP3   OH243914   3.044   5.200  16.806 -0.0096 -0.1340 -0.2876
 7500TIP3    H143915   3.119   5.144  16.791  0.0828 -0.7594  2.2435
 7500TIP3    H243916   3.008   5.170  16.890 -1.9336  1.4045 -0.5191
 7501TIP3   OH243917   6.001   3.765   5.358 -0.3520  0.8279  0.1547
 7501TIP3    H143918   6.006   3.835   5.423 -1.0825  1.9252 -0.9566
 7501TIP3    H243919   5.982   3.809   5.276  0.7107 -0.5366 -0.8548
 7502TIP3   OH243920   3.396   1.080  11.443 -0.2644 -0.6792  0.1241
 7502TIP3    H143921   3.411   1.149  11.508  0.2200 -1.1852  0.5581
 7502TIP3    H243922   3.414   1.122  11.359  0.1978 -0.3229  0.3966
 7503TIP3   OH243923   2.328   0.117  12.148 -0.1474  0.4178  0.3619
 7503TIP3    H143924   2.380   0.042  12.117  2.5489  2.0366  0.8052
 7503TIP3    H243925   2.240   0.082  12.158  1.1193 -2.8160  0.9299
 7504TIP3   OH243926   6.141   5.977  15.304  0.8383  0.3354  0.2738
 7504TIP3    H143927   6.114   5.935  15.222 -2.2392  0.1109  1.3500
 7504TIP3    H243928   6.212   6.035  15.279 -0.0163  0.2302 -2.5540
 7505TIP3   OH243929   5.660   2.497  12.936 -0.5781  0.4280  0.1583
 7505TIP3    H143930   5.625   2.409  12.921  0.8297  0.0915 -1.2889
 7505TIP3    H243931   5.752   2.490  12.912 -0.1908  2.0269  1.1235
 7506TIP3   OH243932   3.450   2.662   2.652 -0.7616  0.2794 -0.4152
 7506TIP3    H143933   3.400   2.685   2.731 -1.0384  0.9608 -0.7841
 7506TIP3    H243934   3.410   2.580   2.622  2.0676 -2.3156  2.5014
 7507TIP3   OH243935   1.342   5.730  15.362  0.0779 -0.0568  0.5797
 7507TIP3    H143936   1.341   5.765  15.450  0.4811  2.9471 -0.5593
 7507TIP3    H243937   1.250   5.728  15.335  0.1864  1.6814  0.0657
 7508TIP3   OH243938   6.648   6.141   1.582  0.6097 -0.0222 -0.2628
 7508TIP3    H143939   6.684   6.053   1.574  1.5544  0.3128  0.2655
 7508TIP3    H243940   6.599   6.139   1.664  1.9190  0.3823  0.5471
 7509TIP3   OH243941   1.337   4.492   0.830 -0.3121  0.1074  0.2817
 7509TIP3    H143942   1.312   4.429   0.762  0.8297  0.8651 -0.8679
 7509TIP3    H243943   1.274   4.564   0.820  0.9496  1.0556 -1.2287
 7510TIP3   OH243944   4.278   4.555  15.738 -0.3561  1.1550  0.3075
 7510TIP3    H143945   4.367   4.572  15.710 -1.0240  0.5464 -2.2743
 7510TIP3    H243946   4.237   4.641  15.742 -0.3445  1.2256 -0.9400
 7511TIP3   OH243947   0.850   1.640   1.215  0.5450 -0.1007  0.3519
 7511TIP3    H143948   0.821   1.556   1.179 -1.2522  1.0760 -1.0259
 7511TIP3    H243949   0.933   1.657   1.170  0.6064 -0.8357  0.1667
 7512TIP3   OH243950   4.442   2.317   5.282  0.0792 -0.9880  0.3233
 7512TIP3    H143951   4.497   2.324   5.360 -0.4275  1.3246  0.5072
 7512TIP3    H243952   4.474   2.386   5.224 -1.0407 -1.1989 -0.5582
 7513TIP3   OH243953   1.548   1.923  13.794 -0.1112  0.3544  0.5471
 7513TIP3    H143954   1.539   1.837  13.837 -2.9675 -0.0057 -0.6497
 7513TIP3    H243955   1.484   1.920  13.722  0.7615  2.9695 -0.3721
 7514TIP3   OH243956   0.936   0.989  12.515 -0.1433 -0.0545  0.8598
 7514TIP3    H143957   1.024   1.008  12.549 -0.3821  0.8298  0.9916
 7514TIP3    H243958   0.951   0.968  12.423  0.2807 -0.4961  1.0265
 7515TIP3   OH243959   5.062   4.921   4.406  0.5763 -0.1702  0.0694
 7515TIP3    H143960   5.024   4.956   4.486  0.1567  0.5028 -0.4124
 7515TIP3    H243961   5.052   4.992   4.342  3.5880  0.4559  0.1920
 7516TIP3   OH243962   3.530   1.643   2.546  0.1739 -0.0834 -0.2529
 7516TIP3    H143963   3.599   1.656   2.480  0.3612  0.5417  0.0718
 7516TIP3    H243964   3.574   1.654   2.630 -0.0693 -0.8795 -0.0148
 7517TIP3   OH243965   5.344   0.871  14.420 -0.1710  0.0733  0.4790
 7517TIP3    H143966   5.424   0.922  14.411  1.6651 -2.3574  2.4570
 7517TIP3    H243967   5.307   0.901  14.504 -0.7026  0.3091  0.1653
 7518TIP3   OH243968   0.648   0.271  16.482  0.5841  1.1801  0.5882
 7518TIP3    H143969   0.599   0.325  16.421  2.6767  3.1889  0.6342
 7518TIP3    H243970   0.730   0.251  16.437  0.6090 -0.4562  1.3000
 7519TIP3   OH243971   2.088   2.658   3.148  0.0110  0.2906  0.0595
 7519TIP3    H143972   2.055   2.695   3.066 -1.9883  1.1960  1.2275
 7519TIP3    H243973   2.025   2.686   3.214  1.7815 -0.0973  1.9886
 7520TIP3   OH243974   5.480   4.897  13.830  0.6444 -0.0404 -0.0300
 7520TIP3    H143975   5.506   4.934  13.746 -0.1551  0.9360  0.1328
 7520TIP3    H243976   5.560   4.897  13.882  1.1577 -0.7167 -0.8157
 7521TIP3   OH243977   5.054   4.477   0.475 -0.1542  0.3606 -0.0539
 7521TIP3    H143978   5.105   4.535   0.531  0.5116  0.1193 -0.4046
 7521TIP3    H243979   5.119   4.418   0.437 -0.9821 -1.6312  1.5034
 7522TIP3   OH243980   4.787   5.131   6.023 -0.1355 -0.1712  0.0260
 7522TIP3    H143981   4.780   5.208   6.079 -0.5003  0.4688 -0.8823
 7522TIP3    H243982   4.748   5.060   6.075  1.5547 -0.0729  1.4541
 7523TIP3   OH243983   2.342   2.246  16.918 -0.9343  0.3724 -0.1315
 7523TIP3    H143984   2.318   2.320  16.863 -0.3944  0.7962  0.1957
 7523TIP3    H243985   2.438   2.243  16.914 -1.0426 -2.1691 -2.5867
 7524TIP3   OH243986   3.620   6.542  11.258 -0.5772 -0.4880 -0.6516
 7524TIP3    H143987   3.584   6.468  11.208 -1.6991  1.1113 -2.2723
 7524TIP3    H243988   3.664   6.595  11.192  0.6113  0.0651  0.5833
 7525TIP3   OH243989   2.455   5.462   1.469  0.0305  0.8417  0.0719
 7525TIP3    H143990   2.499   5.477   1.385  1.5661  1.4110  0.9613
 7525TIP3    H243991   2.489   5.378   1.499 -0.8581  0.4245 -0.0767
 7526TIP3   OH243992   2.690   6.691  13.269 -0.2064 -0.4788  0.6136
 7526TIP3    H143993   2.632   6.620  13.298  0.3991 -1.7638 -1.2188
 7526TIP3    H243994   2.684   6.689  13.174 -1.1394  2.7864  0.5352
 7527TIP3   OH243995   0.941   5.740   2.226  0.1725 -0.3539  1.2010
 7527TIP3    H143996   1.006   5.770   2.290 -0.6368 -0.6630  2.1673
 7527TIP3    H243997   0.857   5.754   2.269 -0.3843 -0.4233  0.1410
 7528TIP3   OH243998   4.619   3.756  12.284 -0.4344 -0.3880  0.0708
 7528TIP3    H143999   4.658   3.713  12.360  1.5478  0.8868 -0.1767
 7528TIP3    H244000   4.552   3.814  12.322 -0.8016 -1.2039  0.6752
 7529TIP3   OH244001   2.372   3.280   5.074  0.9127 -0.3981 -0.5105
 7529TIP3    H144002   2.394   3.235   5.156  0.3260  0.5215  0.1667
 7529TIP3    H244003   2.279   3.263   5.062  1.0318 -0.6470 -1.0605
 7530TIP3   OH244004   6.289   1.285   0.644 -1.2729  0.5221  0.0184
 7530TIP3    H144005   6.271   1.209   0.698  0.9517  0.1740  0.2839
 7530TIP3    H244006   6.282   1.359   0.704  0.5991  0.1863  0.6651
 7531TIP3   OH244007   0.816   5.341   2.406  0.6568 -0.4322  0.2169
 7531TIP3    H144008   0.868   5.265   2.431  0.5568  0.9715  5.1601
 7531TIP3    H244009   0.850   5.365   2.320  3.5461 -3.5567  0.3719
 7532TIP3   OH244010   4.876   4.746  16.694  0.2022 -0.4394  0.1156
 7532TIP3    H144011   4.858   4.652  16.685  2.6347 -1.0884  1.5566
 7532TIP3    H244012   4.971   4.752  16.702 -0.1819  1.6301  5.2292
 7533TIP3   OH244013   2.516   6.159   4.535  0.5674 -0.3863  0.5465
 7533TIP3    H144014   2.463   6.087   4.501 -0.3471  0.8483 -0.7257
 7533TIP3    H244015   2.494   6.163   4.628 -0.0454 -1.1846  0.4446
 7534TIP3   OH244016   1.006   0.708  13.048 -0.1413 -0.4170  0.0387
 7534TIP3    H144017   1.040   0.761  13.120  0.3281  0.0545 -0.5193
 7534TIP3    H244018   0.916   0.737  13.037  0.5187  1.2785 -1.1727
 7535TIP3   OH244019   1.504   2.261   4.787 -0.2944 -0.6453 -0.8285
 7535TIP3    H144020   1.459   2.180   4.813 -0.3648  0.0337  1.2419
 7535TIP3    H244021   1.596   2.244   4.807 -0.4870  0.2697  0.8645
 7536TIP3   OH244022   5.955   3.880   5.120 -0.2853  0.2382 -0.1856
 7536TIP3    H144023   5.924   3.971   5.122  1.0557  0.6802  2.6457
 7536TIP3    H244024   5.941   3.852   5.030 -1.8141  2.8782 -0.8102
 7537TIP3   OH244025   1.791   3.319   2.052 -0.2342  0.8087 -0.0399
 7537TIP3    H144026   1.714   3.308   2.109 -0.0856 -2.2972 -0.3730
 7537TIP3    H244027   1.862   3.340   2.113 -0.2228 -1.7771  0.9034
 7538TIP3   OH244028   3.910   5.497  14.682  0.6773  0.3737 -0.5011
 7538TIP3    H144029   3.979   5.561  14.698  1.7964 -1.2961  1.5540
 7538TIP3    H244030   3.934   5.422  14.735 -2.2794 -0.5813 -0.4212
 7539TIP3   OH244031   4.698   3.084  10.324 -0.1156  0.5855  0.2894
 7539TIP3    H144032   4.753   3.044  10.256  0.9672  0.1899  1.3869
 7539TIP3    H244033   4.685   3.174  10.293 -2.3075 -0.4749 -2.0373
 7540TIP3   OH244034   1.960   4.753   1.551  0.2124  0.4482 -0.2099
 7540TIP3    H144035   1.910   4.681   1.513  2.6568 -1.2233 -0.4096
 7540TIP3    H244036   1.945   4.747   1.645 -1.8822  1.5062 -0.4472
 7541TIP3   OH244037   3.676   0.781  12.000 -0.1868  0.2533  0.0691
 7541TIP3    H144038   3.737   0.714  12.029  1.1745  1.4734  0.0650
 7541TIP3    H244039   3.725   0.831  11.934 -2.0541 -0.3467 -1.8436
 7542TIP3   OH244040   2.319   1.173  11.756  0.2978 -0.4306  0.2095
 7542TIP3    H144041   2.247   1.224  11.794  0.9214  2.0792 -1.8297
 7542TIP3    H244042   2.282   1.132  11.679  0.0227 -2.4644  1.3938
 7543TIP3   OH244043   4.689   4.925  11.131 -0.5108  0.4325 -0.2522
 7543TIP3    H144044   4.593   4.925  11.134 -0.5605 -0.8706 -0.9485
 7543TIP3    H244045   4.710   4.972  11.050 -0.4624  2.7569  1.0744
 7544TIP3   OH244046   4.414   0.515   3.321  0.5673  0.2355  0.1469
 7544TIP3    H144047   4.488   0.527   3.382 -0.1197  3.7265  0.3888
 7544TIP3    H244048   4.352   0.583   3.346 -1.1226 -0.2974 -2.4701
 7545TIP3   OH244049   0.752   6.463  14.396  0.2855  0.5550  0.2275
 7545TIP3    H144050   0.797   6.536  14.354 -0.4318  0.5429 -0.5529
 7545TIP3    H244051   0.703   6.421  14.326 -1.8578  1.2253  1.2917
 7546TIP3   OH244052   5.994   5.281  13.332  0.0073 -0.3966  0.0185
 7546TIP3    H144053   5.908   5.303  13.367 -0.7024 -1.4777 -1.0270
 7546TIP3    H244054   6.017   5.356  13.276 -1.5590 -1.3787 -2.0162
 7547TIP3   OH244055   3.667   0.515   0.601 -0.3723  0.5245  0.1530
 7547TIP3    H144056   3.591   0.562   0.566 -0.9800 -0.5165  0.0618
 7547TIP3    H244057   3.648   0.507   0.695  0.3014  1.5105  0.3885
 7548TIP3   OH244058   5.743   4.679  12.184  0.1822 -0.1061  0.1978
 7548TIP3    H144059   5.715   4.608  12.126  0.1786  0.3195 -0.3195
 7548TIP3    H244060   5.800   4.734  12.130  1.0724 -0.3158  0.9052
 7549TIP3   OH244061   6.148   1.019  12.038  0.0414 -0.0501  0.3035
 7549TIP3    H144062   6.098   1.040  12.117  1.5338  0.6964  1.0631
 7549TIP3    H244063   6.153   0.923  12.038 -1.0043 -0.1194  0.4396
 7550TIP3   OH244064   4.194   6.175  16.761 -0.3401  0.9860  0.1259
 7550TIP3    H144065   4.261   6.242  16.748  0.8837 -0.4512 -1.1297
 7550TIP3    H244066   4.180   6.174  16.856  1.4752  1.2655  0.4167
 7551TIP3   OH244067   1.552   2.919  17.218  0.3150  0.1038  0.2514
 7551TIP3    H144068   1.530   2.925  17.125  0.9097 -0.1411  0.0916
 7551TIP3    H244069   1.629   2.863  17.221  0.9047  0.9251  0.8007
 7552TIP3   OH244070   2.236   2.005   5.108  0.3665 -0.0854 -0.4618
 7552TIP3    H144071   2.320   1.961   5.094  0.3259 -0.1454 -0.5132
 7552TIP3    H244072   2.170   1.941   5.081  0.3173  0.1054 -0.7894
 7553TIP3   OH244073   2.399   2.491  13.823 -0.3084  0.5132 -0.1954
 7553TIP3    H144074   2.313   2.460  13.852 -0.3617 -1.1427 -2.0636
 7553TIP3    H244075   2.451   2.494  13.904 -1.0958 -1.8628  0.4627
 7554TIP3   OH244076   1.679   5.464  14.835 -0.3996  0.1168  0.1734
 7554TIP3    H144077   1.630   5.488  14.757  1.1188 -0.8462 -1.0946
 7554TIP3    H244078   1.641   5.519  14.904 -1.4822  1.2724 -1.2949
 7555TIP3   OH244079   6.674   0.542  17.096  0.8004 -0.6342  0.3567
 7555TIP3    H144080   6.589   0.500  17.088  1.4398 -1.5124 -2.3404
 7555TIP3    H244081   6.655   0.629  17.131 -1.2757 -0.5256 -0.9850
 7556TIP3   OH244082   4.891   5.510   0.081  0.0580 -0.2300  0.5233
 7556TIP3    H144083   4.850   5.586   0.122 -1.9480 -0.8126 -0.3368
 7556TIP3    H244084   4.877   5.439   0.143 -0.6037 -0.5184  0.0487
 7557TIP3   OH244085   4.731   0.545   0.976 -0.3919  0.0714 -0.1744
 7557TIP3    H144086   4.728   0.523   1.069 -0.1304  2.0711  0.3406
 7557TIP3    H244087   4.639   0.544   0.948 -0.3772 -1.7085 -0.2081
 7558TIP3   OH244088   4.054   5.972  12.006  0.4187 -0.3059  0.1483
 7558TIP3    H144089   4.133   5.929  12.040  1.0739  1.3654  0.7548
 7558TIP3    H244090   4.086   6.048  11.958 -0.7257 -0.7000 -1.2780
 7559TIP3   OH244091   4.515   4.459   6.738  0.2021 -0.1263 -0.0028
 7559TIP3    H144092   4.577   4.528   6.716 -2.1672  1.5308 -1.8365
 7559TIP3    H244093   4.483   4.429   6.653 -1.1871 -1.2131  0.8846
 7560TIP3   OH244094   3.493   4.755  16.787 -0.2906  0.0158  0.2937
 7560TIP3    H144095   3.510   4.806  16.708 -0.2634  0.3483  0.5109
 7560TIP3    H244096   3.411   4.709  16.769 -0.0754 -0.2242 -0.0857
 7561TIP3   OH244097   2.277   1.665   0.783 -0.0766  0.4934  0.1475
 7561TIP3    H144098   2.224   1.586   0.770  1.2412 -0.6081  1.3367
 7561TIP3    H244099   2.214   1.737   0.777 -1.4733 -0.7066  0.0972
 7562TIP3   OH244100   1.613   4.290   3.126  0.3274  0.5408  0.0668
 7562TIP3    H144101   1.658   4.374   3.136  0.7755  0.2368  0.6155
 7562TIP3    H244102   1.652   4.234   3.193 -0.4594  0.1023  0.1621
 7563TIP3   OH244103   4.852   2.769  13.036 -0.6362 -0.0961  0.5235
 7563TIP3    H144104   4.889   2.759  13.124  2.0479  0.3146 -0.4877
 7563TIP3    H244105   4.813   2.684  13.016  0.6296 -0.8816  1.3023
 7564TIP3   OH244106   2.985   5.294   3.656  0.6767  0.3437  1.1619
 7564TIP3    H144107   3.079   5.302   3.642  0.2953  0.6015 -1.5958
 7564TIP3    H244108   2.974   5.206   3.692  1.8263 -0.3495 -0.1291
 7565TIP3   OH244109   0.301   3.655   2.451  0.4356  0.2998 -0.5788
 7565TIP3    H144110   0.354   3.733   2.430  0.1096  0.6610 -0.0661
 7565TIP3    H244111   0.213   3.689   2.462  0.2551 -0.1804 -0.5605
 7566TIP3   OH244112   2.607   3.919   1.661  0.2258 -0.5012  0.3551
 7566TIP3    H144113   2.654   3.873   1.731 -1.5136 -1.6064  0.8321
 7566TIP3    H244114   2.542   3.972   1.706 -0.9869 -1.3110 -0.4201
 7567TIP3   OH244115   6.074   1.425  11.394 -0.7817 -0.0397 -0.0509
 7567TIP3    H144116   6.036   1.496  11.445  0.5897  0.7850 -0.1329
 7567TIP3    H244117   6.098   1.359  11.459 -0.3700  0.3823  0.2341
 7568TIP3   OH244118   3.742   0.796   4.373 -0.3561 -0.0090  0.3841
 7568TIP3    H144119   3.765   0.851   4.298 -0.0512  0.2687  0.6845
 7568TIP3    H244120   3.683   0.729   4.336 -1.3601  0.9791  0.1650
 7569TIP3   OH244121   4.857   4.578   2.734 -0.2579  0.3091  0.4380
 7569TIP3    H144122   4.791   4.611   2.795 -2.3996 -1.9645 -0.5108
 7569TIP3    H244123   4.874   4.488   2.765  2.5405  0.9134  0.7470
 7570TIP3   OH244124   2.282   1.790  15.795 -0.1113  0.0709 -0.0781
 7570TIP3    H144125   2.327   1.853  15.740  0.4453  1.2356  1.6781
 7570TIP3    H244126   2.268   1.714  15.738 -1.5031  2.0395 -2.4570
 7571TIP3   OH244127   4.406   1.369   1.362 -0.3077 -0.0920 -0.0946
 7571TIP3    H144128   4.473   1.334   1.303 -1.3335 -0.5707 -0.9892
 7571TIP3    H244129   4.337   1.400   1.304 -1.1672 -0.2052  0.8555
 7572TIP3   OH244130   5.361   1.451  13.981  0.4935  0.2654 -0.3937
 7572TIP3    H144131   5.307   1.440  13.903  1.7052 -0.7482 -1.0995
 7572TIP3    H244132   5.384   1.544  13.981  0.4753  0.2693 -1.2318
 7573TIP3   OH244133   4.226   4.848  13.141  0.5347 -0.4019 -0.3114
 7573TIP3    H144134   4.131   4.862  13.145  0.7520  0.8085  1.0679
 7573TIP3    H244135   4.260   4.890  13.220  2.3885  0.5832 -1.5850
 7574TIP3   OH244136   0.603   3.302  15.462  0.1123 -0.3232  0.5037
 7574TIP3    H144137   0.640   3.225  15.419  1.4966  0.7361 -0.2544
 7574TIP3    H244138   0.585   3.363  15.390 -1.2666 -0.0644  1.0629
 7575TIP3   OH244139   6.661   6.765   0.081  0.3683  0.4636  0.4640
 7575TIP3    H144140   6.567   6.769   0.061 -0.1062  0.7251  2.6115
 7575TIP3    H244141   6.675   6.675   0.111  0.6923  0.5815  0.6662
 7576TIP3   OH244142   4.986   1.928  16.304 -0.4430  0.2298  0.0227
 7576TIP3    H144143   5.075   1.937  16.340  0.5981  0.7893 -2.6106
 7576TIP3    H244144   4.941   2.007  16.332 -0.1130 -0.0248  1.3269
 7577TIP3   OH244145   0.293   6.314   0.374 -0.3031 -0.4095  0.7096
 7577TIP3    H144146   0.350   6.381   0.337 -1.6081  0.0971 -0.4439
 7577TIP3    H244147   0.341   6.232   0.363  0.5895  0.1306  0.6065
 7578TIP3   OH244148   4.570   1.025   2.927  0.1159  0.1346  0.1278
 7578TIP3    H144149   4.591   1.055   2.838  0.1896  0.7630  0.3553
 7578TIP3    H244150   4.654   0.997   2.963  0.0464 -0.3479 -0.0884
 7579TIP3   OH244151   4.804   5.799   0.771 -0.3777 -0.0877  0.1957
 7579TIP3    H144152   4.770   5.796   0.860 -1.8081 -1.8599 -0.3913
 7579TIP3    H244153   4.900   5.802   0.782 -0.5530  0.1408  1.7714
 7580TIP3   OH244154   1.201   1.217   1.801 -0.2270  0.2601 -0.2600
 7580TIP3    H144155   1.229   1.264   1.879 -0.7898  0.5562 -0.2325
 7580TIP3    H244156   1.278   1.215   1.744  0.3665 -0.5107  0.5664
 7581TIP3   OH244157   2.331   4.502   2.427  0.2827 -0.2015 -0.2289
 7581TIP3    H144158   2.247   4.458   2.437  0.1309 -0.4338 -2.2624
 7581TIP3    H244159   2.394   4.431   2.412  0.7776 -0.0004  0.8593
 7582TIP3   OH244160   4.525   6.337   1.623 -0.1554 -0.4896  0.0097
 7582TIP3    H144161   4.477   6.281   1.683  0.5078 -1.6773 -0.5563
 7582TIP3    H244162   4.532   6.421   1.669 -1.7789 -0.6263  0.5607
 7583TIP3   OH244163   1.383   0.194  10.906  0.6837 -0.9156 -0.8540
 7583TIP3    H144164   1.449   0.126  10.907  1.1925 -0.4152 -0.3055
 7583TIP3    H244165   1.427   0.272  10.940  0.3577 -0.0894 -2.2830
 7584TIP3   OH244166   0.038   6.021   4.930 -0.3574  0.3677  0.3472
 7584TIP3    H144167   0.110   6.084   4.930  1.4701 -1.6038 -1.8035
 7584TIP3    H244168   0.062   5.958   4.998  0.8813 -1.2241 -1.5068
 7585TIP3   OH244169   3.662   2.356   2.501  0.2155 -0.9660 -0.0209
 7585TIP3    H144170   3.644   2.265   2.477 -0.5940 -0.1488 -2.6677
 7585TIP3    H244171   3.575   2.393   2.519  0.2996 -0.0821 -1.3896
 7586TIP3   OH244172   6.758   2.230  14.084  0.0144  0.2395 -0.5496
 7586TIP3    H144173   6.704   2.191  14.015  0.3188 -0.5562 -0.3445
 7586TIP3    H244174   6.777   2.158  14.144  2.8679  0.0255 -1.6020
 7587TIP3   OH244175   4.801   2.262  14.357 -0.8358 -0.3168 -0.8724
 7587TIP3    H144176   4.752   2.183  14.336 -2.4549  0.1969  0.8424
 7587TIP3    H244177   4.744   2.334  14.331 -1.2937  0.2915  1.6444
 7588TIP3   OH244178   5.188   6.557   6.396  0.6118  0.3219  0.1852
 7588TIP3    H144179   5.109   6.609   6.410  0.5920  0.5148 -0.6335
 7588TIP3    H244180   5.194   6.501   6.473 -1.7179 -1.4944 -0.8979
 7589TIP3   OH244181   2.472   2.547  17.078 -0.3422  0.1884 -0.2757
 7589TIP3    H144182   2.379   2.526  17.088 -0.3621  0.6215  0.5134
 7589TIP3    H244183   2.474   2.614  17.010 -0.4286 -1.1495 -1.6275
 7590TIP3   OH244184   0.570   4.621  13.617  0.0296  0.3320  0.4480
 7590TIP3    H144185   0.529   4.571  13.688 -0.6671 -1.1022 -0.9531
 7590TIP3    H244186   0.653   4.577  13.602 -0.7567 -0.6883 -1.0532
 7591TIP3   OH244187   4.640   2.290  11.370  0.5957 -0.7856  0.5464
 7591TIP3    H144188   4.723   2.297  11.323 -0.9774 -0.8477 -2.2891
 7591TIP3    H244189   4.616   2.198  11.364 -0.5708 -0.4374 -0.1806
 7592TIP3   OH244190   3.406   0.152   1.342  0.0749 -0.3110 -0.1302
 7592TIP3    H144191   3.365   0.076   1.384 -1.2717 -0.5199 -1.7534
 7592TIP3    H244192   3.453   0.115   1.267 -1.3734  0.5133 -1.4932
 7593TIP3   OH244193   6.228   6.018  14.329 -0.0395  0.0131 -0.3312
 7593TIP3    H144194   6.139   5.986  14.344  0.4331 -1.5428 -0.7897
 7593TIP3    H244195   6.279   5.981  14.401  0.1478  1.3334  0.2257
 7594TIP3   OH244196   4.716   2.285  12.374 -0.1373  0.0757  0.0513
 7594TIP3    H144197   4.730   2.372  12.410 -0.1451 -0.1242  0.5403
 7594TIP3    H244198   4.753   2.289  12.285 -0.8695  0.8094 -0.2241
 7595TIP3   OH244199   2.814   0.387  14.191 -0.0802  0.2413 -0.3455
 7595TIP3    H144200   2.876   0.315  14.184 -2.1113 -1.6998  0.7823
 7595TIP3    H244201   2.768   0.389  14.107 -0.1559  0.0929 -0.3067
 7596TIP3   OH244202   6.085   5.436   0.876 -0.0398  0.3135  0.3083
 7596TIP3    H144203   6.007   5.403   0.832 -0.6970  0.2339  1.5361
 7596TIP3    H244204   6.158   5.402   0.824 -0.8133  0.3410 -0.8050
 7597TIP3   OH244205   2.628   1.187   0.976 -0.4198  0.5738  0.2169
 7597TIP3    H144206   2.604   1.217   1.064 -0.3086 -0.2788  0.5353
 7597TIP3    H244207   2.622   1.266   0.922 -1.6637  0.8578  0.7495
 7598TIP3   OH244208   6.402   5.876   1.742  0.2156  0.0838 -0.2586
 7598TIP3    H144209   6.485   5.843   1.777 -0.4868 -1.4612 -0.0160
 7598TIP3    H244210   6.339   5.807   1.762 -0.6986  0.2848 -2.4047
 7599TIP3   OH244211   0.755   3.133   2.569  0.0197 -0.3780  0.2283
 7599TIP3    H144212   0.757   3.052   2.517 -1.2093 -0.1043 -0.2481
 7599TIP3    H244213   0.846   3.164   2.567  0.3753 -1.4025 -0.1164
 7600TIP3   OH244214   4.211   6.613   2.129 -0.2953  0.4950  0.1879
 7600TIP3    H144215   4.204   6.686   2.190  0.6906  0.7181  0.0476
 7600TIP3    H244216   4.257   6.545   2.179  0.6136  0.7179 -0.3400
 7601TIP3   OH244217   2.334   4.766  14.830  0.1100  0.9185  0.2668
 7601TIP3    H144218   2.287   4.849  14.843 -0.3528  0.3893  2.0189
 7601TIP3    H244219   2.383   4.753  14.911 -1.6428 -1.6895  0.9511
 7602TIP3   OH244220   1.056   3.015  13.035 -0.4656 -0.5036 -0.2325
 7602TIP3    H144221   1.126   2.955  13.009  0.8055  0.2990  1.2998
 7602TIP3    H244222   1.037   3.065  12.955  1.6676  0.2221 -0.3176
 7603TIP3   OH244223   6.527   3.145  14.893 -0.3634 -0.4884 -0.1580
 7603TIP3    H144224   6.512   3.176  14.804 -0.3938 -1.5813 -0.5392
 7603TIP3    H244225   6.605   3.091  14.887  0.2849  0.3412  0.7001
 7604TIP3   OH244226   6.085   5.041   4.873  0.5468 -0.5205  0.3459
 7604TIP3    H144227   6.140   4.965   4.890 -0.6098 -1.4833 -0.2099
 7604TIP3    H244228   6.010   5.030   4.930  0.8426  0.7278  1.0000
 7605TIP3   OH244229   5.516   2.202   1.371 -0.4048 -0.3116 -0.0949
 7605TIP3    H144230   5.470   2.199   1.287 -0.7581 -0.0263  0.0837
 7605TIP3    H244231   5.519   2.111   1.401 -0.6778 -0.3561 -0.2043
 7606TIP3   OH244232   0.513   3.479  14.782  0.1658 -0.0831 -0.5408
 7606TIP3    H144233   0.500   3.436  14.698  0.2469  1.0249 -1.1340
 7606TIP3    H244234   0.428   3.517  14.803  0.7424  1.6913 -1.3048
 7607TIP3   OH244235   3.438   0.849  14.336  0.3340  0.0244  0.6278
 7607TIP3    H144236   3.449   0.838  14.241  0.3345 -0.2623  0.6596
 7607TIP3    H244237   3.513   0.804  14.374 -0.4888 -1.2167  0.8142
 7608TIP3   OH244238   6.336   0.206  14.081  0.5575  0.3361  0.5241
 7608TIP3    H144239   6.329   0.155  14.162 -0.6895  0.1897  0.3283
 7608TIP3    H244240   6.333   0.141  14.011 -1.4531  0.6824  0.2579
 7609TIP3   OH244241   6.334   5.027   5.888 -0.6555  0.6459 -0.2193
 7609TIP3    H144242   6.263   5.032   5.824 -1.4920 -0.7331  0.5719
 7609TIP3    H244243   6.354   4.934   5.895 -1.1392  0.6645  2.0842
 7610TIP3   OH244244   6.612   2.855  10.742 -0.2201 -0.0240 -0.3232
 7610TIP3    H144245   6.697   2.813  10.727  0.5828  0.0398  3.5818
 7610TIP3    H244246   6.549   2.783  10.739  0.3445 -0.5266 -0.1113
 7611TIP3   OH244247   1.560   4.501   6.452  0.2608  0.2371  0.6379
 7611TIP3    H144248   1.633   4.533   6.506  0.4670 -0.8441  1.0123
 7611TIP3    H244249   1.482   4.530   6.499  0.4422  0.9779  0.4925
 7612TIP3   OH244250   2.388   3.607  11.540 -0.3065 -0.2907 -0.3751
 7612TIP3    H144251   2.477   3.606  11.576 -0.4294  1.0118 -0.0368
 7612TIP3    H244252   2.333   3.577  11.613 -0.1951 -0.6763 -0.4498
 7613TIP3   OH244253   6.197   3.344  12.140  0.4220  0.1478  0.0769
 7613TIP3    H144254   6.232   3.283  12.075 -1.7811 -0.6861 -0.3602
 7613TIP3    H244255   6.149   3.288  12.201  0.5142  1.1865  1.1072
 7614TIP3   OH244256   4.509   4.349  15.770 -0.0963  0.2952  0.3922
 7614TIP3    H144257   4.601   4.326  15.753 -0.9468 -2.2140 -1.0410
 7614TIP3    H244258   4.465   4.335  15.686 -1.8580  1.2100  1.1451
 7615TIP3   OH244259   2.118   3.795   4.183 -0.0490 -0.0904 -0.2788
 7615TIP3    H144260   2.168   3.764   4.108 -0.1277 -1.7896  0.3631
 7615TIP3    H244261   2.135   3.889   4.186  2.0896 -0.4412 -0.8098
 7616TIP3   OH244262   1.442   3.568  16.398  0.1675  0.1558  0.0742
 7616TIP3    H144263   1.383   3.495  16.377 -1.9257  1.4624  1.2906
 7616TIP3    H244264   1.496   3.535  16.470  1.3657 -1.2476 -1.4211
 7617TIP3   OH244265   5.034   4.134  15.561 -0.4000 -0.5441 -0.2290
 7617TIP3    H144266   4.950   4.139  15.516 -1.3937  0.4543  1.6646
 7617TIP3    H244267   5.072   4.051  15.531 -1.3033 -0.2168 -2.3592
 7618TIP3   OH244268   2.109   1.075  11.601  0.4107  0.4248 -0.3450
 7618TIP3    H144269   2.118   0.980  11.592 -0.9809  0.2768 -0.3311
 7618TIP3    H244270   2.082   1.089  11.691  0.6446  0.8394 -0.3356
 7619TIP3   OH244271   5.592   2.186  11.647 -0.1909  0.0258 -0.8218
 7619TIP3    H144272   5.540   2.106  11.645 -1.3066  0.7519 -1.1071
 7619TIP3    H244273   5.580   2.226  11.561  2.2400 -0.6752 -1.5297
 7620TIP3   OH244274   3.427   5.467  14.602  0.1167 -0.0090  0.4905
 7620TIP3    H144275   3.502   5.411  14.583 -0.2962  0.3380 -2.2908
 7620TIP3    H244276   3.463   5.555  14.607  0.2908 -0.1406  1.9058
 7621TIP3   OH244277   3.813   4.256  11.747  0.5898 -0.2318 -0.4802
 7621TIP3    H144278   3.880   4.314  11.785 -0.5964  1.7463 -1.3288
 7621TIP3    H244279   3.764   4.224  11.822  1.5397 -0.5128  0.0350
 7622TIP3   OH244280   5.172   6.139   5.745 -0.6738 -0.3616  0.6307
 7622TIP3    H144281   5.242   6.074   5.755 -1.1585 -0.8773  0.7475
 7622TIP3    H244282   5.196   6.209   5.805  1.0284  0.6212 -1.1635
 7623TIP3   OH244283   6.276   0.735   0.840 -0.2403 -0.5236  0.0169
 7623TIP3    H144284   6.193   0.721   0.796  0.5145 -0.8351 -1.3506
 7623TIP3    H244285   6.253   0.753   0.931 -1.8334  0.2029 -0.5182
 7624TIP3   OH244286   4.519   2.279   1.683 -0.6660  0.4074  0.3902
 7624TIP3    H144287   4.442   2.280   1.741  0.5045  0.9069  1.9857
 7624TIP3    H244288   4.519   2.365   1.641 -0.8170  0.5221  0.6222
 7625TIP3   OH244289   0.366   3.516   3.784  0.3311 -0.0291  0.0258
 7625TIP3    H144290   0.445   3.475   3.748 -0.7340 -0.2013 -2.1938
 7625TIP3    H244291   0.353   3.594   3.731 -2.5670 -1.4989 -1.5631
 7626TIP3   OH244292   4.844   2.929  10.533  0.1006  0.0068 -0.1735
 7626TIP3    H144293   4.921   2.923  10.476 -0.8809 -2.5341 -1.3008
 7626TIP3    H244294   4.776   2.968  10.479 -0.5953 -1.6420 -0.5146
 7627TIP3   OH244295   0.464   2.618  11.764 -1.0005 -0.3488  0.2259
 7627TIP3    H144296   0.459   2.532  11.723 -1.5147  0.2057 -0.9125
 7627TIP3    H244297   0.532   2.664  11.714  0.3972 -0.6185  1.8431
 7628TIP3   OH244298   6.467   1.092  12.057 -0.0957  0.2610  0.2336
 7628TIP3    H144299   6.408   1.020  12.079  0.4630  0.2857  1.8772
 7628TIP3    H244300   6.531   1.053  11.997 -0.2151 -0.4447  0.5561
 7629TIP3   OH244301   3.383   3.358  16.668 -0.1723  0.1400 -0.1743
 7629TIP3    H144302   3.460   3.395  16.711  0.4440 -0.3152 -0.8890
 7629TIP3    H244303   3.366   3.277  16.716 -0.0996  0.1503 -0.1297
 7630TIP3   OH244304   3.165   4.540   1.842  0.3310  0.0419  0.0920
 7630TIP3    H144305   3.203   4.591   1.914  2.5003 -2.6217  0.9182
 7630TIP3    H244306   3.191   4.588   1.763 -1.7940  2.8106  1.0035
 7631TIP3   OH244307   6.675   3.683   2.824 -0.4326 -0.6176 -0.3990
 7631TIP3    H144308   6.677   3.593   2.791  0.6341 -1.1411  1.0420
 7631TIP3    H244309   6.596   3.687   2.878  1.0243 -1.5792  1.8830
 7632TIP3   OH244310   4.446   6.123  12.471 -0.1749  0.0308  0.4649
 7632TIP3    H144311   4.506   6.153  12.403  0.0692 -1.7819 -0.1470
 7632TIP3    H244312   4.501   6.106  12.547 -0.1473 -0.1197  0.4092
 7633TIP3   OH244313   5.183   0.087   3.776  0.4604 -0.2385 -0.1846
 7633TIP3    H144314   5.219   0.026   3.840  1.8710 -0.2849 -1.0158
 7633TIP3    H244315   5.105   0.042   3.742  0.1371 -0.5392  0.9358
 7634TIP3   OH244316   2.277   4.734  12.907  0.0342 -0.2101  0.1023
 7634TIP3    H144317   2.341   4.726  12.977  0.0757 -0.5196  0.0307
 7634TIP3    H244318   2.277   4.648  12.865 -0.2270 -0.1267 -0.0706
 7635TIP3   OH244319   2.175   4.091  14.631  0.2371  0.2867  0.3589
 7635TIP3    H144320   2.229   4.114  14.555  1.1110  0.3018  0.9771
 7635TIP3    H244321   2.210   4.145  14.702  0.2846 -0.6923  1.0884
 7636TIP3   OH244322   2.991   4.718  13.850  0.1662 -0.0050  0.1763
 7636TIP3    H144323   2.984   4.748  13.759  0.7030 -0.8848 -0.1703
 7636TIP3    H244324   2.919   4.656  13.860  2.0615 -2.4618 -0.7120
 7637TIP3   OH244325   4.982   0.934   3.217 -0.3331 -0.3226 -0.0798
 7637TIP3    H144326   5.021   0.862   3.266 -0.5060 -0.7527 -0.5688
 7637TIP3    H244327   5.056   0.989   3.193 -0.3851  0.5630  1.7424
 7638TIP3   OH244328   6.090   4.812  13.307 -0.2275 -0.3908 -0.4679
 7638TIP3    H144329   6.086   4.778  13.218  2.3151 -0.4313 -0.5967
 7638TIP3    H244330   6.117   4.903  13.296 -1.9466  0.2270  0.1793
 7639TIP3   OH244331   1.836   4.477  16.014 -0.0661  0.0996 -0.0116
 7639TIP3    H144332   1.892   4.529  15.957  0.5519 -0.1161  0.3978
 7639TIP3    H244333   1.787   4.541  16.065 -1.1081  0.3023 -1.2429
 7640TIP3   OH244334   3.405   1.782   2.840 -0.2287 -0.0076 -0.6705
 7640TIP3    H144335   3.501   1.777   2.842 -0.3177 -1.4866  0.3223
 7640TIP3    H244336   3.385   1.872   2.866  0.8315 -0.2462  1.0081
 7641TIP3   OH244337   2.380   0.842  13.907 -1.0812  0.5925 -1.0679
 7641TIP3    H144338   2.313   0.901  13.872 -1.3618  0.4871 -0.7146
 7641TIP3    H244339   2.362   0.758  13.863 -0.8048  0.7241 -1.4239
 7642TIP3   OH244340   3.964   1.991   4.085 -0.4227 -0.4129 -0.3734
 7642TIP3    H144341   3.933   1.901   4.083 -1.2310 -0.1521  0.0754
 7642TIP3    H244342   4.059   1.984   4.092 -0.3476 -1.2273 -2.0045
 7643TIP3   OH244343   0.261   0.468  11.277  0.6023 -0.0493  0.2735
 7643TIP3    H144344   0.266   0.404  11.206 -0.7083 -1.1903  1.1670
 7643TIP3    H244345   0.327   0.438  11.340  0.1915 -0.3437  0.5613
 7644TIP3   OH244346   5.448   2.011  14.025 -0.4896  0.1657  0.8509
 7644TIP3    H144347   5.452   1.927  13.980 -2.7580  1.5462 -2.0818
 7644TIP3    H244348   5.371   2.005  14.081 -0.8035  0.3848  0.4414
 7645TIP3   OH244349   6.721   5.632  11.539  0.1651  0.1883 -0.3786
 7645TIP3    H144350   6.715   5.622  11.443  0.0989  1.9251 -0.5653
 7645TIP3    H244351   6.741   5.724  11.552  2.1718 -0.4539  1.2301
 7646TIP3   OH244352   2.280   1.688   1.704 -0.2726  0.3235 -0.1965
 7646TIP3    H144353   2.350   1.634   1.668  0.5207  1.7526 -0.8133
 7646TIP3    H244354   2.280   1.768   1.652 -0.0074  1.8568  2.0424
 7647TIP3   OH244355   2.351   0.490  12.469  0.3186  0.4855 -0.3397
 7647TIP3    H144356   2.354   0.585  12.458 -0.3398  0.5638  0.1199
 7647TIP3    H244357   2.312   0.458  12.388  0.6647  0.5978 -0.5507
 7648TIP3   OH244358   6.303   2.574   0.382  0.8196 -0.5765  0.6915
 7648TIP3    H144359   6.398   2.579   0.392  0.4485  1.8731  3.6332
 7648TIP3    H244360   6.279   2.651   0.331  0.2633 -0.1120  1.6220
 7649TIP3   OH244361   2.292   3.358   0.167 -0.2284 -0.2009  0.0176
 7649TIP3    H144362   2.213   3.347   0.219 -0.1151  0.1929  0.2769
 7649TIP3    H244363   2.319   3.449   0.184  0.5558 -0.4863  0.3144
 7650TIP3   OH244364   0.226   5.804  15.936  0.0078 -0.5543  0.2076
 7650TIP3    H144365   0.253   5.719  15.903  3.4724  0.9163 -0.9400
 7650TIP3    H244366   0.221   5.860  15.859  1.0892  1.1254  1.3143
 7651TIP3   OH244367   4.680   1.546  16.873 -0.3641 -0.1118  0.5972
 7651TIP3    H144368   4.631   1.571  16.952 -0.4099 -1.2484  0.9350
 7651TIP3    H244369   4.759   1.600  16.876 -0.5924  0.1988  1.1649
 7652TIP3   OH244370   2.261   2.207  13.158 -0.2011 -0.0202  0.0481
 7652TIP3    H144371   2.202   2.136  13.131 -0.8187  0.5710 -0.1560
 7652TIP3    H244372   2.342   2.162  13.181 -0.1013 -0.6834 -1.4840
 7653TIP3   OH244373   4.413   1.212  16.716  0.3183  0.3257 -0.4595
 7653TIP3    H144374   4.371   1.133  16.751  1.1046  0.4315  0.7378
 7653TIP3    H244375   4.348   1.281  16.728  0.1402  0.1272 -0.2694
 7654TIP3   OH244376   0.416   5.286  11.377 -0.8051 -0.1586 -0.3748
 7654TIP3    H144377   0.355   5.321  11.312  0.5065  2.1167 -0.4367
 7654TIP3    H244378   0.380   5.200  11.400 -1.7505 -0.6365 -3.4519
 7655TIP3   OH244379   6.531   0.283  15.603 -0.0518 -0.2921  0.1445
 7655TIP3    H144380   6.497   0.335  15.676  3.1458 -1.6531  2.7119
 7655TIP3    H244381   6.525   0.341  15.527 -3.2065  1.2612  1.4912
 7656TIP3   OH244382   0.141   1.961  15.041  0.5578  0.2433  0.3794
 7656TIP3    H144383   0.153   1.881  15.092 -0.7554  0.5994  1.2445
 7656TIP3    H244384   0.060   1.947  14.993  0.2403  1.1357  0.6644
 7657TIP3   OH244385   5.276   4.285  16.212  0.4713  0.3146 -0.3645
 7657TIP3    H144386   5.212   4.241  16.156 -0.4457  0.3756  0.6148
 7657TIP3    H244387   5.264   4.378  16.195 -1.3409  0.4642  1.5148
 7658TIP3   OH244388   2.620   6.251  13.854 -0.3711  0.3401  0.2249
 7658TIP3    H144389   2.587   6.170  13.815 -2.2641  0.7709  0.8789
 7658TIP3    H244390   2.711   6.233  13.874 -0.3209 -1.0500 -1.2246
 7659TIP3   OH244391   1.477   0.289  16.218  0.3920 -0.1150 -0.5176
 7659TIP3    H144392   1.530   0.247  16.285  1.1462  0.6371 -0.6261
 7659TIP3    H244393   1.434   0.217  16.172  1.5065 -0.7555 -0.5746
 7660TIP3   OH244394   4.604   0.214   4.220 -0.0109  0.0396  0.1649
 7660TIP3    H144395   4.573   0.242   4.134 -0.3119 -0.7036  0.0334
 7660TIP3    H244396   4.630   0.296   4.263  0.0208  0.4290 -0.5795
 7661TIP3   OH244397   5.635   1.635   3.486  0.3140 -0.2543  0.2598
 7661TIP3    H144398   5.667   1.548   3.508 -1.7354 -1.7855 -2.5808
 7661TIP3    H244399   5.674   1.655   3.401 -1.1625  0.5632 -0.2394
 7662TIP3   OH244400   2.617   0.455  15.269  0.7954  0.2409 -0.1668
 7662TIP3    H144401   2.547   0.426  15.211  0.8386  1.8125 -1.0584
 7662TIP3    H244402   2.697   0.441  15.218  0.9896 -0.0575  0.2210
 7663TIP3   OH244403   0.779   2.422  16.631 -0.8414  0.4245  0.4680
 7663TIP3    H144404   0.847   2.356  16.623 -1.6262 -0.6010  2.0307
 7663TIP3    H244405   0.801   2.469  16.712 -2.6573 -0.7350  1.6723
 7664TIP3   OH244406   3.052   3.550  16.165  0.6447 -0.2138 -0.5788
 7664TIP3    H144407   3.145   3.541  16.142  0.0532  0.6338 -3.5170
 7664TIP3    H244408   3.044   3.640  16.195  0.8479 -0.4471  0.2000
 7665TIP3   OH244409   4.189   2.952  11.469 -0.3280 -0.5586  0.0416
 7665TIP3    H144410   4.178   2.905  11.552  0.1902 -0.9934 -0.1299
 7665TIP3    H244411   4.272   2.919  11.434  1.5144  2.5817  1.2813
 7666TIP3   OH244412   3.701   4.476   5.001 -0.5309 -0.3129  0.3999
 7666TIP3    H144413   3.669   4.551   5.052 -0.7389 -0.8462  1.0510
 7666TIP3    H244414   3.751   4.516   4.929  1.5181  0.3949  2.1756
 7667TIP3   OH244415   3.886   0.032  11.053  0.1085 -0.0042  0.2536
 7667TIP3    H144416   3.918   0.081  10.977 -0.4002  1.1600  0.7930
 7667TIP3    H244417   3.834  -0.039  11.015  1.8186 -0.8624 -0.5685
 7668TIP3   OH244418   5.159   4.037   3.098 -0.3482 -1.0115  0.3109
 7668TIP3    H144419   5.207   4.100   3.151  0.5190 -0.4598 -1.1297
 7668TIP3    H244420   5.082   4.016   3.151  0.2834 -0.1487  1.6010
 7669TIP3   OH244421   1.050   0.936   2.881 -0.0585 -0.3163 -0.0980
 7669TIP3    H144422   1.091   1.021   2.867 -2.6879  0.8630 -0.8326
 7669TIP3    H244423   1.034   0.933   2.976 -0.0664  0.0424 -0.0865
 7670TIP3   OH244424   1.966   1.101  16.230  0.1364  0.2226  0.4062
 7670TIP3    H144425   1.980   1.175  16.289  0.6949 -0.6467  1.3774
 7670TIP3    H244426   1.872   1.101  16.213 -0.0142  0.5352  1.2377
 7671TIP3   OH244427   2.296   3.006  12.541 -0.6960  0.3235 -0.0539
 7671TIP3    H144428   2.324   3.066  12.471 -0.1446 -1.1810 -1.1478
 7671TIP3    H244429   2.201   3.011  12.539 -0.6813  0.5002 -0.7331
 7672TIP3   OH244430   2.955   2.442   2.041  0.7618  0.1940 -0.6231
 7672TIP3    H144431   2.925   2.438   1.950  1.7703  0.7393 -0.9845
 7672TIP3    H244432   2.942   2.533   2.067  1.7593  0.3582 -0.6700
 7673TIP3   OH244433   4.329   3.172  14.353  0.5181 -0.2305 -0.0522
 7673TIP3    H144434   4.338   3.231  14.277 -1.9228  1.7500  1.1340
 7673TIP3    H244435   4.399   3.200  14.412 -0.4660  1.3200  0.3922
 7674TIP3   OH244436   5.535   1.013   2.852 -0.6097 -0.1100 -0.4831
 7674TIP3    H144437   5.514   1.012   2.946 -0.8164 -1.9408 -0.5435
 7674TIP3    H244438   5.456   0.982   2.809  0.5977 -2.6052 -1.0084
 7675TIP3   OH244439   6.561   6.298   2.867  0.5418  0.3661 -0.2662
 7675TIP3    H144440   6.557   6.261   2.778  0.6902 -0.0752 -0.0890
 7675TIP3    H244441   6.554   6.222   2.925  0.9706  0.6033  0.0998
 7676TIP3   OH244442   6.127   5.592  16.678 -0.2804  0.0636  0.2296
 7676TIP3    H144443   6.150   5.546  16.598  1.4557  2.9903 -1.0211
 7676TIP3    H244444   6.194   5.567  16.741 -1.4611 -1.9816  0.7117
 7677TIP3   OH244445   3.529   1.273  13.986 -0.2136  0.0993 -0.4568
 7677TIP3    H144446   3.502   1.354  14.030 -0.5165  0.5715 -1.4876
 7677TIP3    H244447   3.621   1.289  13.962 -0.2721  0.1382 -0.6572
 7678TIP3   OH244448   4.472   1.512  15.601 -0.2909 -0.2447 -0.3999
 7678TIP3    H144449   4.417   1.468  15.536 -1.3382 -0.1405  0.4099
 7678TIP3    H244450   4.552   1.534  15.553  0.1728 -2.8004 -0.8901
 7679TIP3   OH244451   3.294   3.262  11.914 -0.0543 -0.5515 -0.2983
 7679TIP3    H144452   3.240   3.338  11.895 -0.2464 -0.9344 -1.3486
 7679TIP3    H244453   3.360   3.294  11.976 -0.5114  0.3088 -0.2487
 7680TIP3   OH244454   4.383   1.922   5.734  0.0661  0.6095  0.0523
 7680TIP3    H144455   4.348   1.860   5.798  0.5745  0.5441  0.2693
 7680TIP3    H244456   4.430   1.866   5.671  1.3062  0.8473  0.7520
 7681TIP3   OH244457   0.439   1.114   1.045 -0.3155  0.5807 -0.0294
 7681TIP3    H144458   0.379   1.048   1.081  0.5373 -0.7832 -1.0438
 7681TIP3    H244459   0.499   1.134   1.117 -2.4967  2.6142  1.2708
 7682TIP3   OH244460   2.509   2.708  12.686  0.0787  0.6443 -0.2198
 7682TIP3    H144461   2.431   2.663  12.716 -1.3688  1.9265 -1.9671
 7682TIP3    H244462   2.542   2.754  12.764  0.7332 -2.1504  1.1918
 7683TIP3   OH244463   1.398   2.918   5.636  0.0536 -0.0408 -0.6947
 7683TIP3    H144464   1.341   2.978   5.589 -1.4942 -0.8675  0.1012
 7683TIP3    H244465   1.478   2.969   5.653 -1.4509  1.9678  0.4745
 7684TIP3   OH244466   1.319   2.037   5.257 -0.0631  0.1929 -0.6292
 7684TIP3    H144467   1.356   2.005   5.340  0.2064  0.2879 -0.7127
 7684TIP3    H244468   1.312   2.131   5.269 -2.1979 -0.0301  0.1566
 7685TIP3   OH244469   2.918   4.793  15.671  0.2622 -0.2129  0.6017
 7685TIP3    H144470   2.825   4.795  15.694  0.3560  0.9309  0.9080
 7685TIP3    H244471   2.961   4.754  15.746  0.2880  1.3700  1.4386
 7686TIP3   OH244472   4.193   0.202  13.269 -0.1668 -0.2962  0.1696
 7686TIP3    H144473   4.234   0.206  13.183  1.0686 -1.1665  0.7110
 7686TIP3    H244474   4.175   0.294  13.291 -2.2888 -0.1872 -1.8505
 7687TIP3   OH244475   0.696   5.555  14.044 -0.5064 -0.1516  0.2521
 7687TIP3    H144476   0.600   5.555  14.054 -0.4119  0.5238  1.2210
 7687TIP3    H244477   0.729   5.580  14.131  0.6492 -3.7272  0.9236
 7688TIP3   OH244478   4.209   0.878   2.233 -0.2431  0.0630  0.1552
 7688TIP3    H144479   4.215   0.967   2.269 -1.3946  0.4475 -0.5752
 7688TIP3    H244480   4.117   0.868   2.210  0.1823 -0.7666 -1.1938
 7689TIP3   OH244481   1.997   5.768  12.406 -0.1429  0.2622 -0.3487
 7689TIP3    H144482   2.014   5.829  12.478 -1.5158 -0.4696  0.6301
 7689TIP3    H244483   1.981   5.824  12.330 -1.1551  1.1297  0.4775
 7690TIP3   OH244484   6.482   5.288  15.373  0.0577 -0.0205 -0.1043
 7690TIP3    H144485   6.493   5.330  15.458  1.2599  1.5638 -1.0132
 7690TIP3    H244486   6.390   5.306  15.350  0.5693  2.2163 -0.5040
 7691TIP3   OH244487   5.187   3.346  11.265 -0.3751  0.1547  0.1190
 7691TIP3    H144488   5.102   3.340  11.309  0.3398  0.5815  1.6177
 7691TIP3    H244489   5.197   3.262  11.221 -0.9112 -0.4849  1.1938
 7692TIP3   OH244490   5.168   2.795   5.456 -0.0116  0.1541 -0.1161
 7692TIP3    H144491   5.173   2.874   5.403 -1.5846  0.6336  0.4370
 7692TIP3    H244492   5.158   2.724   5.393 -0.3287  0.5675 -0.5343
 7693TIP3   OH244493   3.586   4.005   2.883  0.1310 -0.0802  0.5397
 7693TIP3    H144494   3.626   4.085   2.917 -0.1374  0.5689 -0.6477
 7693TIP3    H244495   3.660   3.950   2.859  0.3172  0.2293  0.3990
 7694TIP3   OH244496   5.484   2.077   2.793 -0.8177  1.0634  0.0612
 7694TIP3    H144497   5.442   1.994   2.772 -1.7035  1.9103 -1.6120
 7694TIP3    H244498   5.577   2.056   2.799 -1.0342 -0.0367 -0.3576
 7695TIP3   OH244499   4.626   3.431  10.619  0.7747  0.0521  0.6745
 7695TIP3    H144500   4.602   3.511  10.664 -0.4521 -0.0855  0.3036
 7695TIP3    H244501   4.575   3.362  10.663  1.6806 -0.4979  0.8796
 7696TIP3   OH244502   6.133   1.182   6.555  0.1344 -0.0019 -0.1450
 7696TIP3    H144503   6.059   1.140   6.511  0.1506  0.2355 -0.4009
 7696TIP3    H244504   6.102   1.272   6.571  0.8960  0.5232 -1.5409
 7697TIP3   OH244505   3.565   4.417  13.408 -0.1544 -0.3610  0.6730
 7697TIP3    H144506   3.509   4.493  13.393  2.3040  1.2111 -1.0495
 7697TIP3    H244507   3.650   4.454  13.431  0.8267 -2.6188  0.8427
 7698TIP3   OH244508   0.840   3.465  15.583  0.3289  0.0387 -0.6936
 7698TIP3    H144509   0.789   3.428  15.511  0.1494 -1.8297  0.3544
 7698TIP3    H244510   0.916   3.407  15.590  0.4946  0.3832  0.4167
 7699TIP3   OH244511   2.229   1.113   5.374 -0.2399  0.9520  0.2298
 7699TIP3    H144512   2.319   1.116   5.342  0.1460  0.3982  1.2173
 7699TIP3    H244513   2.217   1.197   5.419 -0.6144  1.5174 -0.9106
 7700TIP3   OH244514   0.635   4.777   5.715 -0.2129  0.7296 -0.3405
 7700TIP3    H144515   0.594   4.693   5.738 -0.8287  1.1926  0.2637
 7700TIP3    H244516   0.643   4.823   5.799 -0.1172  1.3892 -0.7122
 7701TIP3   OH244517   3.425   1.256  12.501 -0.3816 -0.2650  0.2966
 7701TIP3    H144518   3.426   1.294  12.413  1.1449  0.3084  0.5412
 7701TIP3    H244519   3.354   1.300  12.546 -0.0744  0.6714 -0.1355
 7702TIP3   OH244520   4.702   3.853   6.473  0.1194 -0.2901  0.0319
 7702TIP3    H144521   4.756   3.929   6.497  0.8415 -0.5323 -0.7740
 7702TIP3    H244522   4.673   3.817   6.556 -0.0498  0.7501  0.4339
 7703TIP3   OH244523   1.151   2.921   2.626 -0.0294 -0.2413  0.0782
 7703TIP3    H144524   1.193   2.993   2.672  1.1231 -1.9063  1.7221
 7703TIP3    H244525   1.062   2.917   2.661  0.3170 -0.4350  0.9443
 7704TIP3   OH244526   0.126   0.326   3.148 -0.6571  0.2058  0.2384
 7704TIP3    H144527   0.111   0.344   3.240  0.5029  0.1074  0.4453
 7704TIP3    H244528   0.178   0.400   3.116  2.5284 -1.7563  0.6671
 7705TIP3   OH244529   4.228   6.307  13.787 -0.1178 -0.0029 -0.2243
 7705TIP3    H144530   4.237   6.270  13.875 -2.2277 -0.3649 -0.1355
 7705TIP3    H244531   4.267   6.241  13.730  0.1238 -0.3464  0.3268
 7706TIP3   OH244532   5.722   3.393   4.051 -0.3060 -0.0303  0.6087
 7706TIP3    H144533   5.687   3.454   3.986 -1.1890  1.0175  2.0261
 7706TIP3    H244534   5.806   3.432   4.077  1.0836 -1.5493 -1.3930
 7707TIP3   OH244535   1.939   5.633  16.443 -0.0794  0.2497 -0.6448
 7707TIP3    H144536   1.896   5.570  16.501  1.7155  0.7149  1.2640
 7707TIP3    H244537   1.868   5.675  16.395 -1.4932 -1.2470  0.0960
 7708TIP3   OH244538   2.389   6.087  11.861 -0.2828  0.1583  0.0206
 7708TIP3    H144539   2.339   6.030  11.803 -1.9782  1.7768 -0.1223
 7708TIP3    H244540   2.410   6.164  11.808  0.6308  0.3853  0.6957
 7709TIP3   OH244541   4.758   3.165  15.054 -0.1751 -0.3740  0.5647
 7709TIP3    H144542   4.809   3.152  14.974  1.7350  0.7591  1.5981
 7709TIP3    H244543   4.667   3.159  15.024  0.4619  1.8740 -2.0359
 7710TIP3   OH244544   2.222   1.104   1.333  0.0945  0.5539  0.2992
 7710TIP3    H144545   2.259   1.178   1.284 -0.4768 -0.2290 -1.3651
 7710TIP3    H244546   2.270   1.028   1.301 -0.6271 -0.0260  0.5970
 7711TIP3   OH244547   0.172   3.191   3.922  0.2360  0.2262 -0.3918
 7711TIP3    H144548   0.262   3.169   3.945  0.4919  0.3159 -1.3072
 7711TIP3    H244549   0.173   3.199   3.827 -0.6335  0.7145 -0.3577
 7712TIP3   OH244550   3.491   0.833  14.944  0.7667 -0.3546  0.2879
 7712TIP3    H144551   3.463   0.914  14.986 -0.6641 -0.2007 -0.9499
 7712TIP3    H244552   3.458   0.839  14.854  1.0462 -2.1012  0.0478
 7713TIP3   OH244553   2.228   5.356   1.139  0.0590  0.4141 -0.7013
 7713TIP3    H144554   2.304   5.396   1.182  0.0228 -0.1378 -0.1052
 7713TIP3    H244555   2.175   5.324   1.212 -0.2056 -0.1783 -1.1535
 7714TIP3   OH244556   2.153   3.120   1.317 -0.3504  0.0600  0.2259
 7714TIP3    H144557   2.139   3.103   1.224 -0.0878  0.2143  0.1584
 7714TIP3    H244558   2.071   3.091   1.359 -0.8704  0.9418 -0.1643
 7715TIP3   OH244559   5.489   0.651  12.527  0.1875 -0.3132  0.0013
 7715TIP3    H144560   5.500   0.572  12.473  1.8612 -0.0582 -0.0515
 7715TIP3    H244561   5.500   0.620  12.617  0.9480 -0.1167 -0.0261
 7716TIP3   OH244562   4.978   2.719   6.378 -0.0542 -0.4233 -0.3169
 7716TIP3    H144563   4.950   2.803   6.340 -0.1710 -0.3945 -0.1699
 7716TIP3    H244564   5.067   2.706   6.346  0.0830 -0.0802 -0.0686
 7717TIP3   OH244565   1.637   2.467  15.577  0.3502 -0.4263  0.0742
 7717TIP3    H144566   1.631   2.440  15.485 -0.3558 -0.4465  0.1230
 7717TIP3    H244567   1.668   2.389  15.623 -1.1993 -1.0095  0.1406
 7718TIP3   OH244568   2.174   0.224  14.963 -0.5059  0.4693  0.6350
 7718TIP3    H144569   2.217   0.308  14.952 -0.2020  0.2590  0.1922
 7718TIP3    H244570   2.225   0.179  15.030  1.6547 -0.8691 -1.8028
 7719TIP3   OH244571   4.556   0.719  13.990 -0.3719  0.2287 -0.2061
 7719TIP3    H144572   4.468   0.756  13.996 -1.1765 -1.7191  0.4844
 7719TIP3    H244573   4.586   0.740  13.902 -0.5575  2.9718  0.3406
 7720TIP3   OH244574   0.499   2.754   2.188  0.4896 -0.0802 -0.0616
 7720TIP3    H144575   0.533   2.697   2.119  3.6779 -0.0498  1.3814
 7720TIP3    H244576   0.494   2.698   2.266  0.3111  0.7395  0.5322
 7721TIP3   OH244577   2.856   1.311  13.216 -0.2697 -0.0448  0.2692
 7721TIP3    H144578   2.896   1.224  13.213 -2.2842 -1.0877  1.7602
 7721TIP3    H244579   2.897   1.354  13.291  1.3325  0.6427 -0.9687
 7722TIP3   OH244580   5.336   6.283   4.025 -0.3799 -0.3103 -0.2816
 7722TIP3    H144581   5.289   6.199   4.032 -1.0933  0.1442  0.3913
 7722TIP3    H244582   5.309   6.318   3.941 -2.2489  0.5368  0.6396
 7723TIP3   OH244583   5.083   1.608   2.622 -0.2562  0.6052  0.4751
 7723TIP3    H144584   5.039   1.691   2.604  1.6405  1.0827 -2.4997
 7723TIP3    H244585   5.017   1.541   2.607 -1.6718  1.5274  2.4243
 7724TIP3   OH244586   2.961   3.792  17.045  0.1150 -0.6436 -0.0268
 7724TIP3    H144587   3.050   3.797  17.009 -0.1190 -0.9466 -0.6570
 7724TIP3    H244588   2.929   3.882  17.042  0.4814 -0.4975  0.4124
 7725TIP3   OH244589   4.736   0.024   3.173  0.1069 -0.2468 -0.3493
 7725TIP3    H144590   4.640   0.025   3.174  0.0808  3.4788  0.8151
 7725TIP3    H244591   4.761   0.115   3.159  3.4943 -1.0317  0.1513
 7726TIP3   OH244592   2.127   4.371   2.172 -0.0176 -0.3772  0.2560
 7726TIP3    H144593   2.134   4.293   2.116  2.8722 -0.7338  1.0418
 7726TIP3    H244594   2.071   4.344   2.244 -3.5121 -0.0211 -2.2125
 7727TIP3   OH244595   2.630   6.102  16.447 -0.8016 -0.5735 -0.4521
 7727TIP3    H144596   2.719   6.132  16.428 -1.8545  2.5798 -0.8599
 7727TIP3    H244597   2.592   6.084  16.361 -1.5716  1.4038 -0.5716
 7728TIP3   OH244598   4.726   4.303   3.153  0.0243 -0.7978 -0.2946
 7728TIP3    H144599   4.689   4.277   3.069 -1.1146 -0.9587  0.2450
 7728TIP3    H244600   4.688   4.389   3.170  0.9259 -0.3904 -0.3555
 7729TIP3   OH244601   5.178   0.326  15.895 -0.1386 -0.7879  0.0055
 7729TIP3    H144602   5.269   0.317  15.923 -0.4196  1.2023  1.7254
 7729TIP3    H244603   5.127   0.301  15.971 -0.9931 -0.0885 -0.3289
 7730TIP3   OH244604   6.201   2.106   1.325 -0.2497  0.1894 -0.2354
 7730TIP3    H144605   6.200   2.159   1.245  0.6090  0.1885 -0.2586
 7730TIP3    H244606   6.138   2.149   1.383 -1.8804 -0.6073 -1.3992
 7731TIP3   OH244607   4.721   1.151  12.912  0.1684 -0.0379  0.3065
 7731TIP3    H144608   4.651   1.089  12.893 -0.2685  0.2620  0.9429
 7731TIP3    H244609   4.740   1.139  13.005 -0.2821  1.1515  0.5601
 7732TIP3   OH244610   1.265   2.071   1.140 -0.1986 -0.6518  0.6100
 7732TIP3    H144611   1.317   2.022   1.075  0.2293  0.5232  0.0600
 7732TIP3    H244612   1.221   2.139   1.089  1.8845  1.7102  1.8309
 7733TIP3   OH244613   1.699   2.782   2.921 -0.0564  0.2117  0.1857
 7733TIP3    H144614   1.691   2.706   2.978 -0.4893  0.6237  0.6749
 7733TIP3    H244615   1.634   2.768   2.853  0.8820 -0.5842 -0.5599
 7734TIP3   OH244616   5.800   5.566   0.998  0.2584 -0.6668  0.0287
 7734TIP3    H144617   5.750   5.647   1.004 -0.9588 -1.3493 -0.6090
 7734TIP3    H244618   5.883   5.585   1.042  0.0161  0.9362 -0.1705
 7735TIP3   OH244619   1.496   4.963  11.737 -0.2872  0.1182 -0.3617
 7735TIP3    H144620   1.489   5.058  11.727  0.0089  0.0172 -1.6321
 7735TIP3    H244621   1.578   4.950  11.785  0.7262  0.4317 -1.9383
 7736TIP3   OH244622   0.267   6.012   0.176  0.4419  0.0455 -0.4597
 7736TIP3    H144623   0.179   6.031   0.208  0.7757 -1.1655  1.2156
 7736TIP3    H244624   0.325   6.031   0.250  1.4727 -0.4802 -1.1112
 7737TIP3   OH244625   4.924   3.356   0.027 -0.4062  0.1356  0.0490
 7737TIP3    H144626   4.982   3.336   0.101  0.7564  0.3429 -0.7861
 7737TIP3    H244627   4.895   3.270  -0.005 -1.4517  0.0657  1.1471
 7738TIP3   OH244628   6.502   3.806  13.377 -0.3415 -0.4671  0.0778
 7738TIP3    H144629   6.531   3.773  13.292 -2.7145 -0.6907 -0.6912
 7738TIP3    H244630   6.474   3.896  13.359  1.7427  0.4364  1.2143
 7739TIP3   OH244631   6.468   1.276   2.422  0.0532  0.1192 -0.4360
 7739TIP3    H144632   6.408   1.314   2.486 -0.7980  0.3926 -1.3938
 7739TIP3    H244633   6.551   1.321   2.438 -0.4182  0.9213 -0.1982
 7740TIP3   OH244634   1.658   3.893  11.306  0.1751 -0.2466  0.4267
 7740TIP3    H144635   1.623   3.946  11.235 -0.1158 -1.9446 -0.7051
 7740TIP3    H244636   1.581   3.859  11.351  0.3506  1.2367  1.8972
 7741TIP3   OH244637   0.845   5.583  15.877  0.1628  0.3480  0.2138
 7741TIP3    H144638   0.938   5.580  15.854  0.1779 -0.0889  0.3174
 7741TIP3    H244639   0.844   5.592  15.972  0.0995  2.0059  0.0666
 7742TIP3   OH244640   6.283   5.830  12.864  0.0160 -0.3794  0.1981
 7742TIP3    H144641   6.347   5.879  12.914  0.2827 -0.0227 -0.4932
 7742TIP3    H244642   6.322   5.820  12.777 -0.7560 -0.3708 -0.1521
 7743TIP3   OH244643   4.419   3.645   3.879  0.0421  0.2334  0.0815
 7743TIP3    H144644   4.377   3.716   3.928 -2.6160 -0.8896 -0.5173
 7743TIP3    H244645   4.433   3.576   3.944 -0.2952  0.0795 -0.0091
 7744TIP3   OH244646   0.003   2.672  10.513  0.6202 -0.0100 -0.0876
 7744TIP3    H144647  -0.071   2.667  10.453  1.4731 -0.4740 -1.1038
 7744TIP3    H244648   0.033   2.763  10.507  1.4882 -0.3736 -1.3100
 7745TIP3   OH244649   0.092   0.156  13.934  0.3044  0.4402 -0.1314
 7745TIP3    H144650   0.018   0.206  13.900  1.0265  1.1263 -0.7058
 7745TIP3    H244651   0.086   0.071  13.889 -1.2284 -0.2061  1.2390
 7746TIP3   OH244652   1.657   1.538  12.999  0.9196  0.1252  0.0014
 7746TIP3    H144653   1.683   1.587  13.077 -2.2666  0.0714  1.1530
 7746TIP3    H244654   1.660   1.446  13.026 -0.6376  0.1302  0.2412
 7747TIP3   OH244655   3.713   4.166  12.600 -0.1896  0.3271 -0.1635
 7747TIP3    H144656   3.745   4.082  12.632 -2.3367 -0.4619  0.0253
 7747TIP3    H244657   3.753   4.231  12.658 -0.8397 -0.7875  1.5591
 7748TIP3   OH244658   6.028   5.102  14.107 -1.0320  0.6604  0.0491
 7748TIP3    H144659   6.002   5.011  14.122  1.6670 -0.3337 -1.0526
 7748TIP3    H244660   5.980   5.127  14.028 -1.5529  0.1140  0.1840
 7749TIP3   OH244661   6.413   0.104   3.071 -0.0002 -0.1794  0.0997
 7749TIP3    H144662   6.412   0.168   3.142 -0.5287 -0.7783  0.6469
 7749TIP3    H244663   6.323   0.069   3.070  0.3015 -0.9580 -0.1307
 7750TIP3   OH244664   0.484   6.209  11.691  0.2821  0.3452 -0.0411
 7750TIP3    H144665   0.513   6.189  11.603 -0.5519 -2.8294  0.3422
 7750TIP3    H244666   0.557   6.258  11.730  1.4549  0.0761 -1.8496
 7751TIP3   OH244667   3.519   3.929  13.222  0.3925  0.1577  0.9647
 7751TIP3    H144668   3.491   3.976  13.143  0.1962  0.8845  1.4638
 7751TIP3    H244669   3.494   3.838  13.205  1.3261  0.1077 -0.2659
 7752TIP3   OH244670   5.985   2.843   2.706 -0.5300 -0.2605 -0.1502
 7752TIP3    H144671   6.074   2.840   2.740 -0.4484  1.4170 -0.1786
 7752TIP3    H244672   5.951   2.755   2.720  1.4015 -1.1509 -0.8855
 7753TIP3   OH244673   0.420   5.652   1.977 -0.1138  0.0057 -0.1714
 7753TIP3    H144674   0.370   5.572   1.962  0.0671 -0.1214 -0.1009
 7753TIP3    H244675   0.454   5.643   2.066  0.8925 -0.3814 -0.5866
 7754TIP3   OH244676   2.926   0.445   4.481 -1.1378  0.0328 -0.3520
 7754TIP3    H144677   2.881   0.515   4.529  1.2001  0.9627  0.5606
 7754TIP3    H244678   3.004   0.427   4.534  0.5854 -0.1618 -2.9039
 7755TIP3   OH244679   6.324   6.625  11.172 -0.3027  0.3079 -0.3145
 7755TIP3    H144680   6.409   6.649  11.210 -0.3702 -0.5900  0.4067
 7755TIP3    H244681   6.300   6.701  11.118  1.1048  0.4333 -0.7821
 7756TIP3   OH244682   5.922   2.952   0.951  0.0916  0.2511  0.2053
 7756TIP3    H144683   5.887   3.012   1.017 -1.6529 -0.2351 -0.2506
 7756TIP3    H244684   5.888   2.866   0.977 -1.1420  0.1500 -1.6921
 7757TIP3   OH244685   3.269   5.175   1.931  0.0843  0.3808 -0.1800
 7757TIP3    H144686   3.272   5.266   1.963  1.0318  0.4079 -0.3264
 7757TIP3    H244687   3.339   5.171   1.866 -0.3834 -0.2871 -0.6425
 7758TIP3   OH244688   0.980   1.579  13.990 -0.2788  0.1164  0.0130
 7758TIP3    H144689   1.066   1.569  13.949 -0.5283  0.3034 -0.5595
 7758TIP3    H244690   0.949   1.664  13.961 -1.7423 -1.0110 -1.8393
 7759TIP3   OH244691   1.769   2.711  12.569  0.1348  0.5435 -0.0167
 7759TIP3    H144692   1.709   2.754  12.629 -1.2695 -1.1084 -0.1886
 7759TIP3    H244693   1.764   2.762  12.488 -1.5298  0.0797 -0.2279
 7760TIP3   OH244694   1.953   1.764   1.233 -0.0603 -0.4117  0.4271
 7760TIP3    H144695   1.984   1.853   1.220 -1.3960  0.0433  0.2064
 7760TIP3    H244696   1.858   1.774   1.247 -0.1252 -1.7336  0.9987
 7761TIP3   OH244697   4.480   6.377  12.596  0.5595  0.0516  0.2312
 7761TIP3    H144698   4.534   6.377  12.517  1.4631 -3.0742  0.7872
 7761TIP3    H244699   4.395   6.346  12.566  0.5854 -0.0671  0.2799
 7762TIP3   OH244700   5.800   5.160  12.144  0.0903 -0.0046 -1.0789
 7762TIP3    H144701   5.832   5.182  12.057  3.9176  0.9603  0.4940
 7762TIP3    H244702   5.828   5.233  12.199 -0.6002 -1.5009  1.3267
 7763TIP3   OH244703   4.120   1.465   1.518 -0.2587  0.1260  0.3813
 7763TIP3    H144704   4.215   1.468   1.506 -0.4671  0.9749 -1.1525
 7763TIP3    H244705   4.108   1.407   1.594  1.4365 -0.6918  0.0663
 7764TIP3   OH244706   6.252   3.427  16.058  0.5369  0.3397 -0.0692
 7764TIP3    H144707   6.284   3.508  16.019 -1.7196  1.2197 -0.1678
 7764TIP3    H244708   6.288   3.358  16.002 -0.3361  1.4538 -2.0473
 7765TIP3   OH244709   2.075   4.069   2.900 -0.5056 -0.2556 -0.1071
 7765TIP3    H144710   1.988   4.032   2.912  0.7365 -3.2933 -0.0319
 7765TIP3    H244711   2.114   4.067   2.987  0.0663 -0.0217 -0.3574
 7766TIP3   OH244712   2.301   3.831  16.277  0.3208 -0.1921 -0.3519
 7766TIP3    H144713   2.359   3.899  16.242 -0.8179  0.1227 -1.6914
 7766TIP3    H244714   2.231   3.880  16.320 -0.4509 -0.5058 -1.2388
 7767TIP3   OH244715   2.238   4.075   5.631 -0.5187 -0.1217 -0.1251
 7767TIP3    H144716   2.257   4.017   5.557  0.1454 -0.6784  0.4654
 7767TIP3    H244717   2.216   4.015   5.703  1.8627  0.2400  0.9747
 7768TIP3   OH244718   5.810   1.060   0.909  0.3149 -0.2943 -0.7073
 7768TIP3    H144719   5.763   1.032   0.829  2.8207 -1.5105 -1.8080
 7768TIP3    H244720   5.842   0.978   0.947  2.0232  0.5562 -0.2873
 7769TIP3   OH244721   1.362   2.347   3.392  0.1440 -0.0886  0.4869
 7769TIP3    H144722   1.448   2.311   3.368  0.9398  1.8559  0.3870
 7769TIP3    H244723   1.305   2.320   3.319  1.0577  0.0975 -0.3130
 7770TIP3   OH244724   1.563   0.654   5.071 -0.9137  0.3585 -0.0040
 7770TIP3    H144725   1.592   0.623   4.985  0.2334  0.1783  0.4453
 7770TIP3    H244726   1.606   0.739   5.082 -0.5941  0.1141  0.6447
 7771TIP3   OH244727   1.189   1.860  12.977 -0.1118 -0.8162 -0.1945
 7771TIP3    H144728   1.214   1.920  13.048  1.8605 -0.7025 -0.9358
 7771TIP3    H244729   1.170   1.918  12.903  0.2016 -1.0263 -0.4423
 7772TIP3   OH244730   3.522   5.802   1.512 -0.2056 -0.5650 -0.1333
 7772TIP3    H144731   3.474   5.821   1.593 -1.4443  0.8718 -1.1579
 7772TIP3    H244732   3.453   5.800   1.445  1.0199  0.1478 -1.4260
 7773TIP3   OH244733   1.312   3.384  13.354 -0.0035 -0.2394  0.1225
 7773TIP3    H144734   1.273   3.471  13.339 -0.4176 -0.9474 -3.2980
 7773TIP3    H244735   1.252   3.324  13.310  0.6803 -2.2213  1.8436
 7774TIP3   OH244736   0.118   1.864  13.015  0.1069 -0.1588  0.0407
 7774TIP3    H144737   0.195   1.894  13.063  0.3643 -0.4062 -0.2204
 7774TIP3    H244738   0.121   1.769  13.021 -0.0574 -0.1783 -0.1623
 7775TIP3   OH244739   4.643   5.416   0.953 -0.3508 -0.0040 -0.2135
 7775TIP3    H144740   4.585   5.457   1.016 -0.7607 -1.3669  0.2972
 7775TIP3    H244741   4.637   5.472   0.875 -0.5492  1.1532  0.6316
 7776TIP3   OH244742   3.768   2.192  12.162  0.4782 -0.0554  0.1424
 7776TIP3    H144743   3.757   2.286  12.145  1.2746  0.1826  0.9156
 7776TIP3    H244744   3.703   2.150  12.106 -1.3486  1.0729  1.3666
 7777TIP3   OH244745   5.700   2.818   5.293 -0.2492 -0.6317  0.0571
 7777TIP3    H144746   5.731   2.799   5.382 -1.8301  2.0770  1.2573
 7777TIP3    H244747   5.656   2.737   5.265 -0.5171 -1.2345  2.1196
 7778TIP3   OH244748   1.665   0.630   0.283  0.0991  0.3379 -0.6350
 7778TIP3    H144749   1.678   0.667   0.196 -0.7742  0.3590 -0.7634
 7778TIP3    H244750   1.723   0.554   0.286  0.1376  0.3427 -1.2299
 7779TIP3   OH244751   1.026   2.263  16.622 -0.0948  0.5442  0.3224
 7779TIP3    H144752   1.095   2.329  16.636 -0.4642  1.4411 -1.7698
 7779TIP3    H244753   1.069   2.179  16.639  0.9486  1.2122  1.0557
 7780TIP3   OH244754   5.123   3.328   4.745 -0.1378  0.2113  0.1051
 7780TIP3    H144755   5.100   3.292   4.660 -1.6448  2.2430 -0.3943
 7780TIP3    H244756   5.191   3.393   4.726  0.5305 -0.3214  0.6374
 7781TIP3   OH244757   1.303   0.716   4.508 -0.2415 -0.0472 -0.1619
 7781TIP3    H144758   1.298   0.756   4.594 -4.3330  1.3665 -0.9407
 7781TIP3    H244759   1.291   0.622   4.524 -3.0453  0.4300  0.6706
 7782TIP3   OH244760   3.850   2.043  12.370  0.6483  0.3880 -0.2867
 7782TIP3    H144761   3.900   1.975  12.325 -0.4804 -0.8005  0.2350
 7782TIP3    H244762   3.800   2.086  12.300  1.3103  0.6414 -0.6064
 7783TIP3   OH244763   0.947   5.449   3.702  0.0795 -0.5546  0.2804
 7783TIP3    H144764   0.896   5.529   3.705  0.9720 -0.0095  1.0396
 7783TIP3    H244765   0.897   5.386   3.754 -0.4155 -0.3782  0.0188
 7784TIP3   OH244766   3.083   5.048  13.298  0.1575  0.2429 -0.1562
 7784TIP3    H144767   3.015   5.074  13.360  0.6974  0.1863  0.4663
 7784TIP3    H244768   3.059   4.960  13.270 -0.1969  0.3476 -0.1748
 7785TIP3   OH244769   4.672   0.468   5.828 -0.2977 -0.0215  0.1019
 7785TIP3    H144770   4.613   0.530   5.870  1.1731  2.2870 -1.1434
 7785TIP3    H244771   4.746   0.459   5.889 -1.3434 -2.0217  1.1304
 7786TIP3   OH244772   4.609   3.806   1.750 -0.0703 -0.0106  0.3018
 7786TIP3    H144773   4.663   3.744   1.799  0.2277  1.0595  1.3341
 7786TIP3    H244774   4.537   3.827   1.808 -0.9302 -0.4576 -0.5922
 7787TIP3   OH244775   1.300   2.645  12.434 -0.8812 -0.0157  0.5736
 7787TIP3    H144776   1.229   2.675  12.377 -0.6231  0.0398  0.2838
 7787TIP3    H244777   1.284   2.551  12.443 -1.2047  0.0620  0.8054
 7788TIP3   OH244778   4.883   0.874  15.172  0.1152 -0.6891 -0.1906
 7788TIP3    H144779   4.944   0.947  15.182  0.6885 -1.2077  0.1143
 7788TIP3    H244780   4.894   0.822  15.252 -2.2516  0.3492  0.8442
 7789TIP3   OH244781   4.981   6.537   5.368  0.6590  0.0049  0.3126
 7789TIP3    H144782   5.055   6.559   5.424  1.3737  0.9826 -0.9585
 7789TIP3    H244783   5.020   6.495   5.292 -0.2780 -1.1913  0.4856
 7790TIP3   OH244784   5.377   3.998   4.293  0.1351 -0.6732 -0.2491
 7790TIP3    H144785   5.357   3.921   4.240 -0.4723 -1.3043  0.8806
 7790TIP3    H244786   5.304   4.004   4.356  0.8052  0.0944  0.4727
 7791TIP3   OH244787   1.924   6.147   2.296  0.0598  0.2582 -0.0930
 7791TIP3    H144788   1.963   6.191   2.221  0.2547  0.9791  0.4313
 7791TIP3    H244789   1.991   6.083   2.323 -0.0961 -0.1443 -0.6600
 7792TIP3   OH244790   4.873   2.291   0.476 -0.1045  0.4061 -0.1301
 7792TIP3    H144791   4.914   2.254   0.398 -0.7841  1.4981 -1.0067
 7792TIP3    H244792   4.944   2.339   0.520  0.0756  0.4903 -0.5099
 7793TIP3   OH244793   5.096   0.493   0.517 -0.0274  0.3802 -0.0502
 7793TIP3    H144794   5.009   0.529   0.504  0.0655  0.8449  0.5893
 7793TIP3    H244795   5.152   0.541   0.456 -0.3238 -0.3586 -0.9172
 7794TIP3   OH244796   6.714   5.808   2.794 -0.1182 -0.2287  0.1605
 7794TIP3    H144797   6.773   5.843   2.727 -0.6410 -1.1006 -0.7790
 7794TIP3    H244798   6.672   5.733   2.751 -1.5242  0.0725  0.9932
 7795TIP3   OH244799   4.350   4.256   2.825  0.1697  0.0968 -0.0528
 7795TIP3    H144800   4.310   4.335   2.789 -0.9775 -0.5053 -0.1624
 7795TIP3    H244801   4.334   4.262   2.919  1.4994  0.7658  0.1302
 7796TIP3   OH244802   4.315   5.314  14.333  0.5394 -0.2296  0.3842
 7796TIP3    H144803   4.282   5.321  14.422  1.1353  0.9387  0.5137
 7796TIP3    H244804   4.366   5.233  14.333  0.7342 -0.1104  1.1640
 7797TIP3   OH244805   1.862   5.885   3.810  0.4500  0.4735 -0.2823
 7797TIP3    H144806   1.956   5.889   3.828  0.7352 -1.6701 -1.1480
 7797TIP3    H244807   1.851   5.936   3.730  1.2285 -1.0332 -1.3782
 7798TIP3   OH244808   3.712   6.438   1.776  0.4552 -0.2491  0.1271
 7798TIP3    H144809   3.699   6.374   1.845  0.1326 -0.0581  0.2428
 7798TIP3    H244810   3.680   6.521   1.812  1.7222  0.1659  0.3075
 7799TIP3   OH244811   3.861   4.858   3.953 -0.2309 -0.4189  0.1221
 7799TIP3    H144812   3.859   4.937   4.008 -2.2551  0.8410 -1.6683
 7799TIP3    H244813   3.770   4.826   3.954  0.3283 -2.0719 -0.1096
 7800TIP3   OH244814   0.220   6.271  12.128 -0.3125 -0.1896 -0.4279
 7800TIP3    H144815   0.292   6.331  12.110  0.3672 -0.7108  0.5215
 7800TIP3    H244816   0.155   6.324  12.173  0.0855 -0.0602 -0.0101
 7801TIP3   OH244817   5.327   6.487   1.059 -0.1325 -0.0995  0.4326
 7801TIP3    H144818   5.321   6.544   1.135  0.0739 -2.1001  1.9837
 7801TIP3    H244819   5.406   6.516   1.013 -1.0781  2.0906  0.1335
 7802TIP3   OH244820   2.344   2.756   5.554 -0.5840 -0.1356  0.0471
 7802TIP3    H144821   2.351   2.707   5.635  1.3067  0.2645  0.1500
 7802TIP3    H244822   2.383   2.841   5.574 -2.8191  1.0351 -0.4383
 7803TIP3   OH244823   2.295   5.626  12.085  0.2121 -0.6874 -0.7395
 7803TIP3    H144824   2.279   5.581  12.169 -0.8676 -1.1854 -1.2035
 7803TIP3    H244825   2.209   5.656  12.058  0.8249  1.0441 -0.8068
 7804TIP3   OH244826   6.177   0.021  11.614  0.5758 -0.1668  0.5705
 7804TIP3    H144827   6.110   0.044  11.678 -0.2249 -0.3638 -0.1872
 7804TIP3    H244828   6.187  -0.073  11.622 -0.0059 -0.2855 -0.0480
 7805TIP3   OH244829   4.683   3.984   3.716 -0.1479  0.1862  0.2003
 7805TIP3    H144830   4.693   3.899   3.758 -0.1443 -0.8241 -1.7857
 7805TIP3    H244831   4.632   3.966   3.637  2.0211  1.5756 -1.5833
 7806TIP3   OH244832   5.911   2.042  13.898  0.1882 -0.6534  0.0847
 7806TIP3    H144833   5.983   1.982  13.874  0.1279 -0.3696 -0.8181
 7806TIP3    H244834   5.835   1.985  13.908 -0.3949 -0.5251 -2.9737
 7807TIP3   OH244835   5.083   1.543  15.053  0.2010 -0.2058 -0.0261
 7807TIP3    H144836   5.099   1.636  15.070  1.6253 -0.3053 -0.7082
 7807TIP3    H244837   5.166   1.501  15.074 -0.2846 -1.2606 -0.2080
 7808TIP3   OH244838   3.313   5.511   1.543 -0.1830 -0.3262  0.5122
 7808TIP3    H144839   3.285   5.602   1.538 -1.4521 -0.7338  0.1733
 7808TIP3    H244840   3.277   5.479   1.626 -2.4360 -1.4117 -0.8464
 7809TIP3   OH244841   6.280   5.468  11.086 -0.2527 -0.0872  0.8668
 7809TIP3    H144842   6.365   5.447  11.048  0.0376  2.1207  0.2016
 7809TIP3    H244843   6.234   5.385  11.091  1.5266 -1.1327  0.1791
 7810TIP3   OH244844   2.784   6.253  17.143 -0.2423  0.3850 -0.2911
 7810TIP3    H144845   2.721   6.325  17.141 -0.5171  0.1893  1.0391
 7810TIP3    H244846   2.734   6.178  17.175  0.3462 -0.1048 -0.5072
 7811TIP3   OH244847   3.241   4.912  16.117  0.0816 -0.0519  0.4245
 7811TIP3    H144848   3.161   4.929  16.067 -0.4171 -0.4996  1.0670
 7811TIP3    H244849   3.267   4.998  16.150  0.4211  0.2468 -0.6134
 7812TIP3   OH244850   6.357   0.859   5.500  0.5801  0.1017 -0.1727
 7812TIP3    H144851   6.353   0.832   5.592  1.5564  0.1596 -0.1131
 7812TIP3    H244852   6.381   0.779   5.453 -4.5638 -1.1861 -0.9782
 7813TIP3   OH244853   0.184   5.608   1.269 -0.4452  1.1005  0.2691
 7813TIP3    H144854   0.175   5.682   1.207 -1.0201  0.0676 -0.9036
 7813TIP3    H244855   0.107   5.615   1.325 -0.9056  0.9402 -0.3378
 7814TIP3   OH244856   2.112   0.399   0.290 -0.8936  0.3564 -0.0725
 7814TIP3    H144857   2.117   0.315   0.335 -0.5720 -0.5368 -1.7226
 7814TIP3    H244858   2.203   0.428   0.282 -0.8925  0.2068 -0.6704
 7815TIP3   OH244859   0.356   4.360   1.934 -0.2000  0.1358  0.6453
 7815TIP3    H144860   0.301   4.283   1.951  0.1644 -0.2532  0.0790
 7815TIP3    H244861   0.446   4.327   1.943  0.0286 -0.1439 -2.1785
 7816TIP3   OH244862   4.374   5.485   5.120 -0.2862 -0.2786 -0.6752
 7816TIP3    H144863   4.285   5.521   5.124 -0.5602 -1.0489  0.4612
 7816TIP3    H244864   4.406   5.490   5.210  1.2232  0.9415 -1.2494
 7817TIP3   OH244865   0.816   6.278   1.324  0.3073  0.5671 -0.4107
 7817TIP3    H144866   0.731   6.237   1.340  0.6516  0.0125  0.0122
 7817TIP3    H244867   0.821   6.349   1.388  1.3124 -1.1077  1.4376
 7818TIP3   OH244868   6.185   5.134   5.456 -0.0361 -0.0662 -0.4796
 7818TIP3    H144869   6.263   5.139   5.401 -0.3486  1.9764 -0.7754
 7818TIP3    H244870   6.113   5.122   5.395 -0.1812  0.2610 -0.3750
 7819TIP3   OH244871   2.630   4.650   3.846 -0.0520  0.1761 -0.2091
 7819TIP3    H144872   2.558   4.586   3.836 -0.3322  0.7028 -1.7907
 7819TIP3    H244873   2.588   4.727   3.884 -0.0142 -0.0444  0.2869
 7820TIP3   OH244874   0.790   2.667   2.045  0.5602 -0.4263  0.2083
 7820TIP3    H144875   0.875   2.623   2.046  1.2736  0.9240  0.1597
 7820TIP3    H244876   0.781   2.705   2.133  1.0992  1.4574 -0.5232
 7821TIP3   OH244877   2.820   1.977  16.204  0.5349 -0.6431 -0.0184
 7821TIP3    H144878   2.810   2.073  16.201  0.2253 -0.6987 -0.7049
 7821TIP3    H244879   2.860   1.954  16.121  1.2586 -1.0476  0.4327
 7822TIP3   OH244880   2.235   6.764   3.913  0.0211  0.1895 -0.2348
 7822TIP3    H144881   2.196   6.682   3.946 -0.4230 -0.4427 -2.2481
 7822TIP3    H244882   2.314   6.776   3.966 -0.3910 -1.0520  0.6956
 7823TIP3   OH244883   4.685   0.694   1.739  0.6736 -0.1798  0.4400
 7823TIP3    H144884   4.699   0.638   1.815  0.4835 -0.2457  0.4255
 7823TIP3    H244885   4.773   0.703   1.700  0.5628 -1.1872 -0.0605
 7824TIP3   OH244886   5.333   1.295  15.833  0.0537 -0.1542 -0.1993
 7824TIP3    H144887   5.297   1.327  15.750 -0.5344 -0.1627  0.0478
 7824TIP3    H244888   5.416   1.342  15.843  0.2296 -0.3027 -0.8907
 7825TIP3   OH244889   0.951   2.717  12.889  0.3795 -0.1980  0.0934
 7825TIP3    H144890   0.919   2.802  12.857 -3.6867 -0.9117  1.9074
 7825TIP3    H244891   0.923   2.655  12.821  1.3581 -0.3667 -0.1548
 7826TIP3   OH244892   0.112   5.815  16.564 -0.5822 -0.0603 -0.0598
 7826TIP3    H144893   0.095   5.807  16.470 -0.4347  1.2526 -0.2064
 7826TIP3    H244894   0.027   5.837  16.602 -1.3443 -3.7092  0.5573
 7827TIP3   OH244895   2.749   2.293   1.849  0.0693  0.1979 -0.0457
 7827TIP3    H144896   2.796   2.238   1.912  1.0964  0.5140 -0.5235
 7827TIP3    H244897   2.815   2.352   1.814 -0.6897  0.6600 -0.7317
 7828TIP3   OH244898   0.287   1.529  11.331 -0.0047  0.0265 -0.2432
 7828TIP3    H144899   0.283   1.459  11.266  2.7049 -1.6915  1.3532
 7828TIP3    H244900   0.230   1.499  11.402  2.2073 -1.2482  1.0328
 7829TIP3   OH244901   4.682   0.244   6.085 -0.3546 -0.5587 -0.0646
 7829TIP3    H144902   4.655   0.327   6.126  0.5342 -0.2404 -0.1116
 7829TIP3    H244903   4.773   0.232   6.114  0.4305 -0.1088 -2.2737
 7830TIP3   OH244904   0.308   6.038  16.748  0.4578  0.3919  0.4794
 7830TIP3    H144905   0.345   6.034  16.836 -0.2660  0.5213  0.7930
 7830TIP3    H244906   0.268   6.124  16.742 -1.4907 -0.4648  0.8297
 7831TIP3   OH244907   0.294   5.549   5.372 -0.3538  0.1850 -0.7559
 7831TIP3    H144908   0.331   5.576   5.288 -2.0184  1.2475 -1.1630
 7831TIP3    H244909   0.220   5.492   5.349 -0.2547 -0.2641  0.0020
 7832TIP3   OH244910   3.087   3.058  13.098 -0.1953  0.2948  0.3468
 7832TIP3    H144911   3.170   3.015  13.079  0.2814  1.1639  0.4565
 7832TIP3    H244912   3.022   3.005  13.052  0.3054 -0.9042  0.9787
 7833TIP3   OH244913   1.166   2.924  16.251 -0.2212 -0.1392  0.3745
 7833TIP3    H144914   1.237   2.955  16.194 -0.2145 -1.7730 -0.5365
 7833TIP3    H244915   1.088   2.970  16.218  0.1033  0.3341  0.2531
 7834TIP3   OH244916   0.233   0.526  15.477 -0.4106  0.8953  0.4447
 7834TIP3    H144917   0.246   0.608  15.429  0.9955  0.0623 -0.6277
 7834TIP3    H244918   0.303   0.468  15.446 -1.5470 -0.8146  0.9799
 7835TIP3   OH244919   2.579   6.323   2.715 -0.2867  0.5213  0.0710
 7835TIP3    H144920   2.660   6.309   2.765 -1.7355 -0.4598  2.2254
 7835TIP3    H244921   2.584   6.261   2.643  0.1882 -0.6297  1.0856
 7836TIP3   OH244922   2.330   6.408  12.121 -0.3567 -0.7316  0.4629
 7836TIP3    H144923   2.275   6.330  12.109 -0.5514 -0.8669  2.1299
 7836TIP3    H244924   2.417   6.372  12.139 -0.0888 -0.5327 -0.3933
 7837TIP3   OH244925   6.630   1.403   0.415  0.4062  0.2127 -0.0505
 7837TIP3    H144926   6.724   1.408   0.427  0.2593  0.9578  0.8352
 7837TIP3    H244927   6.613   1.458   0.338  0.6094  0.7612  0.2883
 7838TIP3   OH244928   5.681   2.147  16.328  0.0211 -0.8399 -0.7170
 7838TIP3    H144929   5.723   2.178  16.409  1.0194  0.8636 -1.8738
 7838TIP3    H244930   5.656   2.056  16.348  1.2591 -0.8062  1.1242
 7839TIP3   OH244931   2.404   4.987  15.214  0.5911  0.1443  0.3232
 7839TIP3    H144932   2.384   4.907  15.264  0.3977  1.2044  1.9700
 7839TIP3    H244933   2.456   4.956  15.140  1.5806 -1.3944  1.6183
 7840TIP3   OH244934   5.786   5.205  16.118 -0.4145  0.2854  0.5456
 7840TIP3    H144935   5.703   5.253  16.120 -0.3381  0.4899 -0.6493
 7840TIP3    H244936   5.853   5.273  16.111 -0.2464  0.0602 -0.1076
 7841TIP3   OH244937   2.897   6.224  13.900 -0.3724  0.0378 -0.7184
 7841TIP3    H144938   2.983   6.184  13.908 -0.5184  0.1562  2.3475
 7841TIP3    H244939   2.912   6.318  13.912 -0.7437  0.2472 -1.8167
 7842TIP3   OH244940   3.219   1.808   4.988 -0.0542 -0.2092  0.0461
 7842TIP3    H144941   3.313   1.794   5.001 -0.0702 -0.2443  0.1220
 7842TIP3    H244942   3.208   1.903   4.991  0.1013 -0.1605 -0.7880
 7843TIP3   OH244943   6.040   3.621   1.553  0.6333  0.0871 -0.0411
 7843TIP3    H144944   6.096   3.699   1.553  0.3252  0.3131  0.8664
 7843TIP3    H244945   6.031   3.599   1.460  1.7114  0.4131 -0.2351
 7844TIP3   OH244946   4.546   2.613  15.388  0.4938 -0.0602 -0.5080
 7844TIP3    H144947   4.470   2.566  15.354  0.9499 -0.1689 -1.3857
 7844TIP3    H244948   4.519   2.705  15.386 -0.1675 -0.2242  0.6170
 7845TIP3   OH244949   3.748   4.030   4.035 -0.2888 -0.0695 -0.0201
 7845TIP3    H144950   3.679   3.985   4.084 -0.3068 -1.3134 -1.1358
 7845TIP3    H244951   3.809   3.960   4.012 -0.5590  0.3797 -2.2100
 7846TIP3   OH244952   4.481   6.583   5.040  0.0161 -0.3123  0.3414
 7846TIP3    H144953   4.552   6.599   4.978  0.2124 -2.2760  0.0336
 7846TIP3    H244954   4.402   6.608   4.992  0.4344  1.3710  0.4977
 7847TIP3   OH244955   2.239   4.008   1.259 -0.1103 -0.1166  0.1258
 7847TIP3    H144956   2.233   4.103   1.247  1.7166 -0.1160 -1.0341
 7847TIP3    H244957   2.234   3.973   1.170 -1.1174 -1.1419  0.5809
 7848TIP3   OH244958   2.103   1.716   1.483 -0.6477 -0.2504 -1.0657
 7848TIP3    H144959   2.148   1.634   1.465 -0.4744 -0.0754 -1.4508
 7848TIP3    H244960   2.079   1.749   1.396  1.5821  1.4003 -1.0989
 7849TIP3   OH244961   1.805   4.410  11.933  0.4221  0.1143 -0.2645
 7849TIP3    H144962   1.833   4.388  11.844  1.5906  0.1948  0.0704
 7849TIP3    H244963   1.825   4.503  11.942 -0.9784  0.4273 -0.3892
 7850TIP3   OH244964   5.213   5.142  14.497  0.2013  0.0966  0.0194
 7850TIP3    H144965   5.305   5.158  14.514 -0.0277  0.8707  0.5525
 7850TIP3    H244966   5.207   5.130  14.402  1.0402 -1.2411  0.1308
 7851TIP3   OH244967   1.559   1.681   3.621  0.3176 -0.2959 -0.3842
 7851TIP3    H144968   1.624   1.746   3.648 -0.2992 -0.1149  0.6994
 7851TIP3    H244969   1.535   1.708   3.532  2.0134 -0.6122 -0.9548
 7852TIP3   OH244970   3.894   0.097  15.303  0.1980 -0.0041  0.5036
 7852TIP3    H144971   3.903   0.054  15.388  2.0984 -0.2527  0.1912
 7852TIP3    H244972   3.897   0.191  15.323  2.2294 -0.0549  0.5916
 7853TIP3   OH244973   5.788   2.899   4.802 -0.5002  0.1210 -0.2326
 7853TIP3    H144974   5.789   2.987   4.841  1.8046  0.4743 -1.0263
 7853TIP3    H244975   5.710   2.857   4.840 -2.2201  2.8256 -0.5860
 7854TIP3   OH244976   5.210   0.315  13.476 -0.5944 -0.0406 -0.0043
 7854TIP3    H144977   5.225   0.244  13.413  0.7739 -0.2386  0.5175
 7854TIP3    H244978   5.207   0.394  13.424  1.5492 -0.0909 -0.2346
 7855TIP3   OH244979   1.022   1.892  12.079 -0.5930  0.0094 -0.2192
 7855TIP3    H144980   1.038   1.964  12.140  0.0115  0.5019 -0.9484
 7855TIP3    H244981   1.063   1.816  12.121  0.9144  0.6021 -0.5844
 7856TIP3   OH244982   1.728   1.735  12.088  0.0046 -0.0813 -0.4253
 7856TIP3    H144983   1.671   1.806  12.117  0.1861  0.1747 -0.6928
 7856TIP3    H244984   1.701   1.719  11.997 -0.1631 -0.4769 -0.3052
 7857TIP3   OH244985   4.602   0.757   6.529 -0.1925  0.4939 -0.1193
 7857TIP3    H144986   4.523   0.807   6.549  0.2169  0.8444  0.6509
 7857TIP3    H244987   4.668   0.824   6.509 -0.1516  0.1973 -0.9650
 7858TIP3   OH244988   1.563   6.697  12.555 -0.6182 -0.1351  0.4631
 7858TIP3    H144989   1.570   6.792  12.553  0.6868 -0.2445 -1.4828
 7858TIP3    H244990   1.652   6.666  12.571 -1.3448 -1.0154  3.0800
 7859TIP3   OH244991   4.719   1.212  14.370  0.2365 -0.0552  0.2703
 7859TIP3    H144992   4.709   1.132  14.421  1.5438 -0.1439  0.4230
 7859TIP3    H244993   4.788   1.192  14.306  0.5981  0.9364  0.3243
 7860TIP3   OH244994   4.445   2.468  15.686 -0.1166  0.6130 -0.2082
 7860TIP3    H144995   4.406   2.434  15.767  0.1552  0.9578  0.0667
 7860TIP3    H244996   4.513   2.527  15.715  1.0063 -0.4209 -0.6984
 7861TIP3   OH244997   6.550   4.122   2.312 -0.5770  0.5093  0.0287
 7861TIP3    H144998   6.498   4.042   2.315 -1.0421  0.8084 -0.0467
 7861TIP3    H244999   6.621   4.107   2.375 -0.6238  0.0134 -0.0378
 7862TIP3   OH245000   2.870   5.373   5.549 -0.2048  0.4801  0.1679
 7862TIP3    H145001   2.786   5.377   5.503 -0.0679 -0.9375 -0.2219
 7862TIP3    H245002   2.847   5.378   5.641 -0.5826  1.8590  0.0231
 7863TIP3   OH245003   1.159   6.290  12.456 -0.0146  0.0318 -0.0202
 7863TIP3    H145004   1.132   6.356  12.393  0.6242 -0.7843 -1.1710
 7863TIP3    H245005   1.085   6.229  12.460  0.3789 -0.5091 -0.8193
 7864TIP3   OH245006   4.813   5.091   4.573 -0.3233  0.2349 -0.5212
 7864TIP3    H145007   4.855   5.135   4.646 -0.7364  0.7321 -0.5812
 7864TIP3    H245008   4.771   5.161   4.523 -0.5157 -0.1606 -0.9211
 7865TIP3   OH245009   6.563   5.117   3.381 -0.5906  0.0431 -0.3005
 7865TIP3    H145010   6.643   5.066   3.383  0.5728  1.8219  1.5464
 7865TIP3    H245011   6.558   5.156   3.469 -3.9752 -0.8035 -0.0599
 7866TIP3   OH245012   2.925   4.187   0.127  0.6825 -0.0338  0.2032
 7866TIP3    H145013   2.859   4.242   0.085  0.3752  0.3272  1.1453
 7866TIP3    H245014   2.900   4.098   0.103 -0.9569 -0.0040  1.6463
 7867TIP3   OH245015   6.377   2.914   5.791  0.1852 -0.9177 -0.0211
 7867TIP3    H145016   6.301   2.878   5.837 -0.8403  0.0104 -0.9628
 7867TIP3    H245017   6.414   2.840   5.743 -0.0445 -1.4021  0.5496
 7868TIP3   OH245018   6.486   4.630   2.204 -0.9270  0.7196 -0.0064
 7868TIP3    H145019   6.487   4.644   2.109  0.4249  0.0002 -0.1047
 7868TIP3    H245020   6.463   4.538   2.215  0.2340  0.4622  0.3146
 7869TIP3   OH245021   6.693   6.077  13.820 -0.0605 -0.7989  0.5911
 7869TIP3    H145022   6.728   6.163  13.796 -0.1120 -1.0323 -0.3317
 7869TIP3    H245023   6.751   6.047  13.890  0.8096 -0.6113 -0.0367
 7870TIP3   OH245024   4.544   0.916   1.827 -0.2510  0.4346  0.1367
 7870TIP3    H145025   4.457   0.915   1.866 -0.9085  0.6352 -1.3120
 7870TIP3    H245026   4.564   0.823   1.811 -0.4386  0.4330 -0.0805
 7871TIP3   OH245027   2.696   3.617  15.185  0.1154 -0.2236 -0.2161
 7871TIP3    H145028   2.732   3.562  15.115 -1.1335 -0.1385 -0.9492
 7871TIP3    H245029   2.626   3.564  15.223 -0.1211  0.2728  0.0477
 7872TIP3   OH245030   2.453   5.815   3.426 -0.1540 -0.0420  0.4297
 7872TIP3    H145031   2.547   5.832   3.417 -0.1822 -1.0744 -2.3190
 7872TIP3    H245032   2.411   5.888   3.381 -0.6244 -0.4030  0.2813
 7873TIP3   OH245033   5.245   4.303   0.365  0.3715 -0.3932 -0.4654
 7873TIP3    H145034   5.243   4.235   0.432  1.0878  1.0799  1.0864
 7873TIP3    H245035   5.310   4.273   0.302 -0.2822 -1.7720 -0.4875
 7874TIP3   OH245036   1.705   4.459   1.187 -0.3837  0.6650 -0.4104
 7874TIP3    H145037   1.614   4.435   1.205 -0.5043  1.0131 -0.5615
 7874TIP3    H245038   1.720   4.432   1.096  0.2903 -1.2892  0.2574
 7875TIP3   OH245039   0.931   4.363  16.099  0.3941 -0.2338 -0.0138
 7875TIP3    H145040   0.889   4.435  16.052 -0.3796  0.4690  1.6844
 7875TIP3    H245041   0.971   4.406  16.175  2.9741 -1.0891 -0.8345
 7876TIP3   OH245042   3.413   4.768   3.465 -0.8175 -0.5320  0.2737
 7876TIP3    H145043   3.500   4.751   3.501 -1.2220 -1.7075  0.7123
 7876TIP3    H245044   3.422   4.851   3.418  0.1143  0.1933  1.7214
 7877TIP3   OH245045   5.931   2.525   3.622  0.1075 -0.4010  0.4407
 7877TIP3    H145046   5.954   2.435   3.597 -0.0649 -0.4824  0.5706
 7877TIP3    H245047   5.968   2.535   3.710  2.0090  0.3836 -0.4140
 7878TIP3   OH245048   1.056   2.115   2.602 -0.2798 -0.1847  0.1852
 7878TIP3    H145049   0.983   2.120   2.541 -1.6488  0.5760  1.8272
 7878TIP3    H245050   1.131   2.090   2.549 -1.5691 -0.1620 -1.6750
 7879TIP3   OH245051   0.740   0.324  16.082 -0.1354 -0.3314 -0.0539
 7879TIP3    H145052   0.798   0.305  16.156 -0.7220  1.6995  0.9588
 7879TIP3    H245053   0.737   0.242  16.033  3.1965 -0.6109  0.1304
 7880TIP3   OH245054   5.947   2.040   5.098 -0.3328 -0.5824 -0.5142
 7880TIP3    H145055   5.943   2.033   5.193 -0.5228 -0.6321 -0.5272
 7880TIP3    H245056   6.019   1.981   5.073  0.6464  0.4915 -0.2788
 7881TIP3   OH245057   5.296   3.680  15.861  0.5040  0.0336 -0.5390
 7881TIP3    H145058   5.337   3.656  15.944  0.5320 -0.2671 -0.6378
 7881TIP3    H245059   5.234   3.750  15.884  2.3649  1.7648 -0.6803
 7882TIP3   OH245060   2.788   3.495  16.822 -0.0472  0.0136 -0.3111
 7882TIP3    H145061   2.761   3.414  16.866  0.9424 -1.4298 -2.2786
 7882TIP3    H245062   2.777   3.563  16.889 -3.4922 -1.2831  0.5698
 7883TIP3   OH245063   0.348   5.836  14.672 -0.2108 -0.0050 -0.3455
 7883TIP3    H145064   0.437   5.801  14.677 -0.0186  0.6134  0.6515
 7883TIP3    H245065   0.312   5.820  14.759  0.4877  3.8955  0.7411
 7884TIP3   OH245066   0.023   3.672  14.756  0.0178 -0.1635  0.6957
 7884TIP3    H145067  -0.072   3.663  14.752  0.1066 -1.9667  1.7217
 7884TIP3    H245068   0.037   3.741  14.821 -0.5967  0.9951 -0.3801
 7885TIP3   OH245069   1.976   4.796  11.151  0.2828  0.0637 -0.5129
 7885TIP3    H145070   2.013   4.812  11.238 -1.6818 -0.1924  0.4126
 7885TIP3    H245071   2.041   4.740  11.108  0.6203 -1.0512  1.3421
 7886TIP3   OH245072   2.986   5.307  16.277 -0.1133 -0.1901 -0.4847
 7886TIP3    H145073   2.959   5.349  16.358 -0.0224  1.8488 -1.4846
 7886TIP3    H245074   2.924   5.235  16.265 -0.1139 -0.5232  1.3824
 7887TIP3   OH245075   6.644   2.708  12.453 -0.4705  0.0169 -0.2105
 7887TIP3    H145076   6.609   2.644  12.391  0.9856 -0.3942 -0.6286
 7887TIP3    H245077   6.722   2.743  12.409  0.2711  0.1040  1.1567
 7888TIP3   OH245078   3.540   5.982  10.693 -0.1591  0.2454  0.8587
 7888TIP3    H145079   3.492   5.899  10.699  0.3573 -0.1039  0.1439
 7888TIP3    H245080   3.628   5.957  10.666  0.0154  1.0261  0.6982
 7889TIP3   OH245081   3.890   6.293   0.746 -0.0836  0.2047 -0.3655
 7889TIP3    H145082   3.913   6.207   0.710 -0.2597 -0.1466  0.3564
 7889TIP3    H245083   3.812   6.320   0.696 -0.1611 -0.1539 -0.4405
 7890TIP3   OH245084   2.399   6.519  11.729 -0.3040  0.1667 -0.2052
 7890TIP3    H145085   2.411   6.578  11.803 -1.3138 -0.9130  0.8430
 7890TIP3    H245086   2.305   6.523  11.710 -0.1610 -0.0821 -0.9880
 7891TIP3   OH245087   0.736   5.451   5.442 -0.3997  0.2000  0.2084
 7891TIP3    H145088   0.823   5.418   5.420 -0.7812  0.4339 -1.6995
 7891TIP3    H245089   0.677   5.379   5.423 -1.0906  1.4957 -2.7338
 7892TIP3   OH245090   6.573   6.684  11.286  0.3375  0.5193  0.6374
 7892TIP3    H145091   6.533   6.758  11.331  0.5008  1.0977 -0.1482
 7892TIP3    H245092   6.598   6.719  11.200 -0.8880 -0.8297 -0.2834
 7893TIP3   OH245093   6.071   0.051   5.627  0.2511 -0.0434 -0.0855
 7893TIP3    H145094   6.003  -0.016   5.625  0.3871 -0.1565 -0.8822
 7893TIP3    H245095   6.075   0.078   5.719  0.4918 -1.4289  0.3226
 7894TIP3   OH245096   0.241   6.289  14.126 -0.6800  0.3959  0.7006
 7894TIP3    H145097   0.266   6.254  14.211 -0.4779 -0.9836  0.0865
 7894TIP3    H245098   0.204   6.215  14.079  1.2845  0.5747 -1.2440
 7895TIP3   OH245099   3.821   0.648  17.055  0.0521  0.5762 -0.1596
 7895TIP3    H145100   3.773   0.724  17.023 -0.2416  0.8533  0.9322
 7895TIP3    H245101   3.912   0.678  17.060  0.1573  0.4312 -1.0228
 7896TIP3   OH245102   3.180   5.685  13.476 -0.2570  0.0043 -0.0202
 7896TIP3    H145103   3.276   5.695  13.477 -0.2192 -0.1213 -1.4459
 7896TIP3    H245104   3.148   5.774  13.458 -0.2892 -0.4432 -2.3600
 7897TIP3   OH245105   0.249   4.693  11.098  0.2683  0.4165  0.1396
 7897TIP3    H145106   0.261   4.598  11.109  1.0473  0.1686 -2.5001
 7897TIP3    H245107   0.334   4.730  11.121  0.6419  0.2692 -0.9924
 7898TIP3   OH245108   4.941   3.459   2.570  0.1361 -0.0868  0.0775
 7898TIP3    H145109   4.975   3.496   2.652  3.6238 -0.3966 -1.1582
 7898TIP3    H245110   4.976   3.517   2.502 -0.0494 -1.7113 -1.4119
 7899TIP3   OH245111   3.851   6.676  11.972 -0.9078  0.0897 -0.8784
 7899TIP3    H145112   3.929   6.729  11.960 -1.6691  1.3341 -0.3498
 7899TIP3    H245113   3.812   6.671  11.885 -0.9692  0.6002 -0.8796
 7900TIP3   OH245114   4.612   1.771   2.310  0.6105 -0.3587  0.3723
 7900TIP3    H145115   4.601   1.716   2.387 -0.6736  0.2746  0.6613
 7900TIP3    H245116   4.534   1.754   2.257 -0.1457  1.6797  0.7933
 7901TIP3   OH245117   1.764   5.992  15.052  0.5428  0.1986  0.1148
 7901TIP3    H145118   1.849   5.956  15.078 -0.0619 -0.7575  0.7938
 7901TIP3    H245119   1.750   6.065  15.113  0.5181 -0.1368  0.5138
 7902TIP3   OH245120   5.585   4.444  15.688  0.3131  0.2787 -0.4363
 7902TIP3    H145121   5.570   4.373  15.626  0.6056  0.2484 -0.4753
 7902TIP3    H245122   5.612   4.518  15.633  0.7389  0.2028 -0.3326
 7903TIP3   OH245123   1.189   2.473  16.308 -0.9006 -0.3500 -0.6873
 7903TIP3    H145124   1.270   2.500  16.264 -0.9184  0.8018 -0.0300
 7903TIP3    H245125   1.189   2.378  16.303  0.6346 -0.3686 -0.4496
 7904TIP3   OH245126   2.150   6.701   4.645  0.4085  0.3157  0.3070
 7904TIP3    H145127   2.094   6.682   4.570  1.7079 -2.1169 -0.0799
 7904TIP3    H245128   2.092   6.695   4.720 -0.3783  0.3455 -0.2902
 7905TIP3   OH245129   1.614   5.468  13.507 -0.3213 -0.4347  0.3877
 7905TIP3    H145130   1.601   5.550  13.555  0.7925 -0.0125  0.0019
 7905TIP3    H245131   1.535   5.417  13.524 -0.9923  0.6870  0.6978
 7906TIP3   OH245132   0.613   4.678  10.475  0.7575  0.3989 -0.1228
 7906TIP3    H145133   0.643   4.667  10.385 -0.4379  3.1927 -0.9196
 7906TIP3    H245134   0.561   4.600  10.493  0.1664  0.2789 -2.2143
 7907TIP3   OH245135   6.456   0.859   3.092 -0.0125  0.4971  0.6500
 7907TIP3    H145136   6.407   0.871   3.011 -0.5306 -1.3183  0.6758
 7907TIP3    H245137   6.539   0.819   3.065  0.3096  0.9921  0.8934
 7908TIP3   OH245138   3.613   3.931   1.834  0.3026 -0.2592 -0.0493
 7908TIP3    H145139   3.537   3.944   1.777 -0.6022 -1.1013  0.9187
 7908TIP3    H245140   3.591   3.852   1.884  2.1705 -0.9637 -0.3103
 7909TIP3   OH245141   4.990   1.846  17.027  0.3262  0.1104  0.0476
 7909TIP3    H145142   5.023   1.862  17.116  0.1530  1.8858 -0.1875
 7909TIP3    H245143   5.069   1.828  16.976  0.4651 -0.5301  0.4868
 7910TIP3   OH245144   5.058   2.233   4.798 -0.3774 -0.6083  0.0623
 7910TIP3    H145145   5.062   2.276   4.713  0.6498 -1.4788 -0.3307
 7910TIP3    H245146   5.092   2.298   4.860 -1.1668  0.0383 -0.1809
 7911TIP3   OH245147   5.628   0.270   4.987  0.2481 -0.0402  0.2910
 7911TIP3    H145148   5.633   0.360   5.019  1.3459 -0.3941  1.1505
 7911TIP3    H245149   5.614   0.278   4.893 -0.9852  1.0228  0.5565
 7912TIP3   OH245150   1.399   5.339   4.277 -0.0227 -0.2615 -0.6256
 7912TIP3    H145151   1.435   5.325   4.364 -2.6454  1.4630  0.7971
 7912TIP3    H245152   1.349   5.259   4.258  1.1606 -0.9571 -0.9317
 7913TIP3   OH245153   2.826   6.035   4.096  0.2095 -0.4448  0.0867
 7913TIP3    H145154   2.737   6.068   4.108 -0.3796 -1.9865  0.1086
 7913TIP3    H245155   2.882   6.099   4.139 -0.9891 -0.0430  1.0696
 7914TIP3   OH245156   1.471   6.566  11.904 -0.1888  0.2815  0.4952
 7914TIP3    H145157   1.493   6.495  11.964 -0.0386 -0.4206 -0.3710
 7914TIP3    H245158   1.456   6.522  11.820  1.1102  1.4025 -0.3438
 7915TIP3   OH245159   4.624   3.608  15.720  0.0782  0.7086 -0.5165
 7915TIP3    H145160   4.554   3.641  15.663 -2.1744 -0.1815  1.6884
 7915TIP3    H245161   4.653   3.685  15.769  1.5332  1.3311 -2.3120
 7916TIP3   OH245162   3.716   1.598   5.056 -0.9339  0.3949 -0.2653
 7916TIP3    H145163   3.766   1.595   5.138 -2.3110 -2.2028  0.5519
 7916TIP3    H245164   3.772   1.646   4.995  1.6861 -0.7505  1.1776
 7917TIP3   OH245165   4.480   3.712  11.546  0.1200  0.2054  0.4346
 7917TIP3    H145166   4.550   3.760  11.503 -0.2533  2.8508  2.6365
 7917TIP3    H245167   4.509   3.704  11.637 -1.9368  0.3932  1.1259
 7918TIP3   OH245168   1.907   2.631   0.578 -0.6175 -0.3846 -0.4326
 7918TIP3    H145169   1.891   2.594   0.665  2.2127 -0.0175  0.2901
 7918TIP3    H245170   1.950   2.714   0.595 -0.1563 -0.2425 -2.2032
 7919TIP3   OH245171   1.579   5.994   4.799  0.1865 -0.0284 -0.2051
 7919TIP3    H145172   1.535   5.914   4.828 -1.0707  0.9237  0.5639
 7919TIP3    H245173   1.654   5.963   4.748  0.0132 -1.6908  0.5235
 7920TIP3   OH245174   4.235   5.952   3.069  0.4336 -0.1122  0.6621
 7920TIP3    H145175   4.150   5.916   3.045  0.2611  0.6031  0.1788
 7920TIP3    H245176   4.230   5.965   3.164  0.1459 -0.4191  0.6900
 7921TIP3   OH245177   6.363   0.112   1.396 -0.6134 -0.4356 -0.7978
 7921TIP3    H145178   6.456   0.093   1.407 -0.9899 -1.8513  0.0072
 7921TIP3    H245179   6.359   0.208   1.390  0.8403 -0.3370 -0.4667
 7922TIP3   OH245180   5.120   1.337  13.614  0.2292  0.5927 -0.2256
 7922TIP3    H145181   5.094   1.347  13.522  0.6751  1.1821 -0.2955
 7922TIP3    H245182   5.040   1.353  13.664  0.2065  1.3015 -0.4794
 7923TIP3   OH245183   0.145   1.732  15.971 -0.6303  0.3208 -0.4920
 7923TIP3    H145184   0.196   1.811  15.988  0.1072 -0.2044 -0.2677
 7923TIP3    H245185   0.121   1.739  15.878 -1.4014  1.2806 -0.2385
 7924TIP3   OH245186   1.411   0.222   2.992  0.4699 -0.0833  0.0171
 7924TIP3    H145187   1.365   0.139   3.007 -0.0539  0.1031 -0.5397
 7924TIP3    H245188   1.504   0.198   2.994  0.3049 -0.9095 -1.4065
 7925TIP3   OH245189   6.584   5.543   0.247 -0.2513 -0.4119 -0.3810
 7925TIP3    H145190   6.657   5.536   0.310 -0.9466  0.3218  0.5210
 7925TIP3    H245191   6.600   5.473   0.184  2.4179  1.0438 -1.4073
 7926TIP3   OH245192   2.577   2.369   5.563 -0.0353  0.0007 -0.2808
 7926TIP3    H145193   2.562   2.372   5.658 -0.8577 -0.2750 -0.3998
 7926TIP3    H245194   2.662   2.325   5.554  0.0433  0.0173  0.3206
 7927TIP3   OH245195   2.917   3.525   4.364  0.1368 -0.2170  0.3598
 7927TIP3    H145196   2.969   3.536   4.444 -0.4931 -0.3828  0.8001
 7927TIP3    H245197   2.963   3.458   4.314  0.3290 -0.3807  0.7583
 7928TIP3   OH245198   0.198   4.368   1.375 -0.1905 -0.0499  0.1612
 7928TIP3    H145199   0.252   4.397   1.301 -0.1177 -0.5178  0.0258
 7928TIP3    H245200   0.217   4.274   1.382 -0.5492 -0.0971  0.4804
 7929TIP3   OH245201   1.999   5.926  12.643  0.6245  0.6284  0.2710
 7929TIP3    H145202   1.948   5.999  12.677  1.3531  0.7903  1.0434
 7929TIP3    H245203   2.002   5.863  12.715 -1.5838 -1.0171 -1.0235
 7930TIP3   OH245204   0.246   2.548  10.879 -0.3809  0.3720 -0.0360
 7930TIP3    H145205   0.171   2.489  10.886 -0.2767  0.5739  3.8454
 7930TIP3    H245206   0.316   2.494  10.842 -1.0325 -1.2595  1.0447
 7931TIP3   OH245207   2.601   3.147   6.756  0.3573 -0.2305  0.3776
 7931TIP3    H145208   2.682   3.185   6.788  0.5596 -0.1282 -0.2395
 7931TIP3    H245209   2.531   3.202   6.792  0.5307 -0.6745  1.3970
 7932TIP3   OH245210   3.156   4.991   1.672  0.1832  0.1029  0.5601
 7932TIP3    H145211   3.084   4.996   1.735  0.4731  0.2006  0.8885
 7932TIP3    H245212   3.200   5.076   1.680  1.0027 -0.3668  1.1683
 7933TIP3   OH245213   2.157   4.436  16.280  0.0146  0.0939  0.5812
 7933TIP3    H145214   2.134   4.527  16.265  1.3903  0.4079  0.3000
 7933TIP3    H245215   2.174   4.431  16.374 -2.0698 -0.3638  0.9747
 7934TIP3   OH245216   6.436   6.479  12.847  0.0960  0.1833 -0.3496
 7934TIP3    H145217   6.427   6.442  12.759 -1.4436  0.4250 -0.3048
 7934TIP3    H245218   6.381   6.423  12.903  2.9660 -1.4516  0.9266
 7935TIP3   OH245219   5.260   6.018   4.245  0.0684 -0.0004  0.3419
 7935TIP3    H145220   5.345   6.042   4.208  0.1411  1.2585  1.2742
 7935TIP3    H245221   5.208   6.099   4.240 -0.7752 -0.5174  0.5926
 7936TIP3   OH245222   3.625   0.937  16.581 -0.3722  0.6303 -0.0314
 7936TIP3    H145223   3.617   0.863  16.642 -1.7797  0.6909 -0.1273
 7936TIP3    H245224   3.625   1.014  16.638  0.1310  0.5996  0.0073
 7937TIP3   OH245225   5.316   6.271  17.000 -0.8250  0.1469 -0.4892
 7937TIP3    H145226   5.394   6.324  17.015  0.0634 -0.8825 -1.3456
 7937TIP3    H245227   5.253   6.331  16.959 -0.4796  0.9748  0.1913
 7938TIP3   OH245228   5.082   1.044   4.773  0.4678  0.0774  0.1674
 7938TIP3    H145229   5.108   0.971   4.830 -1.4814 -1.3910 -0.7551
 7938TIP3    H245230   4.991   1.062   4.798  0.3814  1.0365 -0.8190
 7939TIP3   OH245231   3.057   3.905  14.412 -0.7052 -0.1700 -0.5509
 7939TIP3    H145232   3.126   3.863  14.361 -1.6633 -0.5200 -1.5925
 7939TIP3    H245233   3.075   3.998  14.403 -1.1131 -0.2028 -1.9325
 7940TIP3   OH245234   0.913   6.102   1.679 -0.1592  0.2850  0.7187
 7940TIP3    H145235   0.876   6.090   1.592  1.5210  0.4353 -0.0354
 7940TIP3    H245236   0.899   6.195   1.698 -0.3830  0.2882  0.5365
 7941TIP3   OH245237   4.314   3.806  10.920  0.1327 -0.9458 -0.1270
 7941TIP3    H145238   4.246   3.776  10.860  0.0103 -1.4572  0.2601
 7941TIP3    H245239   4.311   3.901  10.914 -1.5723 -0.8972  0.9081
 7942TIP3   OH245240   1.312   4.081   6.112 -0.0630 -0.3199 -0.2435
 7942TIP3    H145241   1.395   4.076   6.158 -0.4860  1.4965  0.7587
 7942TIP3    H245242   1.250   4.036   6.169 -0.1980  0.2507  0.0673
 7943TIP3   OH245243   2.298   5.105  12.092  0.7842 -0.2078  0.0435
 7943TIP3    H145244   2.394   5.115  12.092  0.6113  1.7089 -0.8495
 7943TIP3    H245245   2.271   5.136  12.006 -0.7130  0.0081  0.5794
 7944TIP3   OH245246   0.678   3.918  15.784  0.4580  0.4588 -0.6457
 7944TIP3    H145247   0.720   3.857  15.724  1.1520 -1.1428  1.4234
 7944TIP3    H245248   0.741   3.929  15.856 -0.7734  1.5404  0.3023
 7945TIP3   OH245249   1.623   0.992   4.671  0.1032 -0.5219 -0.0874
 7945TIP3    H145250   1.561   1.001   4.599 -1.4531  0.2444  1.3126
 7945TIP3    H245251   1.636   0.898   4.680  0.3032 -0.6140 -1.3686
 7946TIP3   OH245252   0.336   4.109   1.371 -0.0645 -0.1192  0.3917
 7946TIP3    H145253   0.414   4.112   1.315 -0.0810  1.0262  0.4239
 7946TIP3    H245254   0.365   4.068   1.452  0.1479 -1.0628 -0.1491
 7947TIP3   OH245255   1.150   6.061   4.037  0.3964 -0.2598 -0.1966
 7947TIP3    H145256   1.113   5.976   4.058  1.4931 -1.2088 -1.9845
 7947TIP3    H245257   1.075   6.120   4.030 -0.4020 -1.1952  0.4936
 7948TIP3   OH245258   5.547   4.992   2.214 -0.0563  0.4769 -0.0580
 7948TIP3    H145259   5.639   5.011   2.229 -0.2684  1.2131  0.3459
 7948TIP3    H245260   5.515   5.066   2.162 -0.7399  0.9581  1.0073
 7949TIP3   OH245261   3.371   4.886   2.552  0.1086  0.2034  0.2573
 7949TIP3    H145262   3.293   4.940   2.565  0.3282  0.5689  0.0712
 7949TIP3    H245263   3.414   4.925   2.475  0.0087 -0.5364 -0.1747
 7950TIP3   OH245264   5.420   3.733  16.552 -0.4009  0.0275 -0.3179
 7950TIP3    H145265   5.394   3.811  16.602  1.4283  0.2841  0.2473
 7950TIP3    H245266   5.427   3.664  16.618  1.1367  0.1565 -0.3291
 7951TIP3   OH245267   5.846   3.579   2.766  0.3196 -0.6087  0.1418
 7951TIP3    H145268   5.796   3.507   2.727 -0.8168  0.0123  0.4544
 7951TIP3    H245269   5.830   3.653   2.708 -1.9931  0.5326  2.1590
 7952TIP3   OH245270   3.805   3.669   0.574  0.3533 -0.2372 -0.0429
 7952TIP3    H145271   3.718   3.630   0.565 -0.0110  0.1433  1.8052
 7952TIP3    H245272   3.862   3.611   0.523 -0.4851 -2.1915  1.2098
 7953TIP3   OH245273   0.403   2.628   1.733  0.1690 -0.3161 -0.1832
 7953TIP3    H145274   0.320   2.635   1.781  1.3202  0.1003  1.7990
 7953TIP3    H245275   0.377   2.615   1.642 -2.0858  0.5923  0.2941
 7954TIP3   OH245276   2.832   3.782  16.345  0.2566 -0.4126  0.1772
 7954TIP3    H145277   2.914   3.747  16.309  1.1025  2.0638 -0.4583
 7954TIP3    H245278   2.860   3.859  16.395 -1.5603 -0.3090  1.0462
 7955TIP3   OH245279   4.310   3.993   0.351 -0.2376  0.0509  0.0857
 7955TIP3    H145280   4.385   3.952   0.392  0.2438  2.3921  1.6479
 7955TIP3    H245281   4.338   4.013   0.262  0.3083 -0.8256  0.0613
 7956TIP3   OH245282   3.545   2.434  11.289 -0.3084  0.0484  0.0291
 7956TIP3    H145283   3.606   2.371  11.251  0.6013  0.7373  0.3593
 7956TIP3    H245284   3.483   2.453  11.218 -0.9920 -1.7114  0.1204
 7957TIP3   OH245285   2.646   2.182  15.860  0.2108  0.0886 -0.2764
 7957TIP3    H145286   2.645   2.088  15.880 -2.6412 -0.1484 -1.2785
 7957TIP3    H245287   2.661   2.186  15.766 -0.3007  0.6133 -0.3354
 7958TIP3   OH245288   3.015   5.096  12.874 -0.4752  0.8368  0.2406
 7958TIP3    H145289   3.045   5.012  12.909 -0.3121  0.5266 -0.6345
 7958TIP3    H245290   3.087   5.157  12.892  0.6159  0.1445 -1.6632
 7959TIP3   OH245291   2.932   3.120   4.260 -0.6132 -0.0454  0.5980
 7959TIP3    H145292   2.969   3.208   4.246 -2.5631  1.1769  2.8412
 7959TIP3    H245293   2.990   3.080   4.325 -0.8997  0.3747  1.1201
 7960TIP3   OH245294   4.438   5.744  16.769 -0.2510 -0.1145 -0.8266
 7960TIP3    H145295   4.452   5.752  16.864 -0.7258  1.5720 -0.8800
 7960TIP3    H245296   4.496   5.673  16.743  1.1626  0.5200  0.4764
 7961TIP3   OH245297   5.296   0.617   3.992  0.7984  0.1924 -0.3301
 7961TIP3    H145298   5.297   0.572   3.908 -0.1031 -0.1715 -0.1565
 7961TIP3    H245299   5.216   0.670   3.991  0.4115 -0.3455  0.5534
 7962TIP3   OH245300   2.813   2.316   0.735 -0.4854  0.3148 -0.0496
 7962TIP3    H145301   2.776   2.354   0.815  0.7132  1.5417 -0.0680
 7962TIP3    H245302   2.754   2.243   0.714  0.1091 -1.0407  2.8258
 7963TIP3   OH245303   5.687   0.250  16.812 -0.4059  0.7329 -0.3416
 7963TIP3    H145304   5.642   0.207  16.740 -1.1959 -0.4468  0.8410
 7963TIP3    H245305   5.681   0.343  16.792 -2.2274  0.5164 -0.8737
 7964TIP3   OH245306   2.384   6.088   5.880  0.3689  0.2437  0.8242
 7964TIP3    H145307   2.418   6.118   5.964  0.2454 -0.6424  1.1904
 7964TIP3    H245308   2.401   5.994   5.879  0.1429  0.2050 -0.0367
 7965TIP3   OH245309   3.141   2.054  15.479 -0.0634 -0.0631  0.6674
 7965TIP3    H145310   3.113   2.083  15.565  1.7935 -0.1652  1.3334
 7965TIP3    H245311   3.170   1.964  15.492 -1.1691 -0.5898 -0.3766
 7966TIP3   OH245312   2.899   2.221  14.563  0.0661 -0.2501 -0.2908
 7966TIP3    H145313   2.804   2.214  14.573  0.0485 -0.9067 -0.8894
 7966TIP3    H245314   2.930   2.244  14.651 -0.6956  0.5282 -0.2202
 7967TIP3   OH245315   6.340   4.517  17.098  0.0409 -0.8842 -0.6618
 7967TIP3    H145316   6.306   4.576  17.030 -0.0296 -0.5570 -0.3496
 7967TIP3    H245317   6.358   4.575  17.172  0.9841 -1.1030 -0.7158
 7968TIP3   OH245318   1.438   4.865   5.452  0.5985 -0.3416 -0.8159
 7968TIP3    H145319   1.523   4.857   5.408  0.9771 -0.5166 -0.0723
 7968TIP3    H245320   1.408   4.953   5.431  1.6294  0.2444  0.0480
 7969TIP3   OH245321   3.833   3.844   0.355  0.1096  0.3096  0.6597
 7969TIP3    H145322   3.825   3.778   0.424  0.9364  0.6778  1.1178
 7969TIP3    H245323   3.774   3.914   0.381 -1.2663 -0.5297 -0.1641
 7970TIP3   OH245324   1.103   6.122  16.711  0.0493  0.2946 -0.5886
 7970TIP3    H145325   1.085   6.216  16.715  0.1294  0.3503 -1.5050
 7970TIP3    H245326   1.041   6.083  16.774  1.0661  1.0885  0.9212
 7971TIP3   OH245327   5.344   2.051  13.063 -0.2744 -0.0032  0.5938
 7971TIP3    H145328   5.421   2.102  13.039 -0.8553  0.1551 -0.9970
 7971TIP3    H245329   5.303   2.028  12.980 -1.4387 -0.8766  1.3825
 7972TIP3   OH245330   0.279   2.405  13.671 -0.3160  0.0093  0.4178
 7972TIP3    H145331   0.206   2.458  13.638 -0.6994  0.6407  2.2129
 7972TIP3    H245332   0.355   2.435  13.621 -1.0240  0.3812 -0.4468
 7973TIP3   OH245333   4.860   4.950  11.685  0.0576 -0.4812 -0.0715
 7973TIP3    H145334   4.894   4.968  11.597  0.6565 -0.3114  0.1898
 7973TIP3    H245335   4.766   4.944  11.674  0.0198  0.7842 -0.5175
 7974TIP3   OH245336   5.050   2.540   4.850 -0.1935 -0.0223  0.5219
 7974TIP3    H145337   5.108   2.485   4.903 -0.6107 -0.6909  0.2893
 7974TIP3    H245338   4.971   2.487   4.838 -0.8452  0.8863  0.8245
 7975TIP3   OH245339   1.576   4.184  13.124 -0.1942  0.2940 -0.3329
 7975TIP3    H145340   1.575   4.228  13.038  0.4091  2.6854  0.8334
 7975TIP3    H245341   1.607   4.252  13.185  0.8119 -1.7961  1.5546
 7976TIP3   OH245342   6.228   4.145   3.409  0.9067 -0.4112  0.0382
 7976TIP3    H145343   6.206   4.086   3.481 -1.6196  1.5388  0.9474
 7976TIP3    H245344   6.160   4.130   3.344  2.4589 -1.2454 -1.4274
 7977TIP3   OH245345   1.717   6.250   4.795 -0.4757  0.2426 -0.0792
 7977TIP3    H145346   1.680   6.241   4.883  1.0896  0.1905  0.5939
 7977TIP3    H245347   1.678   6.178   4.745 -2.4946  1.1373  0.1577
 7978TIP3   OH245348   2.981   0.500  13.094  0.1672  0.2980  0.1176
 7978TIP3    H145349   2.896   0.460  13.111 -0.5529  1.2974 -0.9965
 7978TIP3    H245350   2.964   0.595  13.097  1.4904  0.5245  1.1153
 7979TIP3   OH245351   2.733   2.183   4.329  0.0087 -0.4437  0.2724
 7979TIP3    H145352   2.658   2.152   4.278  0.4828 -0.2931 -0.5285
 7979TIP3    H245353   2.772   2.251   4.274 -0.2351  0.6469  1.4154
 7980TIP3   OH245354   5.712   5.337   5.765  0.4437  0.2657 -0.0001
 7980TIP3    H145355   5.637   5.329   5.824 -0.5654 -2.2324 -1.5567
 7980TIP3    H245356   5.679   5.385   5.690  0.5666 -0.2817 -0.4065
 7981TIP3   OH245357   3.968   4.739   2.662 -0.6908  0.4040 -0.4213
 7981TIP3    H145358   3.926   4.679   2.600  0.7753 -0.1241 -0.9358
 7981TIP3    H245359   4.057   4.751   2.626 -0.3039  1.2400  0.8000
 7982TIP3   OH245360   3.593   3.890   0.872 -0.1378 -0.1087 -0.6454
 7982TIP3    H145361   3.647   3.821   0.911 -1.4796 -0.4545  0.6619
 7982TIP3    H245362   3.656   3.950   0.832  1.3572  0.4019  2.2898
 7983TIP3   OH245363   3.950   2.835  15.017  0.0411  0.2766 -0.0054
 7983TIP3    H145364   3.983   2.924  15.026  1.9339 -0.5736  1.6659
 7983TIP3    H245365   3.864   2.837  15.058 -0.1704  1.4613 -0.4895
 7984TIP3   OH245366   3.421   1.580  12.127 -0.2386  0.3503 -0.1145
 7984TIP3    H145367   3.409   1.565  12.034 -0.7382 -0.6637  0.1079
 7984TIP3    H245368   3.500   1.635  12.133 -0.8530  1.3660 -1.1845
 7985TIP3   OH245369   6.682   1.761  16.096 -0.2329  0.2095  0.3619
 7985TIP3    H145370   6.775   1.754  16.073  0.0708  0.0473  1.6018
 7985TIP3    H245371   6.636   1.743  16.014  0.8355  0.8718 -0.4076
 7986TIP3   OH245372   3.336   2.453   5.104 -0.1269  0.0816  0.6313
 7986TIP3    H145373   3.246   2.457   5.072  0.1984 -1.6027 -0.5419
 7986TIP3    H245374   3.345   2.530   5.160 -1.7425  1.2330 -0.6597
 7987TIP3   OH245375   4.589   4.668   5.773 -0.2399 -0.6671 -0.1045
 7987TIP3    H145376   4.617   4.760   5.773 -0.6762 -0.5337 -0.7366
 7987TIP3    H245377   4.546   4.656   5.858 -0.9865 -0.0381 -0.3870
 7988TIP3   OH245378   1.553   3.689   6.629 -0.3235 -0.0047  0.2211
 7988TIP3    H145379   1.480   3.696   6.568 -0.1921 -2.7388 -0.3542
 7988TIP3    H245380   1.625   3.734   6.585 -1.1014  0.9117 -0.1370
 7989TIP3   OH245381   0.478   5.947   5.301 -0.4620  0.4854 -0.3364
 7989TIP3    H145382   0.524   6.030   5.286  1.6177 -0.7485 -0.8882
 7989TIP3    H245383   0.546   5.885   5.325 -2.0373 -1.0252  0.3391
 7990TIP3   OH245384   6.250   0.981   4.667  0.8653 -0.2972  0.3892
 7990TIP3    H145385   6.236   1.046   4.598  0.6961 -1.6873 -0.9233
 7990TIP3    H245386   6.167   0.976   4.713  0.5848 -0.2519 -0.1119
 7991TIP3   OH245387   0.901   4.645  14.564  1.0642  0.5098 -0.7211
 7991TIP3    H145388   0.921   4.641  14.657  2.7171  0.2311 -1.0718
 7991TIP3    H245389   0.913   4.737  14.540  0.9214  0.5298 -0.7178
 7992TIP3   OH245390   0.643   2.309   3.676  0.4260 -0.5303 -0.3415
 7992TIP3    H145391   0.711   2.270   3.730  0.7443 -0.2685 -0.5483
 7992TIP3    H245392   0.671   2.400   3.663 -0.7736  0.0470  0.9085
 7993TIP3   OH245393   1.404   5.455  15.207  0.2669 -0.5057  0.1491
 7993TIP3    H145394   1.424   5.529  15.264  0.6071  1.9889 -3.1011
 7993TIP3    H245395   1.310   5.460  15.193  0.1951 -1.0671  0.4188
 7994TIP3   OH245396   6.557   4.237  14.200 -0.1439  0.3983 -0.5084
 7994TIP3    H145397   6.504   4.179  14.145 -0.3813  0.3279 -0.2066
 7994TIP3    H245398   6.564   4.318  14.150  0.5584 -0.0445 -1.1273
 7995TIP3   OH245399   5.052   1.044  13.557 -1.1052  0.5102  0.1146
 7995TIP3    H145400   5.087   1.129  13.584  0.3509 -0.6666  1.9998
 7995TIP3    H245401   5.102   0.980  13.607 -1.8714 -1.5053 -1.6298
 7996TIP3   OH245402   4.878   0.584  16.834  0.3915 -0.6414  0.4539
 7996TIP3    H145403   4.816   0.636  16.884  2.2306 -1.4842  3.7397
 7996TIP3    H245404   4.835   0.499  16.823 -1.1781  0.4125 -1.9328
 7997TIP3   OH245405   2.541   6.761  17.116  0.3579 -0.0794 -0.0742
 7997TIP3    H145406   2.470   6.778  17.055  0.4970 -1.7041 -0.6915
 7997TIP3    H245407   2.607   6.714  17.065  1.5078  0.6288  0.7161
 7998TIP3   OH245408   3.054   6.201   2.134 -0.1756  0.3331  0.2721
 7998TIP3    H145409   3.046   6.180   2.227 -0.2411 -0.4635  0.0875
 7998TIP3    H245410   3.098   6.125   2.096  1.9058  1.5923  0.0399
 7999TIP3   OH245411   1.766   1.818   2.973 -0.0874 -0.2982 -0.0017
 7999TIP3    H145412   1.690   1.824   2.915 -0.7425 -0.0835  0.8777
 7999TIP3    H245413   1.841   1.830   2.915 -0.8087  1.9401 -0.5089
 8000TIP3   OH245414   5.055   4.650   3.476 -0.1945 -0.5458 -0.6981
 8000TIP3    H145415   5.065   4.584   3.545  0.6260  0.6579  0.3587
 8000TIP3    H245416   4.993   4.713   3.513  0.0973 -0.0037 -1.1320
 8001TIP3   OH245417   0.974   0.532   5.424 -0.3261  0.2584  0.0871
 8001TIP3    H145418   1.030   0.601   5.390  1.2184 -1.8625 -1.8102
 8001TIP3    H245419   1.034   0.472   5.468 -1.6064 -0.0525  1.4659
 8002TIP3   OH245420   1.173   4.844   4.652  0.2935  0.0355 -0.0757
 8002TIP3    H145421   1.181   4.818   4.743  0.4125 -0.2876 -0.1783
 8002TIP3    H245422   1.194   4.938   4.651 -0.9966  0.3465  0.4285
 8003TIP3   OH245423   4.772   5.174  15.198 -0.0345 -0.3461  0.2670
 8003TIP3    H145424   4.754   5.212  15.284  0.5412 -1.4169  0.8717
 8003TIP3    H245425   4.864   5.147  15.202 -0.6193 -2.4804  0.1432
 8004TIP3   OH245426   5.727   6.205  16.059 -0.9971  0.4051 -0.4869
 8004TIP3    H145427   5.637   6.203  16.025 -1.6709  0.9875  1.1870
 8004TIP3    H245428   5.722   6.261  16.136  0.9449  0.9225 -0.7161
 8005TIP3   OH245429   0.969   6.053  13.350 -0.2242  0.4081 -0.0395
 8005TIP3    H145430   0.947   6.110  13.277 -0.9843  0.0708 -0.0756
 8005TIP3    H245431   1.062   6.034  13.339 -0.2240  0.7608 -0.6302
 8006TIP3   OH245432   5.258   4.565  12.192 -0.1804 -0.3463  0.0232
 8006TIP3    H145433   5.168   4.588  12.213  0.0898 -0.4694  1.3827
 8006TIP3    H245434   5.273   4.602  12.105 -1.0061  1.1698  0.5006
 8007TIP3   OH245435   0.738   2.500  15.930  0.4269  0.7392 -0.3439
 8007TIP3    H145436   0.788   2.494  16.012  1.2069  1.0970 -0.7890
 8007TIP3    H245437   0.680   2.575  15.942  1.1062  1.2805 -0.4190
 8008TIP3   OH245438   0.837   3.708   6.625 -0.2876 -0.1700  0.2066
 8008TIP3    H145439   0.744   3.691   6.612 -0.1700 -0.9406  0.3957
 8008TIP3    H245440   0.840   3.792   6.671 -0.8822 -0.1295  0.1718
 8009TIP3   OH245441   4.714   4.339  12.053  0.6333 -0.2510 -0.1561
 8009TIP3    H145442   4.632   4.298  12.024  2.4663 -3.5965 -0.9397
 8009TIP3    H245443   4.687   4.413  12.107 -2.9355 -2.6325  1.4792
 8010TIP3   OH245444   5.767   5.701  13.325 -0.1462  0.2608  1.0484
 8010TIP3    H145445   5.690   5.750  13.294  0.3453  0.1604 -0.3663
 8010TIP3    H245446   5.738   5.610  13.329 -0.3474  0.3364  1.3576
 8011TIP3   OH245447   3.216   5.735   4.635 -0.0869  0.5421 -0.0089
 8011TIP3    H145448   3.168   5.741   4.552 -0.2511  1.9746  0.1658
 8011TIP3    H245449   3.209   5.823   4.672  3.0471  0.9196 -0.1820
 8012TIP3   OH245450   5.229   4.020  11.619 -0.3107  0.2304  0.8704
 8012TIP3    H145451   5.148   4.054  11.655 -0.1578  0.6036  0.8584
 8012TIP3    H245452   5.202   3.962  11.548 -0.4904  2.1222 -0.6508
 8013TIP3   OH245453   1.348   5.922   0.477  0.2451  0.3528  0.0776
 8013TIP3    H145454   1.301   6.004   0.460  1.3009  1.2049  1.1418
 8013TIP3    H245455   1.426   5.949   0.525 -0.1155 -1.4368  1.7222
 8014TIP3   OH245456   6.511   6.397  11.995  0.0717 -0.1860  0.0242
 8014TIP3    H145457   6.483   6.338  11.926 -1.6353  0.5361  0.0705
 8014TIP3    H245458   6.549   6.472  11.948 -0.2962 -0.0821 -0.1099
 8015TIP3   OH245459   4.996   0.811   5.114 -0.2927 -0.7094  0.0077
 8015TIP3    H145460   4.995   0.729   5.162 -0.9265 -1.4286 -1.2028
 8015TIP3    H245461   5.089   0.826   5.094  0.0066 -0.2639  1.6488
 8016TIP3   OH245462   2.182   4.875  12.161  0.3904  0.2237 -0.4862
 8016TIP3    H145463   2.201   4.966  12.139  2.6865  0.2365  1.4503
 8016TIP3    H245464   2.234   4.824  12.099  1.0981  0.2423  0.0904
 8017TIP3   OH245465   1.183   6.523  12.304 -0.5259  0.1952  0.4627
 8017TIP3    H145466   1.108   6.583  12.309  0.7859  2.0405 -1.0687
 8017TIP3    H245467   1.241   6.551  12.374  0.0220  0.6433 -0.1624
 8018TIP3   OH245468   5.818   1.223  14.210 -0.8290  0.0749  0.4623
 8018TIP3    H145469   5.851   1.246  14.123 -0.3714  0.2992  0.6927
 8018TIP3    H245470   5.727   1.196  14.195  0.0917 -2.6271 -0.4861
 8019TIP3   OH245471   4.481   3.922  10.620  0.0184  0.0578  0.8428
 8019TIP3    H145472   4.443   4.008  10.603 -0.4893 -0.0827  1.2645
 8019TIP3    H245473   4.509   3.892  10.533 -0.0896  0.5095  0.6470
 8020TIP3   OH245474   3.589   2.212  14.522  0.5263 -0.3679 -0.3290
 8020TIP3    H145475   3.585   2.153  14.597  1.3392  0.7157  0.5887
 8020TIP3    H245476   3.498   2.225  14.495  0.2185 -0.5687  0.6249
 8021TIP3   OH245477   0.321   1.896  10.756  0.1536 -0.2174 -0.6635
 8021TIP3    H145478   0.343   1.984  10.788  0.2383 -0.6170  0.4177
 8021TIP3    H245479   0.235   1.905  10.716 -0.1961  0.2030  0.1666
 8022TIP3   OH245480   1.269   1.764  16.612  0.4051  0.0875  0.1064
 8022TIP3    H145481   1.336   1.743  16.548  0.1372  0.1323 -0.1861
 8022TIP3    H245482   1.297   1.718  16.692  0.0868 -0.9873 -0.3901
 8023TIP3   OH245483   6.328   5.154   0.999  0.1247  0.0083  0.2088
 8023TIP3    H145484   6.281   5.086   0.950 -1.5252  0.2069  1.4545
 8023TIP3    H245485   6.359   5.109   1.078  1.4216  0.0576 -0.2678
 8024TIP3   OH245486   1.154   3.398   2.324 -0.3434 -0.1570 -0.0224
 8024TIP3    H145487   1.085   3.379   2.260 -1.7657 -0.7305  1.6445
 8024TIP3    H245488   1.158   3.493   2.328 -1.8933 -0.0991  0.7171
 8025TIP3   OH245489   3.877   1.814  16.165  0.6278 -0.5735  0.3619
 8025TIP3    H145490   3.905   1.865  16.089  2.2788 -0.2772  1.1331
 8025TIP3    H245491   3.959   1.794  16.211 -0.3337 -0.9764  1.9235
 8026TIP3   OH245492   2.948   4.092  15.894 -0.8650 -0.3521  0.4441
 8026TIP3    H145493   2.971   4.002  15.917 -1.0698 -0.4981  0.0762
 8026TIP3    H245494   2.945   4.093  15.798  1.2788  0.5578  0.3476
 8027TIP3   OH245495   0.721   4.933  14.756 -0.2185 -0.5696 -0.3189
 8027TIP3    H145496   0.658   4.983  14.703 -0.5582  1.3687  1.8160
 8027TIP3    H245497   0.681   4.847  14.767 -0.1278 -1.0219 -3.1794
 8028TIP3   OH245498   4.553   1.778   5.198 -0.2978  0.3286  0.4249
 8028TIP3    H145499   4.570   1.722   5.274  1.6192  0.7105  0.2966
 8028TIP3    H245500   4.486   1.731   5.148 -0.7073 -0.5078  1.7372
 8029TIP3   OH245501   2.801   5.267  14.099 -0.4415 -0.2243  0.0289
 8029TIP3    H145502   2.814   5.226  14.013 -0.3326  1.0258 -0.5719
 8029TIP3    H245503   2.869   5.334  14.104 -1.0534  0.3596  0.6731
 8030TIP3   OH245504   1.244   3.775   1.913  0.2117 -0.5902 -0.3518
 8030TIP3    H145505   1.310   3.775   1.982 -0.7192 -0.0608  0.5481
 8030TIP3    H245506   1.284   3.725   1.842  1.2734 -0.9380  0.4747
 8031TIP3   OH245507   6.169   2.605   1.086 -0.4123 -0.0062  0.1368
 8031TIP3    H145508   6.225   2.561   1.022 -1.0710  0.2925 -0.6567
 8031TIP3    H245509   6.223   2.677   1.120 -0.2896  0.2415 -0.5752
 8032TIP3   OH245510   4.347   3.545   5.634 -0.2731 -0.2614 -0.4243
 8032TIP3    H145511   4.431   3.588   5.647  0.5196 -1.8900 -0.0341
 8032TIP3    H245512   4.312   3.532   5.722 -1.5288  1.5236 -0.6347
 8033TIP3   OH245513   1.245   0.179  12.456 -0.1137  0.0225  0.0241
 8033TIP3    H145514   1.274   0.093  12.425 -0.2288 -0.3974  1.0675
 8033TIP3    H245515   1.254   0.175  12.551  0.2402  1.3005  0.0543
 8034TIP3   OH245516   2.400   4.809   3.130 -0.1200 -1.0384  0.1647
 8034TIP3    H145517   2.317   4.826   3.087 -0.5781 -0.6494  1.1925
 8034TIP3    H245518   2.396   4.859   3.211  1.4439 -0.3641 -0.1412
 8035TIP3   OH245519   0.828   5.983   2.586  0.0796 -0.3184  0.0091
 8035TIP3    H145520   0.906   5.929   2.597  1.0759  1.1821  0.4808
 8035TIP3    H245521   0.819   5.993   2.492  0.6848 -0.1960 -0.0418
 8036TIP3   OH245522   6.026   4.940   2.822 -0.3606 -0.7108 -0.6637
 8036TIP3    H145523   6.096   4.897   2.871 -1.0929 -0.5960  0.5099
 8036TIP3    H245524   6.066   4.964   2.738  1.2362  0.0639  0.2839
 8037TIP3   OH245525   2.382   6.517   0.845 -0.4823  0.0881  0.2580
 8037TIP3    H145526   2.415   6.587   0.901 -0.9645  0.8037 -0.3592
 8037TIP3    H245527   2.451   6.502   0.781 -0.0552 -0.5282  0.8563
 8038TIP3   OH245528   6.742   2.413   2.049 -0.0907  0.2172 -0.3953
 8038TIP3    H145529   6.737   2.353   1.975 -0.3392  1.2747 -1.2437
 8038TIP3    H245530   6.677   2.481   2.029 -0.0410  0.6013  0.7097
 8039TIP3   OH245531   4.809   3.889  14.842 -0.0612 -0.3482 -0.0753
 8039TIP3    H145532   4.869   3.845  14.782  0.4468  0.9040 -0.5180
 8039TIP3    H245533   4.722   3.867  14.810  0.2036 -0.3111 -0.8274
 8040TIP3   OH245534   1.700   4.703  14.171 -0.0501  0.2012 -0.0199
 8040TIP3    H145535   1.648   4.630  14.138  2.1270 -1.6526  0.4909
 8040TIP3    H245536   1.640   4.777  14.171 -2.3584 -1.5935 -0.4878
 8041TIP3   OH245537   3.369   4.063  16.390  0.4536  1.0573  0.9026
 8041TIP3    H145538   3.433   4.057  16.319 -0.1600 -2.7120  0.5642
 8041TIP3    H245539   3.294   4.011  16.359 -1.2333  2.2140  2.8870
 8042TIP3   OH245540   4.325   4.295  12.052  0.1696 -0.2043 -0.6748
 8042TIP3    H145541   4.263   4.228  12.078 -0.7474  0.9759  0.2581
 8042TIP3    H245542   4.390   4.249  11.998  0.8697 -2.2760  1.8619
 8043TIP3   OH245543   1.686   5.379  11.555  0.4150 -0.1276 -0.1990
 8043TIP3    H145544   1.612   5.346  11.503  1.6775  0.5064 -2.4892
 8043TIP3    H245545   1.671   5.344  11.643 -1.9930 -0.9506 -0.8866
 8044TIP3   OH245546   0.826   3.113  14.780 -0.5311  0.6884 -0.5739
 8044TIP3    H145547   0.750   3.105  14.723 -0.7914 -0.2194 -0.1086
 8044TIP3    H245548   0.818   3.040  14.842  0.4719  0.8502 -0.2361
 8045TIP3   OH245549   5.022   3.060   5.632 -0.0921 -0.3534 -0.3692
 8045TIP3    H145550   5.050   2.994   5.568  0.8628 -1.3711  1.0671
 8045TIP3    H245551   5.095   3.122   5.635  0.4960 -1.0738  0.7447
 8046TIP3   OH245552   3.599   6.107  13.447  0.5591 -0.1553  0.0506
 8046TIP3    H145553   3.660   6.036  13.466  1.4768  0.4382 -0.6699
 8046TIP3    H245554   3.646   6.187  13.471 -0.0167  0.2954 -0.2912
 8047TIP3   OH245555   5.278   0.073  11.079  0.8296 -0.0343 -0.1591
 8047TIP3    H145556   5.243  -0.007  11.039 -1.2322  1.4490 -1.3662
 8047TIP3    H245557   5.240   0.074  11.167  1.2419 -0.6071  0.0349
 8048TIP3   OH245558   4.436   1.137  14.649  0.5547  0.1106  0.5074
 8048TIP3    H145559   4.462   1.225  14.624 -1.4889  0.3454 -0.9028
 8048TIP3    H245560   4.515   1.098  14.687  1.7127  2.2220  0.3082
 8049TIP3   OH245561   6.787   4.631  15.947 -0.2063 -0.3204 -0.1759
 8049TIP3    H145562   6.817   4.540  15.958  0.8956  0.2387  1.5936
 8049TIP3    H245563   6.816   4.655  15.859  0.3296 -1.3598 -0.2969
 8050TIP3   OH245564   0.531   3.723  12.850 -0.2647 -0.1519 -0.3185
 8050TIP3    H145565   0.473   3.649  12.832 -1.2994  0.8647 -1.2706
 8050TIP3    H245566   0.620   3.688  12.838 -0.7515 -1.1498 -1.0506
 8051TIP3   OH245567   2.367   5.485  16.061  0.4531  0.0429  0.2279
 8051TIP3    H145568   2.294   5.424  16.049 -0.2556  0.9784 -0.2626
 8051TIP3    H245569   2.325   5.570  16.078  1.4159  0.6025 -0.1652
 8052TIP3   OH245570   2.321   2.051   3.887 -0.1626 -0.2094 -0.0700
 8052TIP3    H145571   2.234   2.087   3.869  0.4052  0.6610 -1.0907
 8052TIP3    H245572   2.382   2.118   3.856  0.8990  0.6118  3.5325
 8053TIP3   OH245573   6.572   6.324   5.378 -0.2775 -0.3868  0.7949
 8053TIP3    H145574   6.556   6.348   5.469  0.4901 -1.1629  1.1405
 8053TIP3    H245575   6.501   6.263   5.356 -0.5538 -0.0755  0.8183
 8054TIP3   OH245576   4.000   1.754  13.945  0.4173  0.0935 -0.2254
 8054TIP3    H145577   3.995   1.840  13.986 -0.7281  0.7792 -1.7661
 8054TIP3    H245578   4.058   1.766  13.870  0.2767 -0.4924 -0.4326
 8055TIP3   OH245579   2.988   5.707  12.802  0.4063 -0.2039 -0.3642
 8055TIP3    H145580   2.984   5.794  12.842 -0.1381  0.5857 -2.0625
 8055TIP3    H245581   3.076   5.676  12.822 -0.0424 -0.0972  1.9069
 8056TIP3   OH245582   0.104   6.094  12.814  0.5468 -0.0033 -0.6003
 8056TIP3    H145583   0.115   6.176  12.862  0.4734 -0.8405  0.8980
 8056TIP3    H245584   0.191   6.076  12.777  1.0464 -0.1890  0.6303
 8057TIP3   OH245585   0.171   2.441   3.155  0.0532 -0.4559 -0.3283
 8057TIP3    H145586   0.175   2.519   3.209  4.6087 -2.3872  2.3812
 8057TIP3    H245587   0.170   2.368   3.218  1.4241 -2.6754 -2.7754
 8058TIP3   OH245588   0.381   5.913  16.126  0.2029 -0.4644 -0.3670
 8058TIP3    H145589   0.406   6.005  16.112  0.4345 -0.4406  0.2156
 8058TIP3    H245590   0.324   5.893  16.051 -0.8574  0.5301  0.1548
 8059TIP3   OH245591   0.233   0.664  16.802  0.0593 -0.5626 -0.9059
 8059TIP3    H145592   0.225   0.674  16.897 -0.1125  1.5404 -1.1240
 8059TIP3    H245593   0.208   0.573  16.786  1.5780 -1.3831  1.2168
 8060TIP3   OH245594   2.930   3.750   2.488  0.6011  0.2016 -0.1143
 8060TIP3    H145595   2.954   3.777   2.577  0.7941 -0.8258  0.1543
 8060TIP3    H245596   2.957   3.823   2.433  1.3756  0.4385  0.5644
 8061TIP3   OH245597   2.074   5.341   1.390 -0.3516 -0.4754 -0.1027
 8061TIP3    H145598   2.053   5.433   1.405  0.1904 -0.0574 -1.7944
 8061TIP3    H245599   2.023   5.294   1.456  1.5333  1.2027  2.6472
 8062TIP3   OH245600   1.548   6.674  15.023 -0.3016  0.0209  0.3318
 8062TIP3    H145601   1.618   6.735  14.998 -0.6767 -0.2587 -1.5073
 8062TIP3    H245602   1.487   6.678  14.950 -1.3197 -1.0819  1.1175
 8063TIP3   OH245603   3.586   4.163   0.565  0.3988 -0.2942 -0.4240
 8063TIP3    H145604   3.576   4.091   0.503  0.3001  0.9508 -1.8810
 8063TIP3    H245605   3.506   4.215   0.556 -0.6642 -1.3329  2.4198
 8064TIP3   OH245606   3.193   3.631  14.048 -0.0698 -0.0778 -0.1593
 8064TIP3    H145607   3.224   3.631  13.958 -1.3871 -1.3332 -0.6438
 8064TIP3    H245608   3.195   3.539  14.075  0.1270  0.2575  1.0342
 8065TIP3   OH245609   1.670   1.983   6.386 -0.5541  0.4834 -0.0418
 8065TIP3    H145610   1.683   2.059   6.442 -2.4406  0.1463  0.8882
 8065TIP3    H245611   1.642   2.019   6.302  0.1358  0.8850 -0.1005
 8066TIP3   OH245612   0.528   4.725  17.093  0.2890  0.3384 -0.2643
 8066TIP3    H145613   0.537   4.748  17.000  1.2673  0.4947 -0.1458
 8066TIP3    H245614   0.434   4.717  17.107  0.1266  0.4293 -1.2460
 8067TIP3   OH245615   0.996   1.712   6.186 -0.4238  0.1727  0.2770
 8067TIP3    H145616   0.941   1.716   6.108  1.1357  1.1531 -0.7955
 8067TIP3    H245617   1.007   1.804   6.212  0.4957 -0.0306  0.6307
 8068TIP3   OH245618   3.397   5.182  11.974  0.8426  0.3883 -0.3863
 8068TIP3    H145619   3.395   5.104  11.919  0.3756 -0.6714  1.0876
 8068TIP3    H245620   3.377   5.254  11.914 -0.7248 -0.8556 -1.4157
 8069TIP3   OH245621   1.109   5.124   0.996 -0.2879 -0.1238  0.0517
 8069TIP3    H145622   1.203   5.143   1.006 -0.6149  2.0164 -0.6975
 8069TIP3    H245623   1.082   5.092   1.082  0.9201  0.1415  0.5489
 8070TIP3   OH245624   2.906   4.377   3.045  0.2566  0.4454 -0.0394
 8070TIP3    H145625   2.811   4.387   3.055  0.6050  1.7729  2.2586
 8070TIP3    H245626   2.943   4.451   3.094  2.5582 -1.9649  1.9760
 8071TIP3   OH245627   2.133   3.437   0.589 -0.3602  0.1215  0.7725
 8071TIP3    H145628   2.198   3.455   0.657  1.7745 -1.2111 -0.8842
 8071TIP3    H245629   2.072   3.375   0.631  2.2010 -2.4765  0.8230
 8072TIP3   OH245630   2.630   0.414  16.977 -0.5016  0.3161  0.3280
 8072TIP3    H145631   2.603   0.371  16.896  1.5843 -0.3169 -0.0539
 8072TIP3    H245632   2.572   0.376  17.044 -1.1669 -0.3322 -0.5957
 8073TIP3   OH245633   3.192   6.274  14.271 -0.0865 -0.3570 -0.3285
 8073TIP3    H145634   3.264   6.211  14.278 -0.1114 -0.3590 -0.0570
 8073TIP3    H245635   3.220   6.337  14.206 -0.0211 -0.6027 -0.5376
 8074TIP3   OH245636   0.995   5.468   1.478 -0.6902 -0.1216  0.0245
 8074TIP3    H145637   0.990   5.561   1.455  2.4090  0.2293  0.5905
 8074TIP3    H245638   0.983   5.422   1.395 -2.5114  0.7348 -0.2209
 8075TIP3   OH245639   3.084   2.693  13.208  0.0229 -0.1296 -0.2476
 8075TIP3    H145640   3.001   2.721  13.246 -0.0269 -0.8680  0.2081
 8075TIP3    H245641   3.141   2.769  13.215  0.8075 -0.9862  3.6520
 8076TIP3   OH245642   5.626   0.757   5.270  0.0893  0.2809 -0.1871
 8076TIP3    H145643   5.696   0.797   5.322 -2.8110 -0.5655  4.6766
 8076TIP3    H245644   5.560   0.825   5.263 -0.4883 -0.3510 -0.9533
 8077TIP3   OH245645   5.261   0.942   4.203 -0.0050 -0.2190 -0.6255
 8077TIP3    H145646   5.340   0.901   4.238  0.9112  2.1823  0.2540
 8077TIP3    H245647   5.223   0.988   4.278 -0.6972  0.9426 -1.6672
 8078TIP3   OH245648   1.395   3.437  17.039 -0.4497 -0.0299  0.0810
 8078TIP3    H145649   1.378   3.501  17.108  1.0608 -1.7597  2.0925
 8078TIP3    H245650   1.486   3.453  17.014 -0.9890  0.5996 -1.5786
 8079TIP3   OH245651   5.258   3.139  10.340 -0.2084  0.4735 -0.0639
 8079TIP3    H145652   5.341   3.134  10.293 -0.5239 -0.3266 -0.5329
 8079TIP3    H245653   5.267   3.217  10.395  0.7234  0.5804 -0.3582
 8080TIP3   OH245654   5.958   2.045  14.273  0.6952 -0.0450  0.4484
 8080TIP3    H145655   6.034   2.066  14.219  0.1182  1.0797  0.0533
 8080TIP3    H245656   5.902   1.994  14.214  1.8102 -2.2050  1.2103
 8081TIP3   OH245657   6.111   3.543  11.994 -0.3465  0.0734 -0.5092
 8081TIP3    H145658   6.128   3.503  12.079  0.8734 -0.2143 -0.8809
 8081TIP3    H245659   6.125   3.472  11.931  0.6929  0.7835 -1.0883
 8082TIP3   OH245660   5.687   2.498  11.766 -0.0948 -0.2593 -0.1535
 8082TIP3    H145661   5.674   2.404  11.750 -2.0176  0.0456 -0.4977
 8082TIP3    H245662   5.716   2.503  11.857  1.0591 -1.2703 -0.4604
 8083TIP3   OH245663   3.107   4.366  12.173  0.1151 -0.5199  0.8122
 8083TIP3    H145664   3.114   4.348  12.267  0.3611  0.5730  1.0065
 8083TIP3    H245665   3.023   4.410  12.163  0.4605  0.1110  0.6465
 8084TIP3   OH245666   0.087   3.206   1.169 -0.3769  0.3773  0.2032
 8084TIP3    H145667   0.133   3.281   1.130  0.4476 -0.2713 -0.0760
 8084TIP3    H245668   0.146   3.174   1.237 -0.6586 -0.1273  0.2122
 8085TIP3   OH245669   5.939   5.203  11.900 -0.2243 -0.0638  0.1440
 8085TIP3    H145670   5.965   5.295  11.897 -1.7272  0.3739 -0.0138
 8085TIP3    H245671   5.961   5.168  11.814 -1.5215  0.6962 -0.5128
 8086TIP3   OH245672   0.721   5.687  15.667  0.3069 -0.1763  0.2938
 8086TIP3    H145673   0.718   5.616  15.603  2.5521 -0.6096  0.6246
 8086TIP3    H245674   0.753   5.645  15.747 -0.3541  0.7961  1.0662
 8087TIP3   OH245675   1.272   3.661   5.734  0.0091 -0.2014  0.1950
 8087TIP3    H145676   1.352   3.684   5.686 -1.0469  0.3779 -1.3465
 8087TIP3    H245677   1.265   3.727   5.802  1.1899 -0.6521  0.7737
 8088TIP3   OH245678   3.561   5.363  12.151  0.0997 -0.4881 -0.2330
 8088TIP3    H145679   3.532   5.409  12.230 -0.4188 -0.9416 -0.1559
 8088TIP3    H245680   3.481   5.348  12.101  0.4587  0.0389 -0.9770
 8089TIP3   OH245681   2.510   5.014  16.457 -0.0994  0.5195  0.0763
 8089TIP3    H145682   2.531   5.088  16.400  0.3299 -0.5983 -1.2340
 8089TIP3    H245683   2.595   4.973  16.475 -0.4838 -0.4554 -0.3088
 8090TIP3   OH245684   2.125   3.995  12.598 -0.0890 -0.4855  0.0739
 8090TIP3    H145685   2.068   3.985  12.522 -1.8556  1.5325  1.0480
 8090TIP3    H245686   2.105   3.919  12.653  2.5200 -2.9197 -2.2216
 8091TIP3   OH245687   2.138   5.407  16.888 -0.0342 -0.7589  0.3265
 8091TIP3    H145688   2.209   5.411  16.952  0.2959 -0.3289 -0.0620
 8091TIP3    H245689   2.059   5.399  16.940  0.2889 -1.0892  0.7684
 8092TIP3   OH245690   3.993   2.993   1.167 -0.1608  0.8841 -0.3384
 8092TIP3    H145691   4.068   2.953   1.210 -0.6841  0.7824  0.4893
 8092TIP3    H245692   3.988   3.082   1.204 -2.1333 -0.0300  1.7686
 8093TIP3   OH245693   0.938   2.141  15.839  0.4435  0.4124  0.1920
 8093TIP3    H145694   1.027   2.171  15.862  0.6147  0.0939 -0.0580
 8093TIP3    H245695   0.900   2.114  15.923  1.4616 -1.8009 -0.0228
 8094TIP3   OH245696   1.846   5.231  15.939  0.0761  0.5928 -0.3088
 8094TIP3    H145697   1.808   5.274  15.862 -0.0738  0.4263 -0.3294
 8094TIP3    H245698   1.853   5.139  15.914  0.8708  0.6920 -0.4458
 8095TIP3   OH245699   1.542   0.680   5.525 -0.0449  0.1058  0.0716
 8095TIP3    H145700   1.489   0.697   5.603  0.1774  0.9025  0.0562
 8095TIP3    H245701   1.631   0.669   5.559 -0.1513 -0.8322  0.0577
 8096TIP3   OH245702   5.718   6.413  13.544 -0.4636  0.1772 -0.4633
 8096TIP3    H145703   5.746   6.343  13.486 -1.8367 -1.4029  0.7315
 8096TIP3    H245704   5.799   6.452  13.576  0.3036  0.2978 -2.4927
 8097TIP3   OH245705   6.137   1.442  14.840  0.1704  0.5067 -0.4898
 8097TIP3    H145706   6.113   1.463  14.749 -2.8617  1.5843  0.5228
 8097TIP3    H245707   6.130   1.346  14.845 -0.3582  0.5039 -1.2042
 8098TIP3   OH245708   1.745   4.026  11.817  0.5401  0.2188  0.2273
 8098TIP3    H145709   1.807   3.970  11.770  0.7663  1.1147 -0.5549
 8098TIP3    H245710   1.769   4.115  11.791  1.2189  0.7958  2.6753
 8099TIP3   OH245711   3.110   6.565  15.274  0.6331  0.7268 -0.5135
 8099TIP3    H145712   3.128   6.637  15.214  1.6542  1.7131  0.9144
 8099TIP3    H245713   3.097   6.608  15.359 -2.2596 -0.5155 -0.3028
 8100TIP3   OH245714   1.960   2.055  17.222 -0.3539 -0.1703 -0.0110
 8100TIP3    H145715   1.940   1.962  17.228 -0.3207 -0.1061  1.1856
 8100TIP3    H245716   2.046   2.059  17.180 -1.5427 -0.5530 -2.5581
 8101TIP3   OH245717   0.239   1.023  12.972  1.0318 -0.1895  0.5444
 8101TIP3    H145718   0.262   1.090  12.908 -0.8611  0.1373  0.1722
 8101TIP3    H245719   0.150   1.046  12.999  0.5147 -2.3164  0.7102
 8102TIP3   OH245720   2.605   5.305   1.711 -0.3979 -0.4147  0.1620
 8102TIP3    H145721   2.682   5.336   1.758  0.1469  0.6419 -1.3819
 8102TIP3    H245722   2.608   5.210   1.720  0.0629 -0.2667  1.6703
 8103TIP3   OH245723   2.563   2.705  10.613  0.6912 -0.2460 -0.3483
 8103TIP3    H145724   2.525   2.618  10.616 -0.3772  0.2176 -0.0395
 8103TIP3    H245725   2.514   2.750  10.544  1.6600 -0.0827 -0.9396
 8104TIP3   OH245726   0.526   1.734   0.086 -0.8234 -0.7349  0.0561
 8104TIP3    H145727   0.465   1.763   0.154 -0.5827  0.5090 -0.2541
 8104TIP3    H245728   0.472   1.682   0.026 -1.2697 -0.8696  0.5709
 8105TIP3   OH245729   1.793   4.689  13.898 -0.4311 -0.7087  0.0585
 8105TIP3    H145730   1.884   4.706  13.876 -1.1499  3.1129 -0.3998
 8105TIP3    H245731   1.793   4.668  13.991  0.7887  0.9936  0.4713
 8106TIP3   OH245732   3.297   5.590  12.573  0.0164  0.0504 -0.1948
 8106TIP3    H145733   3.307   5.606  12.667 -0.3725  0.1795 -0.1735
 8106TIP3    H245734   3.204   5.605  12.556 -0.1198 -1.0264 -0.4046
 8107TIP3   OH245735   6.458   4.564  16.694 -0.0824  0.2719  0.2191
 8107TIP3    H145736   6.542   4.532  16.663  0.6149  2.4616 -0.2328
 8107TIP3    H245737   6.478   4.615  16.772 -1.3847 -1.8011  1.9902
 8108TIP3   OH245738   3.572   2.332   3.879  0.2541 -0.0840  0.1102
 8108TIP3    H145739   3.654   2.282   3.876  0.9736  1.0184  0.9559
 8108TIP3    H245740   3.538   2.318   3.967 -0.3711 -0.3602 -0.1672
 8109TIP3   OH245741   3.673   5.201  11.627  0.6084  0.2805 -0.0541
 8109TIP3    H145742   3.742   5.135  11.633 -0.5322 -0.9407 -0.1714
 8109TIP3    H245743   3.720   5.284  11.618  2.0745 -0.4160  0.9273
 8110TIP3   OH245744   4.435   4.319  11.642  0.4533  0.2862  0.3510
 8110TIP3    H145745   4.352   4.294  11.600  1.0477  1.2106 -1.3927
 8110TIP3    H245746   4.409   4.378  11.713 -0.6751 -2.3727  2.2478
 8111TIP3   OH245747   3.966   5.439  13.609  0.4636 -0.2484 -0.3514
 8111TIP3    H145748   3.970   5.442  13.705  0.6760 -1.0718 -0.3257
 8111TIP3    H245749   4.013   5.517  13.580  3.5723 -1.8411  0.1702
 8112TIP3   OH245750   6.517   3.768  14.011 -0.1010  0.7498 -0.1315
 8112TIP3    H145751   6.445   3.808  13.962 -0.2046  0.5438 -0.1464
 8112TIP3    H245752   6.589   3.830  14.002 -0.2078  0.8488 -0.3074
 8113TIP3   OH245753   6.577   0.070  16.990 -0.5532 -0.0154 -0.4497
 8113TIP3    H145754   6.515   0.079  17.063 -1.7724 -2.4667 -1.1299
 8113TIP3    H245755   6.521   0.058  16.913  0.7442 -0.1442 -1.3828
 8114TIP3   OH245756   1.165   1.453   4.051  0.0085 -0.6400 -0.5285
 8114TIP3    H145757   1.199   1.534   4.089 -0.3256  1.3792 -4.3379
 8114TIP3    H245758   1.242   1.397   4.042  0.1334 -1.0968  2.7393
 8115TIP3   OH245759   2.978   5.048  14.254  0.0861  0.0165 -0.0000
 8115TIP3    H145760   2.944   5.066  14.341 -0.2371 -0.2274 -0.0706
 8115TIP3    H245761   2.929   5.107  14.196  0.8822  0.7616  0.0782
 8116TIP3   OH245762   5.282   3.040   3.002  0.4298  0.0193 -0.2350
 8116TIP3    H145763   5.271   3.114   2.941  1.5349  1.6868  1.5335
 8116TIP3    H245764   5.284   2.963   2.946 -2.0305  1.1926 -2.0568
 8117TIP3   OH245765   6.327   1.777  14.212  0.1151 -0.0210 -0.1845
 8117TIP3    H145766   6.299   1.758  14.302  0.2826 -0.8545 -0.3010
 8117TIP3    H245767   6.297   1.702  14.161  0.6286  0.1187 -0.6997
 8118TIP3   OH245768   0.146   5.013  16.017  0.6645 -0.8079  0.2711
 8118TIP3    H145769   0.116   5.096  16.055 -2.1199 -2.1621  1.1137
 8118TIP3    H245770   0.241   5.025  16.007  0.2848  2.5859  0.0622
 8119TIP3   OH245771   1.098   1.263  12.859  0.2709  0.8609 -0.2981
 8119TIP3    H145772   1.123   1.323  12.788 -0.3731  1.6073  0.1080
 8119TIP3    H245773   1.091   1.178  12.816 -1.1183  1.4864 -1.3482
 8120TIP3   OH245774   2.515   0.079   6.912 -0.2608 -0.6004 -0.1289
 8120TIP3    H145775   2.579   0.074   6.841 -0.7609  0.4432 -0.6644
 8120TIP3    H245776   2.562   0.123   6.983 -0.4512  0.4155 -0.6184
 8121TIP3   OH245777   4.253   1.010   3.426 -0.3583 -0.4650 -0.1167
 8121TIP3    H145778   4.300   1.041   3.348 -0.5466 -3.0549 -1.3048
 8121TIP3    H245779   4.166   1.048   3.418  0.1100  0.5996 -0.3080
 8122TIP3   OH245780   2.159   5.373   2.896 -0.2290  0.1933 -0.0502
 8122TIP3    H145781   2.174   5.283   2.866  0.5766  0.0443  0.7914
 8122TIP3    H245782   2.082   5.367   2.952  0.1597 -0.0624  0.4512
 8123TIP3   OH245783   0.852   3.570  14.228 -0.1346  0.0630  0.1963
 8123TIP3    H145784   0.837   3.625  14.151 -2.2057  1.4245  1.5551
 8123TIP3    H245785   0.826   3.482  14.200  1.2178  0.1196 -1.3208
 8124TIP3   OH245786   5.148   5.101  15.928  0.2639  0.4877  0.1346
 8124TIP3    H145787   5.092   5.141  15.994 -0.2262  0.1953 -0.0976
 8124TIP3    H245788   5.226   5.073  15.976 -0.9754 -1.6327  1.0346
 8125TIP3   OH245789   2.217   3.005  13.997  0.0229 -0.2683 -0.1684
 8125TIP3    H145790   2.194   2.934  13.937 -0.1164  2.1176 -3.0320
 8125TIP3    H245791   2.136   3.023  14.044 -1.3618  1.3173 -3.0268
 8126TIP3   OH245792   5.823   0.356   6.393  0.1882 -0.0100 -0.1129
 8126TIP3    H145793   5.838   0.333   6.485  0.3582 -1.9863 -0.6023
 8126TIP3    H245794   5.728   0.355   6.383  0.1828 -0.3177 -0.0616
 8127TIP3   OH245795   6.025   6.463   2.118  0.2482 -0.5083  0.2157
 8127TIP3    H145796   6.076   6.394   2.077  0.0388 -0.8106  0.4602
 8127TIP3    H245797   6.080   6.495   2.189  1.0073  0.6591 -0.8725
 8128TIP3   OH245798   1.142   2.931   3.185 -0.1839 -0.0855  0.1409
 8128TIP3    H145799   1.179   2.931   3.097 -1.7350 -1.0314 -0.5279
 8128TIP3    H245800   1.050   2.906   3.173 -0.7756  1.1528  1.8774
 8129TIP3   OH245801   4.277   2.080  16.145  0.0608  0.6440  0.2536
 8129TIP3    H145802   4.185   2.074  16.121 -0.0583  1.0344  0.6058
 8129TIP3    H245803   4.320   2.116  16.068 -0.0204  0.1217 -0.0440
 8130TIP3   OH245804   2.340   2.796  14.241 -0.0226  0.3596 -0.9375
 8130TIP3    H145805   2.389   2.877  14.229  0.9155 -0.0080  0.1972
 8130TIP3    H245806   2.379   2.735  14.178 -0.2146  0.5768 -1.2648
 8131TIP3   OH245807   3.473   3.534  11.769 -0.3367  0.2957 -0.4382
 8131TIP3    H145808   3.469   3.523  11.864  0.7467  2.7471 -0.0642
 8131TIP3    H245809   3.509   3.452  11.737 -0.7782 -0.5886  1.2581
 8132TIP3   OH245810   6.773   3.095  15.760  0.1831  0.8725 -0.4261
 8132TIP3    H145811   6.768   3.141  15.844  2.6225 -1.2303  0.9575
 8132TIP3    H245812   6.866   3.099  15.736 -0.4156  1.0358 -2.7912
 8133TIP3   OH245813   2.724   5.395   5.780  0.8205  0.0589 -0.0229
 8133TIP3    H145814   2.667   5.454   5.732  0.5949  0.2741  0.5079
 8133TIP3    H245815   2.667   5.355   5.846  1.2005  0.0110  0.2758
 8134TIP3   OH245816   2.493   5.010  15.497 -0.4027  0.0338  0.3413
 8134TIP3    H145817   2.480   4.988  15.405  0.7790 -0.1944  0.2114
 8134TIP3    H245818   2.450   4.940  15.545  0.1911 -0.6073 -0.0535
 8135TIP3   OH245819   0.280   1.859   5.750  0.0756  0.0358 -0.2869
 8135TIP3    H145820   0.337   1.935   5.734  0.9084 -0.6388 -0.5278
 8135TIP3    H245821   0.293   1.803   5.674  2.1836 -2.0342  1.5379
 8136TIP3   OH245822   6.490   5.322   4.385 -0.0507  0.1908  0.7265
 8136TIP3    H145823   6.499   5.294   4.294  2.5980  3.0643  0.0252
 8136TIP3    H245824   6.512   5.245   4.436 -1.7940 -1.5305 -1.0214
 8137TIP3   OH245825   0.031   4.591   0.606 -0.2035  0.2936 -0.4159
 8137TIP3    H145826   0.108   4.573   0.552 -1.2808 -0.7370 -1.6365
 8137TIP3    H245827   0.061   4.578   0.696  0.5530 -2.0943 -0.9696
 8138TIP3   OH245828   0.515   3.300   3.677  0.1506  0.0439  0.6671
 8138TIP3    H145829   0.608   3.285   3.692  0.7605  0.9385 -1.8952
 8138TIP3    H245830   0.476   3.213   3.676  0.5233 -0.2140  4.1651
 8139TIP3   OH245831   2.927   5.532   4.577  0.7216 -0.1724  0.3519
 8139TIP3    H145832   2.927   5.553   4.671  0.7767  2.2108 -0.1641
 8139TIP3    H245833   2.856   5.467   4.567  1.3292 -1.1568  2.1715
 8140TIP3   OH245834   0.405   0.931   0.142 -0.0226  0.2008 -0.0837
 8140TIP3    H145835   0.316   0.901   0.122  0.9889 -1.7909 -1.7468
 8140TIP3    H245836   0.399   0.962   0.232 -2.4076  0.1045 -0.1610
 8141TIP3   OH245837   4.836   4.532   6.035  0.1585  0.0055  0.0137
 8141TIP3    H145838   4.753   4.553   6.078  0.0040 -0.0293 -0.2691
 8141TIP3    H245839   4.882   4.616   6.029 -0.7191  0.3889 -1.6701
 8142TIP3   OH245840   3.731   6.470   3.218  0.0790  0.5815  0.5540
 8142TIP3    H145841   3.724   6.380   3.185  1.9925  0.8235 -0.5618
 8142TIP3    H245842   3.822   6.477   3.247 -0.1911  2.0331  1.0549
 8143TIP3   OH245843   6.781   4.155   3.456  0.0638  0.4029 -0.0304
 8143TIP3    H145844   6.688   4.145   3.479 -0.4500  1.4162 -1.5733
 8143TIP3    H245845   6.804   4.074   3.412 -0.4690  0.6522 -0.7946
 8144TIP3   OH245846   1.180   3.788  13.948 -0.1896 -0.2876 -0.5575
 8144TIP3    H145847   1.158   3.695  13.950 -1.3185 -0.0206  1.0818
 8144TIP3    H245848   1.261   3.794  13.999 -0.2113 -0.3482 -0.5152
 8145TIP3   OH245849   4.076   6.414   3.659  0.2277 -0.5066 -0.1533
 8145TIP3    H145850   4.088   6.490   3.603  1.0521 -1.0745 -0.7629
 8145TIP3    H245851   4.027   6.447   3.734 -0.5397  0.3387 -1.0175
 8146TIP3   OH245852   1.483   3.525   6.881 -0.4542 -0.1555  0.2998
 8146TIP3    H145853   1.493   3.459   6.812 -0.3523 -0.3021  0.4525
 8146TIP3    H245854   1.502   3.608   6.838  1.8545 -0.4609  0.6635
 8147TIP3   OH245855   3.550   2.974  14.209  0.3020  0.1542  0.3139
 8147TIP3    H145856   3.628   3.021  14.237 -0.6621  1.2591  1.1878
 8147TIP3    H245857   3.501   2.959  14.290  0.1037 -1.4462 -0.0890
 8148TIP3   OH245858   3.258   5.404   4.083 -0.7485 -0.1722 -0.3660
 8148TIP3    H145859   3.172   5.403   4.126 -0.1999 -1.9780  0.7320
 8148TIP3    H245860   3.321   5.401   4.155  0.2151 -0.3750 -1.2095
 8149TIP3   OH245861   6.163   2.742   1.468  0.3795  0.6568  0.5143
 8149TIP3    H145862   6.247   2.781   1.494  0.1117  0.2762  1.9718
 8149TIP3    H245863   6.184   2.651   1.448  0.2227  0.4131  1.4352
 8150TIP3   OH245864   1.228   6.563  16.479 -0.6649  0.4891  0.0411
 8150TIP3    H145865   1.270   6.478  16.492  0.9751  1.3363  0.4250
 8150TIP3    H245866   1.169   6.550  16.404  1.2971 -0.3835 -1.3960
 8151TIP3   OH245867   3.788   1.964   5.291  0.0393 -0.3776 -0.0424
 8151TIP3    H145868   3.797   1.933   5.201  0.5012 -1.8764  0.5157
 8151TIP3    H245869   3.857   2.030   5.301  0.0883 -0.3220 -0.7259
 8152TIP3   OH245870   4.099   6.270   0.302  0.2360 -0.2894 -0.0708
 8152TIP3    H145871   4.187   6.304   0.319  0.2449 -0.4461  0.1972
 8152TIP3    H245872   4.077   6.220   0.380 -0.3606  0.3036  0.1498
 8153TIP3   OH245873   3.044   1.446  14.962  0.1005 -0.3416  0.1364
 8153TIP3    H145874   3.001   1.386  14.902 -1.1588  0.9149 -0.2275
 8153TIP3    H245875   2.997   1.529  14.952  1.4001  0.5347  1.1037
 8154TIP3   OH245876   1.206   0.681   0.966 -0.3497 -0.2586 -0.4113
 8154TIP3    H145877   1.128   0.626   0.962  0.5368 -1.4394 -1.9273
 8154TIP3    H245878   1.206   0.716   1.055  0.0198 -4.1307  1.2122
 8155TIP3   OH245879   2.770   5.362   3.445  0.2238  0.0451 -0.0740
 8155TIP3    H145880   2.825   5.308   3.501  0.4808  0.3133 -0.0666
 8155TIP3    H245881   2.704   5.399   3.503  0.0703 -0.2331 -0.0729
 8156TIP3   OH245882   4.612   5.975   2.264  0.3518 -0.2098  0.4074
 8156TIP3    H145883   4.567   5.924   2.332  0.6283 -0.1063  0.6682
 8156TIP3    H245884   4.602   6.066   2.291 -0.5346 -0.0873 -0.2979
 8157TIP3   OH245885   4.715   0.764  13.321 -0.2398 -0.1256 -0.0855
 8157TIP3    H145886   4.739   0.811  13.241 -0.8641 -0.1121 -0.2686
 8157TIP3    H245887   4.684   0.833  13.380 -1.1163 -0.3017 -0.3385
 8158TIP3   OH245888   4.379   1.724  16.277 -0.3348  0.2299 -0.1061
 8158TIP3    H145889   4.448   1.675  16.323  0.4825 -1.2105 -2.7625
 8158TIP3    H245890   4.427   1.779  16.215 -1.3253  3.5376  1.9544
 8159TIP3   OH245891   6.522   4.936  16.957  0.2958  0.3613  0.0494
 8159TIP3    H145892   6.483   4.898  16.879  0.6481  0.3063 -0.1012
 8159TIP3    H245893   6.582   5.003  16.925 -0.0597  0.7999  0.3026
 8160TIP3   OH245894   6.720   6.418  13.531  0.7102 -0.4229  0.0895
 8160TIP3    H145895   6.779   6.417  13.456  0.3490 -1.8805 -0.1983
 8160TIP3    H245896   6.633   6.436  13.494  0.7221  0.0962  0.3123
 8161TIP3   OH245897   2.845   1.387   0.304  0.2366 -0.5439  0.0703
 8161TIP3    H145898   2.818   1.358   0.217  1.2621 -0.8681 -0.1430
 8161TIP3    H245899   2.877   1.476   0.291 -0.3759 -0.2924  0.2611
 8162TIP3   OH245900   2.008   5.670  14.889  0.0451 -1.1049 -0.5137
 8162TIP3    H145901   1.932   5.695  14.838 -0.9727  0.9838  1.9067
 8162TIP3    H245902   1.977   5.599  14.946  0.8392 -2.5527 -1.8316
 8163TIP3   OH245903   3.999   1.799  13.219  0.1132  0.1836  0.0040
 8163TIP3    H145904   3.981   1.840  13.304 -0.0628 -2.6427  1.4044
 8163TIP3    H245905   3.918   1.752  13.198  0.8019 -0.6372 -0.8275
 8164TIP3   OH245906   1.958   2.030   1.544  0.0165 -0.0522  0.5009
 8164TIP3    H145907   1.972   2.085   1.621 -2.3305  0.2345  0.7534
 8164TIP3    H245908   1.960   1.941   1.578  0.9329 -0.0265  0.5476
 8165TIP3   OH245909   1.860   4.841   5.561  0.5869 -0.1724  0.3029
 8165TIP3    H145910   1.953   4.861   5.576  0.8145  0.3749 -1.6791
 8165TIP3    H245911   1.819   4.856   5.645  1.9918  1.5471  0.7214
 8166TIP3   OH245912   6.498   2.737   4.851  0.4583 -0.4303  0.5001
 8166TIP3    H145913   6.411   2.728   4.890 -0.1156  1.5181 -0.2876
 8166TIP3    H245914   6.533   2.648   4.851 -1.6020 -1.2804  0.6854
 8167TIP3   OH245915   0.101   4.923   0.483 -0.2615 -0.1949 -0.0120
 8167TIP3    H145916   0.164   4.940   0.553 -0.1657  0.1982 -0.1915
 8167TIP3    H245917   0.020   4.964   0.512 -0.1589  0.1719 -0.2311
 8168TIP3   OH245918   4.358   6.707   0.118 -0.3724  0.6887  0.7853
 8168TIP3    H145919   4.324   6.644   0.181  2.8953 -0.8827  1.0841
 8168TIP3    H245920   4.389   6.653   0.045  3.1919  1.7887  1.3837
 8169TIP3   OH245921   4.736   2.820  12.523 -0.0429 -0.8083 -0.3606
 8169TIP3    H145922   4.774   2.888  12.577 -1.2578  0.0858 -0.6156
 8169TIP3    H245923   4.795   2.813  12.448 -0.5619  0.8264 -0.9393
 8170TIP3   OH245924   5.281   0.621   0.360  0.3994  0.3648 -0.4205
 8170TIP3    H145925   5.320   0.563   0.295  0.4574 -1.1648  0.9526
 8170TIP3    H245926   5.355   0.653   0.411  0.0744 -0.9003  0.8615
 8171TIP3   OH245927   0.817   4.473  16.989 -0.2002 -0.3177 -0.0387
 8171TIP3    H145928   0.723   4.476  16.971 -0.0813  2.6945 -0.3653
 8171TIP3    H245929   0.824   4.499  17.081  0.3903  0.7439 -0.3806
 8172TIP3   OH245930   0.759   1.332   2.604  0.2665 -0.1101  0.1782
 8172TIP3    H145931   0.755   1.425   2.627  0.8586 -0.1429  0.4379
 8172TIP3    H245932   0.730   1.286   2.683 -0.2368 -0.1418 -0.0225
 8173TIP3   OH245933   5.336   5.628   4.877  0.0942 -0.1168 -0.2069
 8173TIP3    H145934   5.268   5.566   4.904  1.1782 -1.3389 -0.2585
 8173TIP3    H245935   5.418   5.582   4.890  0.9281  1.3036 -0.2897
 8174TIP3   OH245936   4.675   2.681   5.911  0.0091 -0.7593  0.3050
 8174TIP3    H145937   4.641   2.759   5.954 -0.2857  0.8842 -2.8150
 8174TIP3    H245938   4.769   2.681   5.931 -0.1349 -0.0665  0.9695
 8175TIP3   OH245939   5.154   3.731  11.246 -0.6743 -0.0090 -0.3066
 8175TIP3    H145940   5.110   3.692  11.170  1.5904 -1.8542 -0.7482
 8175TIP3    H245941   5.247   3.724  11.226 -0.0902  1.5952  1.6516
 8176TIP3   OH245942   6.091   3.418  10.609  0.1580 -0.3032 -0.1407
 8176TIP3    H145943   6.173   3.403  10.562 -0.2197 -2.1776 -0.2553
 8176TIP3    H245944   6.112   3.402  10.701 -0.1216 -1.0122 -0.1956
 8177TIP3   OH245945   0.828   5.949   5.049  0.4028 -0.3586  0.4613
 8177TIP3    H145946   0.815   6.000   5.129  2.2721 -0.7795  1.0684
 8177TIP3    H245947   0.922   5.953   5.033  0.4266 -2.5733 -0.1506
 8178TIP3   OH245948   6.306   1.965  13.851 -0.2393 -0.1426 -0.1536
 8178TIP3    H145949   6.364   1.939  13.780 -0.0846  1.1581 -0.5019
 8178TIP3    H245950   6.223   1.920  13.832 -0.8666  1.8626 -2.3105
 8179TIP3   OH245951   2.876   0.411  14.583  0.0513 -0.5711  0.5480
 8179TIP3    H145952   2.902   0.467  14.510  0.6702 -1.6677 -0.0899
 8179TIP3    H245953   2.783   0.428  14.594  0.5204  1.7282  1.3843
 8180TIP3   OH245954   0.426   3.882   2.335 -0.8100  0.2799  0.0927
 8180TIP3    H145955   0.421   3.838   2.250 -1.2547 -0.4013  0.4601
 8180TIP3    H245956   0.510   3.855   2.371 -0.0239  1.6525 -0.7089
 8181TIP3   OH245957   4.090   1.294  13.111 -0.3129 -0.2397  0.2636
 8181TIP3    H145958   4.116   1.383  13.132  0.3166  0.2683 -2.5010
 8181TIP3    H245959   4.172   1.246  13.103 -0.5371 -0.4785 -0.6806
 8182TIP3   OH245960   0.155   3.729   5.787  0.1357  0.2915 -0.3028
 8182TIP3    H145961   0.215   3.655   5.776 -2.4301 -1.4902 -3.0844
 8182TIP3    H245962   0.201   3.803   5.747  2.0372 -0.1216  1.0293
 8183TIP3   OH245963   2.867   2.028  12.029  0.2453  0.2199 -0.4512
 8183TIP3    H145964   2.931   2.097  12.018  1.0439 -0.2398  1.2339
 8183TIP3    H245965   2.792   2.070  12.072  0.0855  0.3802 -0.8822
 8184TIP3   OH245966   2.169   3.582  14.435 -0.0307 -0.5332 -0.0082
 8184TIP3    H145967   2.250   3.544  14.471  0.6839 -0.6158 -1.6908
 8184TIP3    H245968   2.136   3.514  14.376  1.4327  1.5117 -3.3132
 8185TIP3   OH245969   0.823   0.907  11.823 -0.0069 -0.5770  0.3494
 8185TIP3    H145970   0.816   1.003  11.817  0.9082 -0.6211 -1.8169
 8185TIP3    H245971   0.733   0.877  11.835 -0.5552  0.4393 -1.0568
 8186TIP3   OH245972   4.936   3.426   0.687  0.0122 -0.3608 -0.0695
 8186TIP3    H145973   4.964   3.368   0.617 -0.0080 -0.4953  0.0348
 8186TIP3    H245974   4.862   3.381   0.728  1.5314 -1.4037  1.5780
 8187TIP3   OH245975   3.745   3.513  13.214 -0.2400 -0.2060 -0.6917
 8187TIP3    H145976   3.785   3.562  13.286 -1.6423 -0.6111  0.3848
 8187TIP3    H245977   3.696   3.578  13.164 -1.8093 -0.4130  0.5315
 8188TIP3   OH245978   2.728   5.468  12.569 -0.3430  0.0275 -0.3784
 8188TIP3    H145979   2.718   5.406  12.641 -0.2617  0.0162 -0.3766
 8188TIP3    H245980   2.775   5.418  12.501 -0.4342  0.0332 -0.4458
 8189TIP3   OH245981   3.458   2.921  16.922  0.0265  0.3694 -0.0741
 8189TIP3    H145982   3.412   2.841  16.896  0.1111  0.1311  0.5152
 8189TIP3    H245983   3.513   2.895  16.996  0.5853  0.8108 -0.3221
 8190TIP3   OH245984   2.089   4.783   3.717 -0.2848  0.4762 -0.5163
 8190TIP3    H145985   2.152   4.754   3.651  0.0750 -0.3874  0.1981
 8190TIP3    H245986   2.007   4.796   3.669 -0.0518 -0.2628 -1.1206
 8191TIP3   OH245987   4.260   5.160  15.791  0.2826 -0.1079  0.3358
 8191TIP3    H145988   4.223   5.248  15.802 -1.7670 -0.8901  0.0763
 8191TIP3    H245989   4.260   5.123  15.880 -1.7333 -0.9063  0.0353
 8192TIP3   OH245990   3.336   5.076  16.854 -0.4312 -0.3556  0.4021
 8192TIP3    H145991   3.430   5.066  16.871 -0.6155 -1.9213  0.5680
 8192TIP3    H245992   3.330   5.091  16.759  0.1530  2.3008  0.7518
 8193TIP3   OH245993   3.144   3.892  12.241  0.4273  0.3436  0.1449
 8193TIP3    H145994   3.116   3.800  12.244  0.0757  0.4166 -0.7179
 8193TIP3    H245995   3.065   3.940  12.218 -0.0734  1.1856  3.3798
 8194TIP3   OH245996   2.515   5.171  11.818 -0.3055  0.1579  0.4015
 8194TIP3    H145997   2.507   5.253  11.866 -1.7011 -0.4944  1.3191
 8194TIP3    H245998   2.558   5.111  11.880  2.0900  0.5873 -0.7783
 8195TIP3   OH245999   5.690   5.561  14.027 -0.5677 -0.3027  0.8780
 8195TIP3    H146000   5.613   5.519  14.065 -2.0019  1.1495 -0.3565
 8195TIP3    H246001   5.667   5.576  13.936  1.0830  0.4031  0.5525
 8196TIP3   OH246002   0.478   3.085   0.815  0.1942 -0.3714 -0.2179
 8196TIP3    H146003   0.417   3.084   0.888  0.0173 -1.4101 -0.3765
 8196TIP3    H246004   0.422   3.079   0.737  0.5555 -2.9367 -0.3167
 8197TIP3   OH246005   6.460   3.629   2.591 -0.2427 -0.1580 -0.0777
 8197TIP3    H146006   6.510   3.710   2.594  0.4603 -0.5659 -0.6441
 8197TIP3    H246007   6.369   3.656   2.599  0.0701  0.5846  1.0423
 8198TIP3   OH246008   5.255   3.086  11.158  0.3074 -0.4403  0.0460
 8198TIP3    H146009   5.307   3.148  11.106 -0.2252  0.1054  0.1670
 8198TIP3    H246010   5.283   3.000  11.126  0.0248 -0.1152 -1.1204
 8199TIP3   OH246011   1.535   2.077  15.147 -0.4605  0.5247 -0.7176
 8199TIP3    H146012   1.448   2.077  15.188  0.0931  1.0051  0.4616
 8199TIP3    H246013   1.528   2.144  15.078 -0.5055  1.8011  0.5095
 8200TIP3   OH246014   1.193   2.210   4.536  0.3092 -0.5481  0.6958
 8200TIP3    H146015   1.132   2.218   4.610 -0.3991 -1.3497  0.2113
 8200TIP3    H246016   1.191   2.296   4.493 -2.0705 -1.1701 -0.5291
 8201TIP3   OH246017   4.814   3.013   2.884 -0.2592  0.1754 -0.0585
 8201TIP3    H146018   4.783   3.071   2.814 -0.1715 -0.1525 -0.3689
 8201TIP3    H246019   4.737   2.962   2.908 -0.0786 -0.2937 -0.4870
 8202TIP3   OH246020   3.042   2.583  11.958  0.4752  0.3656  0.3545
 8202TIP3    H146021   2.982   2.588  11.884 -0.6973 -1.6369  1.1320
 8202TIP3    H246022   3.021   2.500  12.001  4.0332 -0.6096  0.4467
 8203TIP3   OH246023   2.467   6.671   1.120 -0.0855 -0.3692 -0.3095
 8203TIP3    H146024   2.542   6.712   1.077 -0.4456  0.3356 -0.2754
 8203TIP3    H246025   2.504   6.596   1.167  0.5991 -0.0122 -0.2746
 8204TIP3   OH246026   0.890   2.710  13.661  0.6491 -0.0169 -0.5082
 8204TIP3    H146027   0.921   2.619  13.660  1.2615  0.1897 -1.0103
 8204TIP3    H246028   0.809   2.709  13.610 -1.2641 -0.9316  2.4456
 8205TIP3   OH246029   2.755   5.219   4.319 -0.4512 -0.6293  0.2151
 8205TIP3    H146030   2.779   5.201   4.410  0.2106  0.0193  0.1739
 8205TIP3    H246031   2.801   5.153   4.269  0.4775 -0.0004  0.2227
 8206TIP3   OH246032   4.839   0.809   5.946 -0.3941 -0.3454  0.8457
 8206TIP3    H146033   4.899   0.805   6.021  2.8567  1.1201 -1.5580
 8206TIP3    H246034   4.805   0.720   5.937  2.7334 -1.6480  1.2923
 8207TIP3   OH246035   5.146   3.201  16.294  0.1375  0.3711  0.2573
 8207TIP3    H146036   5.170   3.213  16.386  0.3092  1.6508  0.0496
 8207TIP3    H246037   5.201   3.127  16.265  1.9691  1.6036  0.4946
 8208TIP3   OH246038   4.759   2.108   6.382 -0.6633 -0.2869  0.3921
 8208TIP3    H146039   4.670   2.135   6.404 -0.6387  0.0130  0.1317
 8208TIP3    H246040   4.799   2.187   6.344  0.7842  0.6236  3.5666
 8209TIP3   OH246041   1.871   3.522  14.900  0.6090 -0.4595 -0.3716
 8209TIP3    H146042   1.923   3.602  14.906  1.4898 -1.1489  2.0016
 8209TIP3    H246043   1.915   3.461  14.959 -1.4155 -1.9207 -0.3220
 8210TIP3   OH246044   5.996   5.769  14.328  0.0558  0.0812  0.2456
 8210TIP3    H146045   5.938   5.819  14.385 -0.1765 -0.9719  0.9390
 8210TIP3    H246046   6.002   5.683  14.369 -1.3122 -1.1871 -2.0980
 8211TIP3   OH246047   4.684   1.942  14.768  0.4165 -0.2419 -0.0747
 8211TIP3    H146048   4.698   2.028  14.809  0.9297 -0.9549  1.2808
 8211TIP3    H246049   4.614   1.957  14.705  1.8077  1.6003 -1.2257
 8212TIP3   OH246050   3.456   4.090  10.964 -0.2589 -0.0716  0.0058
 8212TIP3    H146051   3.432   4.009  11.009  3.0286  0.1741  2.4233
 8212TIP3    H246052   3.471   4.064  10.873 -1.1241 -1.8033  0.3474
 8213TIP3   OH246053   2.885   5.358  15.269 -0.8286 -0.2842  0.4191
 8213TIP3    H146054   2.883   5.265  15.246  1.7082 -0.3360  0.2397
 8213TIP3    H246055   2.918   5.401  15.190  0.1401  0.4882  1.2401
 8214TIP3   OH246056   1.701   0.443  13.819  0.9428 -0.0384 -0.0057
 8214TIP3    H146057   1.749   0.364  13.845  0.7313 -0.6029 -1.2831
 8214TIP3    H246058   1.764   0.514  13.831  1.4093 -0.5002  0.3435
 8215TIP3   OH246059   1.715   0.335  16.847 -0.5575 -0.2078  0.2228
 8215TIP3    H146060   1.746   0.245  16.832 -0.1598 -0.0394  0.0317
 8215TIP3    H246061   1.699   0.339  16.941  0.1655 -0.2450  0.3489
 8216TIP3   OH246062   3.639   1.778  14.322 -0.5095 -0.7189  0.2282
 8216TIP3    H146063   3.688   1.737  14.393  1.8495  0.3737 -0.7370
 8216TIP3    H246064   3.702   1.837  14.280 -3.1766  2.2941  0.2403
 8217TIP3   OH246065   2.175   2.306   1.782 -0.2725 -0.0143  0.8869
 8217TIP3    H146066   2.101   2.329   1.726 -0.6507  1.0179  1.7956
 8217TIP3    H246067   2.234   2.381   1.776  0.9719 -1.0605 -0.2510
 8218TIP3   OH246068   3.392   1.030   1.331 -0.5724  0.0152 -0.8877
 8218TIP3    H146069   3.443   1.095   1.378  0.1690 -0.0457 -1.5869
 8218TIP3    H246070   3.347   1.080   1.262 -0.8353 -0.0516 -0.7655
 8219TIP3   OH246071   4.167   2.686   5.952  0.4991  0.4213  0.3458
 8219TIP3    H146072   4.244   2.632   5.934  2.3791  2.5008  1.8117
 8219TIP3    H246073   4.145   2.666   6.043  0.0414  0.7256  0.3021
 8220TIP3   OH246074   0.352   6.690   2.680  0.6492  0.1421 -0.4155
 8220TIP3    H146075   0.434   6.663   2.722 -0.5643 -0.4155  1.7102
 8220TIP3    H246076   0.375   6.768   2.629  2.7010 -0.6291 -0.6987
 8221TIP3   OH246077   1.052   6.054  17.231  0.0530 -0.2461 -0.9141
 8221TIP3    H146078   0.971   6.028  17.188 -1.5129  2.1098  0.4596
 8221TIP3    H246079   1.080   6.132  17.184 -0.0432  0.5931  0.3869
 8222TIP3   OH246080   5.434   3.268  11.016 -0.2153 -0.2828  0.1699
 8222TIP3    H146081   5.498   3.340  11.018 -0.4226 -0.0839 -0.2673
 8222TIP3    H246082   5.455   3.220  10.936 -0.9565  0.0976 -0.2554
 8223TIP3   OH246083   1.379   6.253  14.469  0.6367 -0.6906 -0.0998
 8223TIP3    H146084   1.343   6.171  14.436 -1.1823 -0.7573  1.9612
 8223TIP3    H246085   1.385   6.240  14.563  0.0245  1.6539  0.2849
 8224TIP3   OH246086   6.173   5.071   5.172  0.0122 -0.4001  0.4826
 8224TIP3    H146087   6.219   5.147   5.138 -1.1315  0.4049  0.7144
 8224TIP3    H246088   6.093   5.106   5.210 -0.7049 -1.7603  0.2705
 8225TIP3   OH246089   4.817   0.645  15.325  0.1830 -0.1451  0.4454
 8225TIP3    H146090   4.810   0.606  15.412 -0.9344 -1.7773 -0.3553
 8225TIP3    H246091   4.738   0.617  15.280  2.0481 -1.6610 -2.0246
 8226TIP3   OH246092   4.407   4.912  16.427 -0.6112  0.0383  0.6733
 8226TIP3    H146093   4.500   4.905  16.407 -0.8675  2.6480 -1.6883
 8226TIP3    H246094   4.366   4.846  16.372 -0.1585 -1.2649  1.8782
 8227TIP3   OH246095   1.786   1.340  11.903  0.0291 -0.1417 -0.4562
 8227TIP3    H146096   1.723   1.384  11.960  1.3713  0.6543  0.4539
 8227TIP3    H246097   1.866   1.335  11.955  1.1889  0.3003 -2.1425
 8228TIP3   OH246098   6.528   3.792  12.216  0.1681  0.6599  0.6968
 8228TIP3    H146099   6.474   3.714  12.226  1.6828 -0.2583  1.9304
 8228TIP3    H246100   6.485   3.843  12.147  0.4306 -2.3392 -1.7641
 8229TIP3   OH246101   3.317   3.133  10.932 -0.1861 -0.1544 -0.7035
 8229TIP3    H146102   3.318   3.067  11.002 -1.2961 -0.8158 -1.2945
 8229TIP3    H246103   3.407   3.163  10.926 -0.1996  0.5112  1.5781
 8230TIP3   OH246104   6.342   1.420  13.933  0.3695 -0.1432 -0.6420
 8230TIP3    H146105   6.413   1.404  13.871 -0.3291 -1.7212 -1.0620
 8230TIP3    H246106   6.337   1.341  13.986 -1.5113 -0.3535 -1.0738
 8231TIP3   OH246107   4.989   1.771   4.560 -0.7273 -0.5296 -0.2812
 8231TIP3    H146108   4.915   1.710   4.557 -1.4084  0.2655  0.0881
 8231TIP3    H246109   4.958   1.842   4.616 -0.3574  0.7003 -1.6314
 8232TIP3   OH246110   2.105   1.448   0.728  0.5162  0.6486  0.0498
 8232TIP3    H146111   2.167   1.382   0.761 -0.9183  0.6555  2.8465
 8232TIP3    H246112   2.020   1.406   0.734 -0.2176  2.1440  0.1615
 8233TIP3   OH246113   5.077   6.396   5.664  0.4971  0.7490 -0.0895
 8233TIP3    H146114   5.158   6.356   5.631  1.4130  1.2330  1.5349
 8233TIP3    H246115   5.106   6.476   5.709 -1.2330  2.9267 -2.6690
 8234TIP3   OH246116   6.565   0.278   2.436 -0.3791  0.2943 -0.0462
 8234TIP3    H146117   6.648   0.277   2.389 -0.6651  0.7285 -0.5623
 8234TIP3    H246118   6.586   0.313   2.523 -0.0665  0.6216 -0.2570
 8235TIP3   OH246119   1.844   6.521  13.415  0.0224 -1.1853  0.6755
 8235TIP3    H146120   1.845   6.616  13.430 -0.8508 -1.0132 -0.2990
 8235TIP3    H246121   1.752   6.500  13.396  0.0803 -2.3498  1.6170
 8236TIP3   OH246122   2.298   6.415  13.353  0.3647 -0.1316 -0.3516
 8236TIP3    H146123   2.206   6.438  13.367  0.1087 -0.0488 -2.0814
 8236TIP3    H246124   2.305   6.324  13.381 -0.3919 -0.3234 -0.7696
 8237TIP3   OH246125   1.143   2.851   2.186  0.2324 -0.5021 -0.1736
 8237TIP3    H146126   1.163   2.898   2.105 -1.0030 -0.0567 -0.2201
 8237TIP3    H246127   1.162   2.914   2.256  0.5619 -0.6285 -0.1491
 8238TIP3   OH246128   1.022   4.538   3.879 -0.1713  0.0987  0.3215
 8238TIP3    H146129   0.978   4.473   3.935  0.3276  0.8909  1.6551
 8238TIP3    H246130   0.950   4.591   3.843 -0.3854  0.8341  1.7980
 8239TIP3   OH246131   5.520   0.870  11.166  0.6982 -0.2597  0.2068
 8239TIP3    H146132   5.448   0.814  11.139 -2.0796  2.6179  1.3507
 8239TIP3    H246133   5.515   0.871  11.262  1.9371  0.3820  0.2733
 8240TIP3   OH246134   6.085   0.349   5.685 -0.5436  0.2121 -0.3617
 8240TIP3    H146135   6.089   0.292   5.762 -1.2628  2.5542  1.4572
 8240TIP3    H246136   6.075   0.289   5.611 -0.0137 -2.0651  1.3731
 8241TIP3   OH246137   2.169   1.052   2.581  0.6120 -0.6112 -0.0032
 8241TIP3    H146138   2.119   0.997   2.641  1.7946  0.1788  1.7323
 8241TIP3    H246139   2.163   1.140   2.617 -2.3451  0.7458 -3.4440
 8242TIP3   OH246140   1.056   6.656  14.027  0.0431 -0.0545  0.3698
 8242TIP3    H146141   0.975   6.669  13.977  1.2939  1.2467 -1.3566
 8242TIP3    H246142   1.082   6.566  14.009 -1.4035 -0.7413  1.5506
 8243TIP3   OH246143   6.567   1.764   4.415  0.3645 -0.6888 -0.1610
 8243TIP3    H146144   6.593   1.708   4.488 -1.6062 -2.8926 -1.0659
 8243TIP3    H246145   6.649   1.801   4.382  1.2980  0.0781  2.9248
 8244TIP3   OH246146   4.692   2.789   3.009 -0.0612 -0.5013 -0.3086
 8244TIP3    H146147   4.730   2.740   2.935 -0.4854 -0.3960 -0.5999
 8244TIP3    H246148   4.649   2.722   3.063  1.0259 -0.6957  0.3286
 8245TIP3   OH246149   3.611   1.465   0.708 -0.4785  0.4400 -0.4126
 8245TIP3    H146150   3.616   1.375   0.676 -0.3357  0.1295  0.4656
 8245TIP3    H246151   3.559   1.459   0.788  2.0465  0.6595  1.2999
 8246TIP3   OH246152   5.199   2.672   6.222  0.2158  0.0097 -0.1210
 8246TIP3    H146153   5.155   2.594   6.188 -0.2196  0.3160 -0.2599
 8246TIP3    H246154   5.289   2.644   6.238  0.3590 -0.1939 -1.2945
 8247TIP3   OH246155   5.812   0.868  12.139 -0.2270 -0.0291 -0.6907
 8247TIP3    H146156   5.816   0.797  12.203 -0.7014 -0.7888 -1.4883
 8247TIP3    H246157   5.752   0.931  12.177  1.4513  0.7390  0.7901
 8248TIP3   OH246158   1.266   0.885  11.691  0.0039  0.2463 -0.0777
 8248TIP3    H146159   1.192   0.838  11.728  0.8384  0.0174  1.3340
 8248TIP3    H246160   1.323   0.817  11.655  0.4263  0.2866  0.5093
 8249TIP3   OH246161   3.791   0.595  16.310  0.2067 -0.1148 -0.2832
 8249TIP3    H146162   3.733   0.650  16.257  1.4244  0.8009 -0.7014
 8249TIP3    H246163   3.755   0.507  16.303  0.2172  0.0328 -2.4865
 8250TIP3   OH246164   1.990   1.196  12.959 -0.2395  0.2241 -0.0105
 8250TIP3    H146165   2.072   1.194  12.910 -0.2937 -0.6113 -0.0713
 8250TIP3    H246166   1.994   1.278  13.009  0.8041  0.0044  0.2851
 8251TIP3   OH246167   0.167   3.078  12.820  0.4176  0.5626 -0.1707
 8251TIP3    H146168   0.109   3.147  12.790  0.1151  0.3755 -0.0158
 8251TIP3    H246169   0.119   2.997  12.803  0.9354  0.3690 -0.7211
 8252TIP3   OH246170   4.253   3.752   4.291  0.3753 -0.1823 -0.2646
 8252TIP3    H146171   4.184   3.815   4.310  1.6205  0.3683  2.5841
 8252TIP3    H246172   4.311   3.799   4.231 -0.7670 -0.0379 -1.2877
 8253TIP3   OH246173   5.359   0.949  12.915 -0.3710  0.0664 -0.2922
 8253TIP3    H146174   5.384   1.012  12.983  1.3262 -2.2314  1.2795
 8253TIP3    H246175   5.386   0.990  12.833  2.0835  0.7499  0.8301
 8254TIP3   OH246176   6.165   2.302  13.257  0.0252 -0.2044 -0.0257
 8254TIP3    H146177   6.152   2.366  13.187  1.1142 -0.8700 -0.8510
 8254TIP3    H246178   6.077   2.268  13.275 -0.3227  0.2852 -0.7630
 8255TIP3   OH246179   5.482   1.445  12.631 -0.2182  0.0747 -0.7490
 8255TIP3    H146180   5.409   1.422  12.574  0.3810 -0.2960 -1.3841
 8255TIP3    H246181   5.442   1.472  12.713 -1.0541 -0.3223 -1.0246
 8256TIP3   OH246182   5.806   0.882  16.780 -0.1174  0.2734 -0.0070
 8256TIP3    H146183   5.803   0.806  16.721 -0.9510  1.6830 -1.8328
 8256TIP3    H246184   5.717   0.887  16.816 -0.0113  0.2629  0.2527
 8257TIP3   OH246185   4.984   4.099   0.749  0.4880 -0.4178 -0.5099
 8257TIP3    H146186   4.926   4.031   0.784  0.0896 -0.5258 -1.3730
 8257TIP3    H246187   4.981   4.169   0.814  3.0914 -2.3476  1.8093
 8258TIP3   OH246188   4.607   0.337  15.594  0.5898  0.0387  0.2442
 8258TIP3    H146189   4.590   0.291  15.513 -1.1492 -0.3885  0.8299
 8258TIP3    H246190   4.590   0.273  15.663 -0.3440  1.1027  1.0185
 8259TIP3   OH246191   5.654   1.159  11.659  0.0255 -0.2730 -0.2606
 8259TIP3    H146192   5.695   1.244  11.643 -0.9957  0.2945  0.1426
 8259TIP3    H246193   5.712   1.117  11.722  0.1747  0.3894  0.0512
 8260TIP3   OH246194   4.520   4.762  12.793 -0.4565 -0.0295 -0.4683
 8260TIP3    H146195   4.445   4.731  12.844 -1.0115  0.6193 -0.8954
 8260TIP3    H246196   4.531   4.695  12.725  0.4759 -1.0584  0.6718
 8261TIP3   OH246197   1.190   4.736   4.889 -0.0024  0.2041  0.3965
 8261TIP3    H146198   1.153   4.736   4.977 -0.6492 -0.3547  0.1293
 8261TIP3    H246199   1.284   4.746   4.903 -0.1914  1.0566  1.1043
 8262TIP3   OH246200   3.518   5.617  16.018  0.1730  0.6633 -0.0656
 8262TIP3    H146201   3.483   5.535  15.983  0.5160 -0.0860  1.3231
 8262TIP3    H246202   3.443   5.675  16.024 -0.1494  0.3165 -0.6452
 8263TIP3   OH246203   3.094   2.387  14.731 -0.1787  0.1712  0.2175
 8263TIP3    H146204   3.154   2.337  14.787 -0.6199 -0.2901  0.2800
 8263TIP3    H246205   3.029   2.423  14.790 -1.5409 -1.6038 -0.1696
 8264TIP3   OH246206   6.335   3.143   4.616  1.0967 -0.1059  0.4498
 8264TIP3    H146207   6.304   3.084   4.547  0.7682  1.3954 -0.7103
 8264TIP3    H246208   6.282   3.120   4.693 -0.0158 -0.3577 -0.3767
 8265TIP3   OH246209   5.368   1.917   0.212 -0.5949  0.0905 -0.0597
 8265TIP3    H146210   5.356   1.825   0.192  0.1658  0.0639 -0.3923
 8265TIP3    H246211   5.290   1.960   0.177 -1.1908 -0.4828  0.5454
 8266TIP3   OH246212   6.029   5.151   3.946 -0.1157 -0.0022  0.3704
 8266TIP3    H146213   6.036   5.070   3.996 -1.8007 -1.0828 -1.0435
 8266TIP3    H246214   5.951   5.138   3.892 -0.2199  2.4497 -0.1082
 8267TIP3   OH246215   4.985   3.350  14.091 -0.2816 -0.3837 -0.0488
 8267TIP3    H146216   5.019   3.261  14.095 -2.1253 -1.1505 -0.9627
 8267TIP3    H246217   5.000   3.378  14.001  0.1717  0.1739  0.2005
 8268TIP3   OH246218   1.875   6.248  11.683 -0.0512  0.9932 -0.5911
 8268TIP3    H146219   1.961   6.232  11.645  0.5803  0.3979  1.0141
 8268TIP3    H246220   1.848   6.332  11.647  1.1913  1.1630 -1.1587
 8269TIP3   OH246221   1.346   0.008  12.019  0.2139  0.4225 -0.9364
 8269TIP3    H146222   1.370   0.049  11.936  0.2459  0.1152 -1.0793
 8269TIP3    H246223   1.389  -0.077  12.018 -1.9443 -0.6990 -1.7965
 8270TIP3   OH246224   1.693   0.496  16.229 -0.7295  1.0079  0.5318
 8270TIP3    H146225   1.660   0.583  16.209 -1.2470  0.2973 -1.8301
 8270TIP3    H246226   1.619   0.438  16.213  0.3682 -0.1362 -0.5018
 8271TIP3   OH246227   0.829   1.312  16.008  0.5496 -0.4941  0.0375
 8271TIP3    H146228   0.878   1.230  15.998 -0.3591 -1.1281  0.7635
 8271TIP3    H246229   0.759   1.306  15.944  2.0576  0.9252 -1.8151
 8272TIP3   OH246230   1.224   0.968  14.117 -0.1005  0.5736  0.1072
 8272TIP3    H146231   1.208   0.876  14.138  1.4922  0.2118 -0.2181
 8272TIP3    H246232   1.179   0.982  14.033 -1.6668  0.5227  0.9199
 8273TIP3   OH246233   1.511   2.672   1.761 -0.6779 -0.3336  0.1652
 8273TIP3    H146234   1.573   2.687   1.690  0.4080 -0.2667  1.1058
 8273TIP3    H246235   1.428   2.656   1.717  0.6918 -4.1156 -1.3083
 8274TIP3   OH246236   0.512   3.548  16.744  0.0193  0.0891 -0.4470
 8274TIP3    H146237   0.486   3.462  16.779 -1.7023  0.7538 -0.0387
 8274TIP3    H246238   0.529   3.601  16.821  0.5399  0.2961 -0.6981
 8275TIP3   OH246239   5.148   5.717  14.379  0.0197  0.2897  0.2240
 8275TIP3    H146240   5.195   5.794  14.347  1.7772  1.0047  4.2005
 8275TIP3    H246241   5.055   5.741  14.370  0.5212  2.0685 -0.4234
 8276TIP3   OH246242   0.577   1.033   3.380  0.2684 -0.9239  0.6264
 8276TIP3    H146243   0.586   1.116   3.334  0.4607 -2.0382 -1.4010
 8276TIP3    H246244   0.646   1.035   3.447  0.4091  0.4512  0.4498
 8277TIP3   OH246245   4.077   1.504  17.035 -0.0593 -0.2729  0.4666
 8277TIP3    H146246   4.108   1.582  16.989  1.2680  1.1595  3.6540
 8277TIP3    H246247   4.046   1.446  16.965  2.8453  1.3406 -2.3060
 8278TIP3   OH246248   1.746   2.029   1.806 -0.1499 -0.1931  0.8328
 8278TIP3    H146249   1.812   1.960   1.802 -0.0779 -0.1500  1.2728
 8278TIP3    H246250   1.714   2.037   1.716  0.2747 -0.3772  0.6631
 8279TIP3   OH246251   3.204   0.721   5.105  0.0976  0.4493  0.2833
 8279TIP3    H146252   3.252   0.674   5.174  1.5456  2.7502  0.9005
 8279TIP3    H246253   3.271   0.744   5.040 -1.1693 -1.2439 -1.6731
 8280TIP3   OH246254   5.652   1.814  11.503 -0.8660 -0.1400  0.8711
 8280TIP3    H146255   5.598   1.764  11.442 -0.3956  0.0773  0.2698
 8280TIP3    H246256   5.697   1.878  11.448  0.9165 -1.0961  1.1824
 8281TIP3   OH246257   2.281   3.309  16.951 -0.0651  0.4288 -0.1435
 8281TIP3    H146258   2.283   3.385  17.010  0.8436  1.3645 -1.3299
 8281TIP3    H246259   2.258   3.346  16.866 -1.1137 -0.8677 -0.4403
 8282TIP3   OH246260   0.642   4.106   2.325  0.0028  0.3449 -0.5637
 8282TIP3    H146261   0.653   4.115   2.230 -0.5470  1.8076 -0.4878
 8282TIP3    H246262   0.596   4.022   2.335  0.4649 -0.0400 -1.5602
 8283TIP3   OH246263   2.176   4.486  15.804 -0.1863 -0.1412  0.3181
 8283TIP3    H146264   2.214   4.521  15.884  0.6475  1.1815 -0.6277
 8283TIP3    H246265   2.089   4.526  15.798 -0.4497 -0.6371  0.8186
 8284TIP3   OH246266   4.916   5.492  14.981 -0.8567  0.1787 -0.7842
 8284TIP3    H146267   4.844   5.438  14.946 -0.9085  1.4168 -2.6553
 8284TIP3    H246268   4.885   5.522  15.066 -2.3710  0.3280 -1.3806
 8285TIP3   OH246269   6.488   1.687   2.000 -0.6829 -0.4353 -0.1111
 8285TIP3    H146270   6.564   1.676   2.058 -0.7315 -0.2726 -0.0180
 8285TIP3    H246271   6.429   1.744   2.048  0.4211  1.8604 -1.3888
 8286TIP3   OH246272   3.483   4.759  12.061  0.6229 -0.3720 -0.1065
 8286TIP3    H146273   3.455   4.830  12.003 -1.0975 -1.1420 -0.2680
 8286TIP3    H246274   3.576   4.745  12.040  0.0713 -0.5468 -2.6129
 8287TIP3   OH246275   5.569   5.620  16.333 -0.5787  0.6135 -0.2071
 8287TIP3    H146276   5.569   5.704  16.287  0.6485  1.5271  1.4069
 8287TIP3    H246277   5.562   5.643  16.425 -0.6127 -1.0951  0.2352
 8288TIP3   OH246278   3.803   0.554  12.097  0.0531  0.1633  0.4483
 8288TIP3    H146279   3.824   0.586  12.184  0.6830 -0.1164  0.3973
 8288TIP3    H246280   3.814   0.460  12.102 -0.1968  0.1156  0.1455
 8289TIP3   OH246281   4.581   1.910  12.053 -0.0105  0.1426  0.5829
 8289TIP3    H146282   4.604   1.939  11.965 -0.1421  1.6607  1.0405
 8289TIP3    H246283   4.659   1.928  12.106  0.1794 -1.0534  0.7195
 8290TIP3   OH246284   4.002   2.934  11.244  0.1602  0.3837  0.1580
 8290TIP3    H146285   4.055   2.923  11.323  0.9242 -1.7730 -0.6186
 8290TIP3    H246286   3.958   3.018  11.256  1.3027  0.7107  2.2621
 8291TIP3   OH246287   0.962   1.678  16.872  0.1444  0.2128  0.2415
 8291TIP3    H146288   1.038   1.646  16.823 -1.2314 -0.1639 -1.7215
 8291TIP3    H246289   0.971   1.773  16.872  0.0837  0.2224 -0.8880
 8292TIP3   OH246290   5.092   5.816  11.619  0.4928 -0.1136  0.7390
 8292TIP3    H146291   5.067   5.729  11.650 -0.7821 -0.1947 -0.4673
 8292TIP3    H246292   5.050   5.824  11.534  0.2511  1.8528  1.0158
 8293TIP3   OH246293   2.241   0.493   4.307  0.8395 -0.2300  0.0583
 8293TIP3    H146294   2.271   0.502   4.216 -1.8414 -0.8451 -0.9458
 8293TIP3    H246295   2.295   0.423   4.343  1.2716 -0.6566 -1.3621
 8294TIP3   OH246296   4.682   6.257   4.726 -0.6044 -0.0909  0.0032
 8294TIP3    H146297   4.647   6.249   4.638  0.4618 -1.1405 -0.3365
 8294TIP3    H246298   4.613   6.224   4.783 -1.9283  2.0797 -0.2944
 8295TIP3   OH246299   5.392   3.013  11.592  0.7353 -0.0444  0.0309
 8295TIP3    H146300   5.346   3.097  11.591  0.3666 -0.1963  1.8471
 8295TIP3    H246301   5.338   2.956  11.538 -0.0921  0.3646  0.4121
 8296TIP3   OH246302   5.217   5.288  12.232 -0.1814 -0.6715 -0.0376
 8296TIP3    H146303   5.143   5.230  12.251 -0.6901 -0.6324 -1.7722
 8296TIP3    H246304   5.181   5.354  12.173  1.2080 -0.5899 -0.8200
 8297TIP3   OH246305   2.435   6.203  15.829  0.2194 -0.2020 -0.8070
 8297TIP3    H146306   2.370   6.264  15.793  0.1935 -0.6831 -1.5738
 8297TIP3    H246307   2.492   6.182  15.755  0.5066 -0.7490 -0.4301
 8298TIP3   OH246308   1.988   0.587  14.853 -0.0079 -0.2382  0.3116
 8298TIP3    H146309   1.928   0.528  14.807 -1.0218  0.4698  0.7129
 8298TIP3    H246310   1.938   0.619  14.927  0.4090  1.4340 -0.1215
 8299TIP3   OH246311   5.748   4.818  13.183  0.2435 -0.1774  0.4965
 8299TIP3    H146312   5.747   4.768  13.101 -0.9050 -0.0334  0.4241
 8299TIP3    H246313   5.780   4.905  13.157  2.3475 -0.8650  0.6409
 8300TIP3   OH246314   6.437   4.774  16.199  0.3604 -0.8900  0.3537
 8300TIP3    H146315   6.525   4.784  16.164 -0.0939  0.2410 -0.5119
 8300TIP3    H246316   6.431   4.841  16.267  0.4728 -1.5836  1.0595
 8301TIP3   OH246317   3.629   3.925  12.739 -0.1253  0.1897  0.1436
 8301TIP3    H146318   3.556   3.980  12.710  0.4490  0.9535  0.1275
 8301TIP3    H246319   3.588   3.846  12.774 -0.9436  0.4900 -0.1394
 8302TIP3   OH246320   6.312   5.996  14.950  0.0890 -0.0596 -0.7005
 8302TIP3    H146321   6.233   5.947  14.970  0.5874 -1.6236 -2.4552
 8302TIP3    H246322   6.327   6.051  15.028 -0.6120 -2.4911  1.2059
 8303TIP3   OH246323   3.936   3.567   4.895 -0.3714 -0.4301  0.3876
 8303TIP3    H146324   4.031   3.553   4.898 -0.1684  0.8436  0.4624
 8303TIP3    H246325   3.924   3.653   4.936 -1.5984 -0.7601  0.7345
 8304TIP3   OH246326   3.215   1.974   3.787 -0.0355  0.0968  0.1294
 8304TIP3    H146327   3.289   1.933   3.831 -0.0924 -0.2981 -0.1399
 8304TIP3    H246328   3.233   1.963   3.694 -0.1636  0.4852  0.0596
 8305TIP3   OH246329   3.337   6.749   0.604 -0.0207 -0.3976 -0.2030
 8305TIP3    H146330   3.263   6.767   0.663  0.2132 -2.0768  0.6534
 8305TIP3    H246331   3.328   6.814   0.534 -1.2018  0.6489  0.8771
 8306TIP3   OH246332   2.698   5.610   4.758  0.3405 -0.3178 -0.2985
 8306TIP3    H146333   2.664   5.527   4.791 -0.8590 -0.7017 -2.3716
 8306TIP3    H246334   2.654   5.677   4.810 -2.2738 -0.8813 -1.7062
 8307TIP3   OH246335   2.688   4.540  10.519 -0.1856  0.3061 -0.5079
 8307TIP3    H146336   2.689   4.635  10.506 -1.9025  0.2357 -1.2776
 8307TIP3    H246337   2.664   4.504  10.434  0.9769 -0.8547 -0.3529
 8308TIP3   OH246338   5.727   1.407   3.265  0.0593  0.6335 -0.5843
 8308TIP3    H146339   5.783   1.345   3.219  0.9749  0.6585  0.4817
 8308TIP3    H246340   5.744   1.491   3.223 -0.9146  0.2295 -1.7922
 8309TIP3   OH246341   2.966   3.171   0.753 -0.5602 -0.1552  0.2240
 8309TIP3    H146342   2.904   3.116   0.705 -0.5957  1.5331 -1.7166
 8309TIP3    H246343   2.928   3.259   0.749  1.9528  0.9240 -1.0410
 8310TIP3   OH246344   2.086   6.141   1.796  0.0748 -0.3271 -0.2134
 8310TIP3    H146345   2.148   6.082   1.752 -1.2196 -0.1979 -2.2577
 8310TIP3    H246346   2.058   6.202   1.729 -0.4704  1.1203  1.2901
 8311TIP3   OH246347   6.615   1.732  16.512  0.3201 -0.0972  0.4512
 8311TIP3    H146348   6.633   1.641  16.490  0.3270 -0.0707  0.3505
 8311TIP3    H246349   6.520   1.739  16.506  0.4348  0.2735 -0.9553
 8312TIP3   OH246350   6.229   1.944   1.011  0.3419 -0.5370 -0.5596
 8312TIP3    H146351   6.293   1.940   1.082 -1.3796  1.7939  1.2112
 8312TIP3    H246352   6.204   1.853   0.996  2.1852 -1.2352  0.4914
 8313TIP3   OH246353   2.097   0.607  12.736 -0.5704 -0.1225 -0.1416
 8313TIP3    H146354   2.133   0.519  12.745  0.9806  0.4695 -0.4162
 8313TIP3    H246355   2.010   0.601  12.775 -0.3374 -1.6780  0.1833
 8314TIP3   OH246356   6.253   0.279   1.602 -0.7266  0.5341 -0.7392
 8314TIP3    H146357   6.207   0.223   1.539 -0.1122 -0.4022 -0.3820
 8314TIP3    H246358   6.201   0.273   1.682 -0.7032  0.5327 -0.7241
 8315TIP3   OH246359   4.961   6.703   0.380 -0.1480  0.0082  0.2861
 8315TIP3    H146360   4.959   6.796   0.357 -0.4251 -0.2627 -0.7944
 8315TIP3    H246361   4.871   6.682   0.403 -0.4922 -0.4779 -1.4476
 8316TIP3   OH246362   4.636   3.890  16.812 -0.0363 -0.7033 -0.0176
 8316TIP3    H146363   4.600   3.837  16.883  0.3883 -0.7540  0.1630
 8316TIP3    H246364   4.617   3.841  16.733 -0.8413 -0.4711  0.0225
 8317TIP3   OH246365   1.042   3.343  13.176  0.4795  0.1734  0.1198
 8317TIP3    H146366   1.111   3.397  13.139  1.6272 -0.7863  0.7939
 8317TIP3    H246367   1.088   3.264  13.207 -0.7057  0.1338  1.8388
 8318TIP3   OH246368   3.850   2.725   1.500 -0.5393 -0.4169  0.3862
 8318TIP3    H146369   3.844   2.647   1.444  0.1949 -0.8133  0.8542
 8318TIP3    H246370   3.775   2.778   1.474 -0.6286 -0.9380 -0.4583
 8319TIP3   OH246371   3.619   0.540   6.512 -0.3165 -0.3089  0.6260
 8319TIP3    H146372   3.539   0.588   6.532 -0.7409 -2.0741  3.3817
 8319TIP3    H246373   3.687   0.584   6.564  0.6347  1.2947 -1.8325
 8320TIP3   OH246374   5.429   0.879  16.504 -0.0515 -0.1822  0.4451
 8320TIP3    H146375   5.400   0.958  16.550  0.0049  2.1979 -3.4245
 8320TIP3    H246376   5.524   0.890  16.496 -0.0954 -0.4312 -0.4324
 8321TIP3   OH246377   3.108   6.396   4.109  0.0431 -0.1070 -0.0993
 8321TIP3    H146378   3.112   6.443   4.026 -0.4236  1.0358  0.5104
 8321TIP3    H246379   3.170   6.442   4.166  0.6346 -1.1106  0.0734
 8322TIP3   OH246380   0.080   4.009  17.214  0.3988 -0.0017 -0.4123
 8322TIP3    H146381  -0.001   3.970  17.181 -0.1262  0.9514 -0.2642
 8322TIP3    H246382   0.058   4.040  17.302  0.9988  0.0262 -0.2678
 8323TIP3   OH246383   6.782   3.801  13.480 -0.2644  0.4765 -0.1259
 8323TIP3    H146384   6.845   3.737  13.447 -0.0122 -0.2775  1.7560
 8323TIP3    H246385   6.697   3.760  13.464 -0.1698  0.3685 -0.3571
 8324TIP3   OH246386   6.166   0.439  12.410  0.1447  0.2799  0.1055
 8324TIP3    H146387   6.196   0.529  12.398  1.6120 -0.0424  1.2307
 8324TIP3    H246388   6.131   0.415  12.325 -0.0398  1.8374 -0.2814
 8325TIP3   OH246389   6.394   4.485   3.321  0.6748 -0.0976 -0.5049
 8325TIP3    H146390   6.472   4.538   3.307 -0.8060  2.6493  1.0575
 8325TIP3    H246391   6.409   4.442   3.405  0.3018  0.8944  0.0828
 8326TIP3   OH246392   2.248   1.032  14.546 -0.1796  0.4390  0.1523
 8326TIP3    H146393   2.300   1.072  14.616 -1.2994  0.4290  0.9964
 8326TIP3    H246394   2.297   0.954  14.522 -0.3808 -0.1807  1.7247
 8327TIP3   OH246395   4.900   5.810   2.616 -0.3352 -0.4358  0.0086
 8327TIP3    H146396   4.963   5.758   2.567  0.8615 -1.1677  2.2598
 8327TIP3    H246397   4.952   5.865   2.674 -1.6880  1.0609 -0.1356
 8328TIP3   OH246398   2.515   2.459   0.764 -0.3869  0.5587  0.5493
 8328TIP3    H146399   2.579   2.466   0.834  1.1451  0.8880 -0.8631
 8328TIP3    H246400   2.465   2.379   0.785  1.0275 -0.1635  1.2038
 8329TIP3   OH246401   6.315   5.166  13.640 -0.2618  0.2283  0.2371
 8329TIP3    H146402   6.390   5.191  13.693  0.0672  2.9667 -1.4163
 8329TIP3    H246403   6.348   5.098  13.582  0.5452  0.3490  0.5566
 8330TIP3   OH246404   1.509   3.329   4.557  0.3023  0.5929  0.0111
 8330TIP3    H146405   1.576   3.266   4.533 -0.3242 -0.5078  1.1067
 8330TIP3    H246406   1.489   3.375   4.475 -0.2910 -1.6375 -1.1272
 8331TIP3   OH246407   0.590   6.642  11.738 -0.1154  0.0468 -0.2497
 8331TIP3    H146408   0.636   6.678  11.814 -0.3949  0.0321 -0.0692
 8331TIP3    H246409   0.521   6.588  11.776  0.6166 -1.0790 -0.5222
 8332TIP3   OH246410   5.043   2.001   0.995 -0.0175 -0.6070  0.1019
 8332TIP3    H146411   5.048   2.068   0.927 -0.1554 -1.0798 -0.3832
 8332TIP3    H246412   4.952   1.972   0.995  0.4092 -2.0311 -0.9232
 8333TIP3   OH246413   2.251   5.129   2.977 -0.3547  0.0134 -0.1496
 8333TIP3    H146414   2.262   5.152   3.069 -0.1907  0.4824 -0.2854
 8333TIP3    H246415   2.252   5.033   2.976  0.8013  0.0113  0.1995
 8334TIP3   OH246416   4.852   1.655   3.129  0.8956 -0.6756  0.6127
 8334TIP3    H146417   4.831   1.634   3.220  2.9427 -1.8692  0.8620
 8334TIP3    H246418   4.946   1.636   3.122  0.6282 -1.2175 -1.9158
 8335TIP3   OH246419   5.452   5.220  15.842  0.0225 -0.0631  0.1337
 8335TIP3    H146420   5.528   5.168  15.817  1.1383  1.6160 -0.1020
 8335TIP3    H246421   5.391   5.157  15.880 -0.7328 -2.3079 -4.5408
 8336TIP3   OH246422   2.567   4.442  11.189  0.0435 -0.2220  0.0357
 8336TIP3    H146423   2.656   4.468  11.212  0.7295 -1.3107 -1.3024
 8336TIP3    H246424   2.578   4.379  11.118 -1.7814 -0.7302  0.1776
 8337TIP3   OH246425   0.761   1.806  14.600  0.0857  0.6210  0.0111
 8337TIP3    H146426   0.724   1.868  14.537 -0.6022  0.2763  0.0679
 8337TIP3    H246427   0.770   1.856  14.681 -2.0332  0.2038  0.5181
 8338TIP3   OH246428   6.704   1.324   0.079 -0.0791  0.2626 -0.2230
 8338TIP3    H146429   6.738   1.363  -0.002  1.2524 -1.5094 -0.5655
 8338TIP3    H246430   6.770   1.344   0.145 -0.5208  0.5623  0.1352
 8339TIP3   OH246431   3.953   0.725   2.154  0.1903 -0.1569 -0.0127
 8339TIP3    H146432   3.933   0.737   2.061 -0.8135  0.4704  0.2763
 8339TIP3    H246433   3.886   0.664   2.185  0.7901 -0.7132  0.2039
 8340TIP3   OH246434   2.371   5.080  13.328  0.3774 -0.2968  1.2261
 8340TIP3    H146435   2.441   5.103  13.267 -0.1620 -1.2662  0.2374
 8340TIP3    H246436   2.327   5.163  13.346  1.3489  0.2043  1.3257
 8341TIP3   OH246437   2.657   2.653   5.557  0.1611  0.1372  0.2939
 8341TIP3    H146438   2.663   2.697   5.641 -2.0042  2.4771 -0.7183
 8341TIP3    H246439   2.632   2.563   5.578  1.0999  0.3241  2.2128
 8342TIP3   OH246440   6.208   6.177   4.823  0.5709 -0.0387 -0.7620
 8342TIP3    H146441   6.188   6.266   4.792  0.2118  0.4381  0.7974
 8342TIP3    H246442   6.141   6.122   4.783  0.8044  0.3797 -1.7563
 8343TIP3   OH246443   2.892   3.949  12.570 -0.0812  0.5647  0.3126
 8343TIP3    H146444   2.910   3.976  12.480 -0.3702 -2.0515 -0.5677
 8343TIP3    H246445   2.977   3.953  12.614  0.5185 -0.3860 -0.7196
 8344TIP3   OH246446   0.909   5.157   5.095 -0.4881  0.6215  0.0248
 8344TIP3    H146447   0.827   5.151   5.046 -0.2678 -1.4358 -0.1665
 8344TIP3    H246448   0.977   5.135   5.031  0.1451  1.5979  0.3555
 8345TIP3   OH246449   1.356   0.156   0.729  0.1007  0.1277 -0.6148
 8345TIP3    H146450   1.360   0.240   0.775 -0.6624  0.3853 -0.9978
 8345TIP3    H246451   1.395   0.173   0.643  0.4017 -0.0367 -0.5107
 8346TIP3   OH246452   4.304   6.124  13.576  0.2249  0.0833 -0.1614
 8346TIP3    H146453   4.294   6.116  13.481  0.1924  1.0638 -0.2486
 8346TIP3    H246454   4.337   6.039  13.604 -1.4054 -0.7803 -0.8218
 8347TIP3   OH246455   4.804   6.494   1.180  0.1261  0.1682 -0.1299
 8347TIP3    H146456   4.748   6.444   1.239  1.1217 -1.9133 -0.8793
 8347TIP3    H246457   4.772   6.472   1.092  1.0149  0.2934 -0.4937
 8348TIP3   OH246458   2.972   3.893   4.184 -0.3404  0.1743  0.2380
 8348TIP3    H146459   3.035   3.824   4.164  0.0502  1.0009 -1.4383
 8348TIP3    H246460   2.897   3.875   4.127  0.1167  1.6109 -0.8450
 8349TIP3   OH246461   2.853   5.520  15.494  0.5456  0.1029  0.3572
 8349TIP3    H146462   2.838   5.469  15.573  0.2406  0.3675  0.4698
 8349TIP3    H246463   2.838   5.459  15.422 -0.4246  0.1906  0.4792
 8350TIP3   OH246464   1.703   3.444  15.704 -0.3573  0.1165  0.2057
 8350TIP3    H146465   1.640   3.434  15.633  0.2064 -1.8938 -0.0515
 8350TIP3    H246466   1.687   3.532  15.740 -2.9925 -0.2130 -0.1253
 8351TIP3   OH246467   0.530   0.369   4.325  0.4148  0.4539 -0.3917
 8351TIP3    H146468   0.462   0.417   4.277  0.4143 -0.0168 -0.8741
 8351TIP3    H246469   0.585   0.331   4.256  0.3438 -0.3266 -0.0232
 8352TIP3   OH246470   0.406   0.983  10.871  0.1283  0.0753 -0.2565
 8352TIP3    H146471   0.471   0.980  10.800  0.2268  1.7190 -0.2446
 8352TIP3    H246472   0.332   1.030  10.834 -0.2839 -0.0787  0.3699
 8353TIP3   OH246473   4.476   1.809   4.050 -0.1047  0.2671 -0.2729
 8353TIP3    H146474   4.404   1.747   4.040  1.1963 -1.3555  0.2423
 8353TIP3    H246475   4.473   1.863   3.971 -1.4914 -0.1860 -0.5395
 8354TIP3   OH246476   4.133   0.265   3.562 -0.2028  0.6556  0.1200
 8354TIP3    H146477   4.124   0.360   3.556  2.5659  1.1082  2.0928
 8354TIP3    H246478   4.049   0.234   3.595 -1.0550  2.4357 -0.3472
 8355TIP3   OH246479   4.656   1.303  15.063  0.1867  0.0942  0.8349
 8355TIP3    H146480   4.580   1.315  15.006 -0.4096 -0.4902  1.4957
 8355TIP3    H246481   4.709   1.381  15.050  0.8656 -0.7434 -1.7464
 8356TIP3   OH246482   0.524   2.838   3.497  0.0451  0.0557 -0.1203
 8356TIP3    H146483   0.594   2.775   3.480  1.6647  1.3629  1.4049
 8356TIP3    H246484   0.532   2.901   3.426  0.3099  0.0848 -0.0691
 8357TIP3   OH246485   1.491   4.229  12.536 -0.0965  0.3041 -0.2898
 8357TIP3    H146486   1.531   4.312  12.508  0.4412 -0.0944 -0.7262
 8357TIP3    H246487   1.555   4.192  12.597 -1.0716  0.9702  1.1599
 8358TIP3   OH246488   6.675   5.082  15.891 -0.2766  0.6092  0.0806
 8358TIP3    H146489   6.650   5.078  15.983 -0.8683  0.8409 -0.0667
 8358TIP3    H246490   6.760   5.040  15.887 -0.5982 -0.1027  0.6185
 8359TIP3   OH246491   4.122   4.253  11.479  0.3170 -0.3788  0.2593
 8359TIP3    H146492   4.100   4.344  11.500  0.4523 -0.1990 -0.3730
 8359TIP3    H246493   4.071   4.202  11.542 -2.3359  0.0209 -1.4630
 8360TIP3   OH246494   5.141   1.261   0.775 -0.4838  0.0896  0.2906
 8360TIP3    H146495   5.203   1.194   0.747  0.6777  1.3311 -0.1549
 8360TIP3    H246496   5.164   1.277   0.867  0.6947  1.4249 -0.2141
 8361TIP3   OH246497   1.519   0.884   2.093 -0.5522  0.5032  0.2074
 8361TIP3    H146498   1.424   0.890   2.085 -0.6798 -0.7126  0.7560
 8361TIP3    H246499   1.534   0.862   2.184  0.2795  0.9570  0.1867
 8362TIP3   OH246500   6.155   4.903   3.875  0.2881 -0.7525 -0.2688
 8362TIP3    H146501   6.094   4.971   3.846 -2.0460 -3.0812 -1.0223
 8362TIP3    H246502   6.129   4.825   3.825  1.8708 -2.6050  1.7135
 8363TIP3   OH246503   1.255   2.737   5.918 -0.3248  0.2045  0.0063
 8363TIP3    H146504   1.173   2.690   5.932  0.1344 -0.8909 -0.9705
 8363TIP3    H246505   1.324   2.673   5.936  0.2994  0.0120 -2.8193
 8364TIP3   OH246506   2.958   4.160  14.715 -0.0256 -0.1550  0.3199
 8364TIP3    H146507   2.916   4.133  14.796 -1.4740  0.2850 -0.2546
 8364TIP3    H246508   2.997   4.245  14.735 -0.3077 -0.0877  0.5840
 8365TIP3   OH246509   4.873   3.259  13.132  0.3518  0.2332  0.2877
 8365TIP3    H146510   4.959   3.244  13.092 -0.1526 -0.3290 -0.6022
 8365TIP3    H246511   4.845   3.344  13.099  0.6888  0.5474  0.8060
 8366TIP3   OH246512   5.856   3.885   0.618  0.4004 -0.6827  0.0693
 8366TIP3    H146513   5.787   3.841   0.669  0.9272  0.1874  1.5730
 8366TIP3    H246514   5.828   3.878   0.527 -0.5880 -2.2545  0.4818
 8367TIP3   OH246515   3.578   0.110  10.949  0.1599  0.2137 -0.4785
 8367TIP3    H146516   3.614   0.022  10.943  3.9005  1.6708 -0.9002
 8367TIP3    H246517   3.608   0.143  11.033 -0.5335  1.3545 -0.6693
 8368TIP3   OH246518   1.331   5.515  12.593 -0.3643  0.0009  0.0952
 8368TIP3    H146519   1.364   5.499  12.505  1.4345 -0.2481  0.8077
 8368TIP3    H246520   1.402   5.560  12.638 -1.3982  0.4287  1.3264
 8369TIP3   OH246521   3.108   1.888  15.072 -0.2678 -0.1463 -0.4787
 8369TIP3    H146522   3.039   1.904  15.007 -0.8186 -1.6570 -0.2881
 8369TIP3    H246523   3.063   1.840  15.143  0.4186  1.0767  0.8135
 8370TIP3   OH246524   3.378   6.493  15.553 -0.0268 -0.2487 -0.1874
 8370TIP3    H146525   3.316   6.422  15.569  0.9929 -1.1822 -0.2988
 8370TIP3    H246526   3.354   6.528  15.468 -0.1319 -0.8874 -0.4211
 8371TIP3   OH246527   5.567   6.008   0.773  0.4132 -0.1571  0.8203
 8371TIP3    H146528   5.584   6.102   0.765 -2.4535  0.2673 -1.1222
 8371TIP3    H246529   5.543   5.981   0.685 -2.1939 -1.9615  2.0194
 8372TIP3   OH246530   6.290   4.624  14.755  0.2783  0.0934  0.5384
 8372TIP3    H146531   6.360   4.597  14.695  0.1752  0.6984  0.1513
 8372TIP3    H246532   6.210   4.619  14.703  0.0868 -0.1194  0.8463
 8373TIP3   OH246533   6.581   3.919  11.265 -0.7528  0.1198 -0.0451
 8373TIP3    H146534   6.525   3.843  11.278  0.8327 -1.1972 -0.6918
 8373TIP3    H246535   6.616   3.908  11.177 -0.1742  1.3712  0.0151
 8374TIP3   OH246536   6.785   1.469  13.660  0.3835  0.2234 -0.3178
 8374TIP3    H146537   6.821   1.477  13.572 -0.1477  1.0242 -0.4656
 8374TIP3    H246538   6.757   1.557  13.683  0.0502 -0.0780  0.4532
 8375TIP3   OH246539   6.660   4.302   5.945 -0.4841 -0.4611 -0.1139
 8375TIP3    H146540   6.620   4.247   5.878  0.9389 -0.6680 -0.8079
 8375TIP3    H246541   6.680   4.241   6.016  0.8131 -0.8168 -0.7594
 8376TIP3   OH246542   5.950   1.350  16.556  0.3425 -0.3849  0.1622
 8376TIP3    H146543   5.913   1.311  16.636  1.1131  0.1320  0.7707
 8376TIP3    H246544   5.874   1.364  16.499 -0.5297  1.3652  1.6995
 8377TIP3   OH246545   4.141   5.797  11.381 -0.3320 -0.1040 -0.2760
 8377TIP3    H146546   4.223   5.789  11.431 -0.5775 -1.1643 -0.0104
 8377TIP3    H246547   4.141   5.719  11.325 -0.7794  0.3114 -0.8498
 8378TIP3   OH246548   1.015   2.214   1.953 -0.1569  0.5543  0.2215
 8378TIP3    H146549   1.034   2.304   1.927 -0.9752 -0.0632 -2.6509
 8378TIP3    H246550   1.098   2.167   1.939 -0.0834  0.5921  0.5205
 8379TIP3   OH246551   6.092   4.381  15.395 -0.5079  0.7663 -0.1608
 8379TIP3    H146552   6.119   4.373  15.304 -2.0641 -2.9891 -0.3849
 8379TIP3    H246553   6.103   4.474  15.416 -0.7718  1.8220 -4.3575
 8380TIP3   OH246554   5.867   3.864   0.337  0.3447 -0.0123  0.0386
 8380TIP3    H146555   5.963   3.870   0.330  0.3105  0.4675 -0.0754
 8380TIP3    H246556   5.838   3.847   0.248  0.4782 -2.5937  0.4618
 8381TIP3   OH246557   1.922   6.223   5.907  0.5749  0.2753 -0.3350
 8381TIP3    H146558   1.945   6.299   5.960 -0.3445 -0.6432  1.4467
 8381TIP3    H246559   2.000   6.168   5.909  0.1828 -0.2743  1.0624
 8382TIP3   OH246560   4.295   5.744   0.986 -0.9699 -0.8421 -0.1944
 8382TIP3    H146561   4.226   5.794   1.029 -1.3213 -1.1687 -0.3763
 8382TIP3    H246562   4.323   5.680   1.052 -2.0692 -1.8786 -0.7129
 8383TIP3   OH246563   1.808   3.885  13.936 -0.0486 -0.1068  0.2692
 8383TIP3    H146564   1.823   3.829  14.013 -0.7448  0.3783  0.7599
 8383TIP3    H246565   1.884   3.869  13.881  0.4201 -0.5307  1.0142
 8384TIP3   OH246566   4.367   2.861  13.582 -0.1223  0.2750 -0.1157
 8384TIP3    H146567   4.322   2.915  13.517 -0.1526  0.3362 -0.0434
 8384TIP3    H246568   4.305   2.790  13.601  0.5753 -0.7114 -1.4424
 8385TIP3   OH246569   1.705   2.946   1.003 -0.2508 -0.1304 -0.3459
 8385TIP3    H146570   1.742   2.985   0.924  0.6527  0.0794  0.1768
 8385TIP3    H246571   1.658   2.868   0.971 -0.9438  0.6247 -1.2309
 8386TIP3   OH246572   4.270   2.236  14.665  0.2075  0.3916  0.3505
 8386TIP3    H146573   4.263   2.290  14.744 -3.5660  0.5540  0.0051
 8386TIP3    H246574   4.358   2.199  14.669  0.0192  0.1521  4.8093
 8387TIP3   OH246575   3.349   5.897   2.008  0.2985  0.1041 -0.4112
 8387TIP3    H146576   3.257   5.885   2.031  0.4621 -1.0608 -0.3298
 8387TIP3    H246577   3.376   5.975   2.057 -1.0080  1.2754 -1.5144
 8388TIP3   OH246578   1.356   4.743  16.303 -0.0623 -0.0265  0.4342
 8388TIP3    H146579   1.422   4.704  16.360 -0.7000 -0.1583  1.0982
 8388TIP3    H246580   1.398   4.821  16.267 -0.1054  0.8384  2.1741
 8389TIP3   OH246581   4.454   4.718  12.017  0.3463  0.0605 -0.3980
 8389TIP3    H146582   4.415   4.672  12.092 -0.5052  1.9699  0.3784
 8389TIP3    H246583   4.489   4.648  11.962  0.6110 -1.4158  1.5662
 8390TIP3   OH246584   0.323   1.403   4.012 -0.3682 -0.0638 -0.4526
 8390TIP3    H146585   0.345   1.482   3.963 -2.7248  0.3138 -0.9179
 8390TIP3    H246586   0.260   1.432   4.078  1.4769 -0.8809  1.7624
 8391TIP3   OH246587   3.176   2.362  17.161  0.0591 -0.0278 -0.2838
 8391TIP3    H146588   3.090   2.337  17.193  1.0115 -1.4925  1.2403
 8391TIP3    H246589   3.183   2.455  17.179 -1.4292  0.2352 -0.9916
 8392TIP3   OH246590   6.756   4.332   4.298  0.0155  0.0578 -0.3097
 8392TIP3    H146591   6.843   4.297   4.281  0.0234 -0.3211  0.4466
 8392TIP3    H246592   6.759   4.359   4.390 -0.6085  0.1945 -0.3258
 8393TIP3   OH246593   4.693   3.412   2.918 -0.5604  0.4878 -0.1691
 8393TIP3    H146594   4.669   3.323   2.945 -0.2516  0.4717  0.0520
 8393TIP3    H246595   4.765   3.400   2.857 -0.6850  0.5728 -0.3324
 8394TIP3   OH246596   4.060   1.139  12.588 -0.7629 -0.2539 -0.0828
 8394TIP3    H146597   4.030   1.128  12.498 -2.7816 -1.5233  0.6951
 8394TIP3    H246598   4.093   1.052  12.613  0.7823  0.3620  0.0688
 8395TIP3   OH246599   2.886   1.241   1.695  0.2228  0.7050  0.2436
 8395TIP3    H146600   2.859   1.256   1.605  1.8241 -0.1717 -0.4183
 8395TIP3    H246601   2.854   1.317   1.744  0.8465  2.0488 -1.3936
 8396TIP3   OH246602   6.311   6.325  16.110 -0.4636  0.2413  0.3834
 8396TIP3    H146603   6.307   6.279  16.194  0.1077  0.4949  0.5534
 8396TIP3    H246604   6.306   6.417  16.134  0.6811  0.3510  0.2122
 8397TIP3   OH246605   3.498   0.606   1.478 -1.0665 -0.3533  0.9013
 8397TIP3    H146606   3.449   0.523   1.482 -1.1346 -0.3776 -0.2675
 8397TIP3    H246607   3.472   0.645   1.394  1.2571 -0.5775  0.0333
 8398TIP3   OH246608   6.670   0.274   5.470  0.8723 -0.0167 -0.1975
 8398TIP3    H146609   6.718   0.332   5.410 -0.7689  0.7325 -0.8183
 8398TIP3    H246610   6.681   0.314   5.556  0.2805  0.8742 -0.5308
 8399TIP3   OH246611   1.392   4.554   6.063 -0.4631  1.1801 -0.2607
 8399TIP3    H146612   1.374   4.625   6.125 -0.3164 -0.1138  1.2927
 8399TIP3    H246613   1.484   4.532   6.078 -0.6852  0.2165 -0.2476
 8400TIP3   OH246614   2.941   3.326  14.229  0.2054 -0.3310 -0.0121
 8400TIP3    H146615   2.864   3.345  14.176  0.6787  0.8197 -0.2995
 8400TIP3    H246616   2.940   3.392  14.299  1.2755  0.1000 -0.3903
 8401TIP3   OH246617   2.062   4.674  13.848  0.5180 -0.1235  1.3035
 8401TIP3    H146618   2.094   4.625  13.773 -0.6550  1.1677 -0.0804
 8401TIP3    H246619   2.125   4.745  13.859 -0.0833  0.5343  0.6024
 8402TIP3   OH246620   3.886   3.299   2.189 -0.6037 -0.1069 -0.0652
 8402TIP3    H146621   3.923   3.214   2.166 -1.2533 -0.4494  0.1588
 8402TIP3    H246622   3.884   3.347   2.106  1.1211  0.2254  0.0562
 8403TIP3   OH246623   4.680   3.659   4.347  0.3657 -0.2265  0.3566
 8403TIP3    H146624   4.603   3.603   4.334 -0.1713  0.8032 -1.0331
 8403TIP3    H246625   4.724   3.621   4.423  0.1290 -2.6858 -0.6603
 8404TIP3   OH246626   2.304   5.879  13.563 -0.3105 -0.0254 -0.3474
 8404TIP3    H146627   2.357   5.868  13.485  0.2307 -0.6326  0.0964
 8404TIP3    H246628   2.293   5.790  13.597  0.4460  0.3498  0.9142
 8405TIP3   OH246629   5.217   4.710  13.674  0.7531  0.1189 -0.3394
 8405TIP3    H146630   5.298   4.686  13.718  0.2472 -0.5561  0.2340
 8405TIP3    H246631   5.162   4.632  13.681  0.0935  0.5376 -0.8169
 8406TIP3   OH246632   3.527   5.573   2.121  0.2657 -0.0244  0.2184
 8406TIP3    H146633   3.613   5.537   2.139  0.2547 -0.2185 -0.1271
 8406TIP3    H246634   3.478   5.501   2.080  0.4420  0.5616 -1.0443
 8407TIP3   OH246635   0.629   1.854  12.234 -0.2786  0.7303 -0.2784
 8407TIP3    H146636   0.634   1.931  12.291 -1.0405  0.4022  0.2281
 8407TIP3    H246637   0.705   1.800  12.259 -0.1029  1.0101 -0.2025
 8408TIP3   OH246638   6.203   3.301   5.814  0.3403  1.1831  0.2522
 8408TIP3    H146639   6.168   3.289   5.903 -0.1952  1.1092  0.0292
 8408TIP3    H246640   6.224   3.394   5.809 -0.5072  1.3703  0.1335
 8409TIP3   OH246641   2.311   5.023  14.412  0.5619  0.0727 -0.4018
 8409TIP3    H146642   2.315   5.069  14.496 -1.4958  0.5512 -0.5507
 8409TIP3    H246643   2.264   5.082  14.354 -0.7092 -1.5207 -1.0362
 8410TIP3   OH246644   3.207   1.239   0.178 -0.1854 -0.6764  0.1250
 8410TIP3    H146645   3.168   1.172   0.121  0.2814 -0.6434 -0.2295
 8410TIP3    H246646   3.158   1.318   0.157 -1.5470 -1.1519  1.3917
 8411TIP3   OH246647   0.819   5.562  16.397 -0.8241 -0.1326  0.0452
 8411TIP3    H146648   0.754   5.518  16.342 -0.5082 -0.8526  0.2331
 8411TIP3    H246649   0.855   5.492  16.452 -2.4034  0.8915  2.4439
 8412TIP3   OH246650   2.666   3.006  14.016  0.6473  1.1684 -0.4376
 8412TIP3    H146651   2.669   3.088  13.968  3.6166  2.0617  1.1421
 8412TIP3    H246652   2.732   3.016  14.085 -1.1474 -1.3260  1.7565
 8413TIP3   OH246653   5.886   1.939  15.200  0.1969 -0.3940 -0.1944
 8413TIP3    H146654   5.794   1.962  15.212 -0.2710 -1.1588 -2.1475
 8413TIP3    H246655   5.888   1.843  15.205  1.1765 -0.3151  1.5967
 8414TIP3   OH246656   0.036   4.443  12.385 -0.4130  0.2361 -0.8971
 8414TIP3    H146657   0.117   4.410  12.346 -0.3537 -1.2033  0.3833
 8414TIP3    H246658  -0.021   4.367  12.389 -1.4143  0.9907 -0.7291
 8415TIP3   OH246659   2.188   6.283   3.142 -0.4217  0.2141  0.0486
 8415TIP3    H146660   2.237   6.365   3.144  1.1305 -0.6931  0.3405
 8415TIP3    H246661   2.240   6.225   3.087 -1.4597 -0.6067 -0.0924
 8416TIP3   OH246662   3.350   2.682   5.356 -0.0501 -0.2772 -0.0694
 8416TIP3    H146663   3.315   2.754   5.408 -0.3633 -0.0527 -0.5897
 8416TIP3    H246664   3.309   2.604   5.392 -2.0411  0.0989 -1.4689
 8417TIP3   OH246665   5.413   4.984   6.364 -0.0715  0.1397 -0.1959
 8417TIP3    H146666   5.414   5.047   6.291 -0.6186  0.9296  0.4710
 8417TIP3    H246667   5.335   4.931   6.348 -0.6531  0.8504  0.2604
 8418TIP3   OH246668   6.444   6.774   5.889  0.5451  0.0907  0.4004
 8418TIP3    H146669   6.531   6.804   5.917  0.9882 -0.4764 -0.3604
 8418TIP3    H246670   6.414   6.843   5.829  0.4018  0.3552  0.7701
 8419TIP3   OH246671   6.080   4.866  16.420 -0.4133  0.3448  0.5890
 8419TIP3    H146672   6.034   4.937  16.466 -0.3904 -0.2204  1.5043
 8419TIP3    H246673   6.122   4.816  16.490 -0.3527 -0.5187 -0.0555
 8420TIP3   OH246674   3.579   5.692   1.122 -0.1732 -0.1285 -0.2129
 8420TIP3    H146675   3.604   5.606   1.156 -0.9084 -0.5651 -0.7696
 8420TIP3    H246676   3.498   5.676   1.073  0.7413  0.5453 -1.9736
 8421TIP3   OH246677   0.542   2.940  13.296  0.4127  0.4657  0.8480
 8421TIP3    H146678   0.521   3.032  13.310  0.3406  0.3646  1.4156
 8421TIP3    H246679   0.622   2.925  13.346  0.6495  0.3178  0.4269
 8422TIP3   OH246680   6.544   1.365  13.774 -0.2380  0.4259  0.2989
 8422TIP3    H146681   6.627   1.411  13.774 -0.1723  0.3084 -0.5982
 8422TIP3    H246682   6.567   1.272  13.776 -0.3528  0.3974  0.3262
 8423TIP3   OH246683   1.648   2.038  16.209  0.1287 -0.2237 -0.3248
 8423TIP3    H146684   1.584   2.096  16.250 -1.4180 -0.9223 -1.7329
 8423TIP3    H246685   1.624   2.037  16.117  0.8722 -2.1939 -0.5048
 8424TIP3   OH246686   4.007   5.518  14.383 -0.7201  0.4013 -0.1104
 8424TIP3    H146687   3.969   5.431  14.399  0.9608 -0.3579 -0.1219
 8424TIP3    H246688   4.067   5.532  14.457  0.9278  0.4368 -1.4142
 8425TIP3   OH246689   5.173   5.003  14.844 -0.4948 -1.0071 -0.5858
 8425TIP3    H146690   5.105   4.937  14.830 -1.3195 -0.2530 -0.1914
 8425TIP3    H246691   5.138   5.083  14.804 -0.4095 -0.2929  0.7269
 8426TIP3   OH246692   2.620   5.433   5.435 -0.1883  0.5541  0.3832
 8426TIP3    H146693   2.644   5.484   5.357 -0.7439  1.0552  0.5370
 8426TIP3    H246694   2.556   5.488   5.481  0.6990  0.6043  1.5879
 8427TIP3   OH246695   1.959   2.886   6.173 -0.0194 -0.0260 -0.1961
 8427TIP3    H146696   2.031   2.901   6.235  0.7070 -1.1049 -0.7566
 8427TIP3    H246697   1.905   2.965   6.180  0.0033 -0.1531  1.8519
 8428TIP3   OH246698   0.745   2.721   3.397  0.2805  0.1517 -0.0167
 8428TIP3    H146699   0.771   2.797   3.344  0.3091 -0.0871 -0.3515
 8428TIP3    H246700   0.826   2.694   3.440  0.3496  0.0956 -0.1787
 8429TIP3   OH246701   1.684   2.209  13.906  0.2017  0.4511  0.2052
 8429TIP3    H146702   1.638   2.164  13.835  2.7152 -0.1790 -1.1038
 8429TIP3    H246703   1.679   2.302  13.883  0.7683  0.2723 -0.6711
 8430TIP3   OH246704   2.515   0.848   1.747  0.3049  0.2711 -0.2057
 8430TIP3    H146705   2.563   0.770   1.776 -1.1044 -0.4316  0.2732
 8430TIP3    H246706   2.583   0.915   1.735  1.0322  0.3289  3.8108
 8431TIP3   OH246707   5.118   6.381   0.936  0.1497  0.1299 -0.4487
 8431TIP3    H146708   5.120   6.426   0.852 -1.2596  0.5571 -0.2596
 8431TIP3    H246709   5.195   6.415   0.983 -0.5433  1.9073 -0.5428
 8432TIP3   OH246710   4.813   3.000   1.688  0.2810  0.1416 -0.1004
 8432TIP3    H146711   4.772   2.916   1.706  1.7213 -0.0317  2.5899
 8432TIP3    H246712   4.740   3.063   1.687 -0.3542 -0.5250  2.0943
 8433TIP3   OH246713   4.108   2.766   0.986 -0.2896  0.5432 -0.3036
 8433TIP3    H146714   4.139   2.830   0.922 -1.8646  1.5370 -0.0920
 8433TIP3    H246715   4.021   2.796   1.010 -1.0339 -1.6591 -0.1472
 8434TIP3   OH246716   2.636   1.700  16.407  0.8223  0.1251  0.0567
 8434TIP3    H146717   2.707   1.648  16.445  1.0545  1.1754  1.0917
 8434TIP3    H246718   2.671   1.731  16.323  0.7790 -1.1437 -0.4406
 8435TIP3   OH246719   5.804   1.276   1.185 -0.0267  0.4151  0.2675
 8435TIP3    H146720   5.789   1.291   1.092  1.3862 -0.7208 -0.1595
 8435TIP3    H246721   5.755   1.197   1.205  0.8987 -0.2017  0.1276
 8436TIP3   OH246722   5.155   4.292  14.611 -0.5571  0.6482 -0.0055
 8436TIP3    H146723   5.107   4.253  14.538 -1.7929  1.3208  0.4398
 8436TIP3    H246724   5.223   4.345  14.570  0.7948 -1.5104 -0.6287
 8437TIP3   OH246725   4.308   1.817  12.319  0.1226 -0.6275 -0.1538
 8437TIP3    H146726   4.290   1.900  12.275  0.4059 -0.0637  0.7764
 8437TIP3    H246727   4.267   1.751  12.263  1.3302 -0.0261 -1.7936
 8438TIP3   OH246728   2.275   6.495  15.643  0.1232 -0.3852  0.2999
 8438TIP3    H146729   2.288   6.498  15.737 -1.3595  2.0251  0.4641
 8438TIP3    H246730   2.334   6.563  15.608  0.6506 -1.2461 -0.5058
 8439TIP3   OH246731   0.975   2.556  17.217 -0.0706  0.5314 -0.2636
 8439TIP3    H146732   0.900   2.545  17.158 -0.1903  1.3258 -0.2597
 8439TIP3    H246733   1.052   2.549  17.160 -0.1670  0.4867 -0.3886
 8440TIP3   OH246734   4.599   6.650   0.335 -0.6901 -0.0519  0.4280
 8440TIP3    H146735   4.591   6.624   0.243 -0.6585 -1.1759  0.7346
 8440TIP3    H246736   4.528   6.712   0.349 -1.5744 -0.9680  0.0189
 8441TIP3   OH246737   2.517   4.907   3.390  0.2801  0.1895  0.5337
 8441TIP3    H146738   2.487   4.900   3.481  0.7429 -3.0755  0.5037
 8441TIP3    H246739   2.601   4.861   3.389  0.0672 -0.2173 -1.6219
 8442TIP3   OH246740   6.611   0.283  14.209 -0.0496 -0.3464 -0.2985
 8442TIP3    H146741   6.619   0.374  14.180  2.7603  0.0652  1.6170
 8442TIP3    H246742   6.539   0.248  14.156 -3.1953  3.7538  0.9466
 8443TIP3   OH246743   6.602   6.441  11.419 -0.1549  0.5958  0.1062
 8443TIP3    H146744   6.561   6.501  11.356 -0.7999  0.0932  0.0347
 8443TIP3    H246745   6.694   6.440  11.395 -0.7991 -1.6416 -2.5830
 8444TIP3   OH246746   5.361   2.733   3.781 -0.3996 -0.2406 -0.3732
 8444TIP3    H146747   5.365   2.675   3.856 -0.7704 -1.6268 -1.4096
 8444TIP3    H246748   5.452   2.762   3.768 -0.7523  2.2527  2.3004
 8445TIP3   OH246749   2.207   2.316  13.923 -0.1073  0.7458  0.0262
 8445TIP3    H146750   2.114   2.310  13.898  0.0364 -0.0370 -0.3440
 8445TIP3    H246751   2.248   2.243  13.877  1.0051  2.1147 -1.2021
 8446TIP3   OH246752   5.156   4.124   2.380  0.3416  0.2117 -0.0559
 8446TIP3    H146753   5.240   4.135   2.334 -0.4078  0.9013 -1.2850
 8446TIP3    H246754   5.163   4.182   2.456  0.5453  1.1282 -0.7603
 8447TIP3   OH246755   6.560   0.292   1.613  0.2533  0.1445  0.3812
 8447TIP3    H146756   6.467   0.271   1.618  0.1001  0.6057 -0.4192
 8447TIP3    H246757   6.568   0.345   1.534  1.2219 -0.0316  0.3580
 8448TIP3   OH246758   0.950   4.857  15.754  0.5047 -0.3670  0.1967
 8448TIP3    H146759   1.031   4.888  15.794  0.3641 -0.6092  0.6635
 8448TIP3    H246760   0.880   4.901  15.801  0.3967  0.7811 -1.0093
 8449TIP3   OH246761   5.402   3.551   1.882 -0.0414  0.3022  0.1071
 8449TIP3    H146762   5.490   3.571   1.914  0.0732  0.2584 -0.1746
 8449TIP3    H246763   5.374   3.476   1.935  0.2423  0.0781 -0.0530
 8450TIP3   OH246764   4.284   4.037  11.477 -0.4350 -0.0003  0.1109
 8450TIP3    H146765   4.215   4.101  11.490 -1.6649 -1.2849  0.0482
 8450TIP3    H246766   4.288   4.024  11.382 -1.8215 -1.7298  0.2578
 8451TIP3   OH246767   6.753   0.967  14.227  0.0053 -0.6077 -0.3458
 8451TIP3    H146768   6.679   0.925  14.272  0.0812 -0.4815 -0.1007
 8451TIP3    H246769   6.813   0.991  14.298 -0.1011  0.0444 -0.4708
 8452TIP3   OH246770   5.200   4.993   0.758 -0.3091  0.2286 -0.1172
 8452TIP3    H146771   5.276   5.020   0.706  0.1330 -2.9771 -1.2499
 8452TIP3    H246772   5.125   5.026   0.709  0.2605  3.2064  0.8812
 8453TIP3   OH246773   4.127   2.574   5.576 -0.8651  0.1696  0.2365
 8453TIP3    H146774   4.088   2.624   5.648 -3.2422 -2.5558  0.9707
 8453TIP3    H246775   4.081   2.605   5.498 -2.4496 -0.8879  0.7101
 8454TIP3   OH246776   2.735   0.558  13.376  0.2143 -0.4961 -0.0354
 8454TIP3    H146777   2.742   0.495  13.448  0.0918  0.9547  1.2498
 8454TIP3    H246778   2.732   0.503  13.297  1.5819 -2.0638  0.9613
 8455TIP3   OH246779   1.778   5.154   1.498 -0.0292 -0.2792 -0.5938
 8455TIP3    H146780   1.748   5.150   1.407  0.8119  0.3407 -0.9112
 8455TIP3    H246781   1.727   5.088   1.543 -0.3140 -0.7371 -1.5635
 8456TIP3   OH246782   4.441   3.400   4.056 -0.6404 -0.2753 -0.4226
 8456TIP3    H146783   4.446   3.321   4.002 -0.0533 -0.1114 -0.6139
 8456TIP3    H246784   4.525   3.402   4.103 -0.4543  0.4980 -0.7909
 8457TIP3   OH246785   3.856   5.055  13.415  0.8093 -0.0677  0.5317
 8457TIP3    H146786   3.823   5.143  13.399 -2.1533 -1.4155 -1.2753
 8457TIP3    H246787   3.799   5.021  13.484  0.7026 -1.2205 -0.1109
 8458TIP3   OH246788   4.073   3.968   1.207  0.0053 -0.2559  0.0365
 8458TIP3    H146789   4.149   3.914   1.228  1.0989  0.3948 -2.1586
 8458TIP3    H246790   4.030   3.922   1.135 -0.7514  0.2448  0.1597
 8459TIP3   OH246791   3.948   6.429   2.394 -0.2702 -0.0491 -0.2433
 8459TIP3    H146792   4.016   6.438   2.327 -0.8178  1.6030 -0.6031
 8459TIP3    H246793   3.969   6.348   2.439  1.0957 -0.3021 -1.3087
 8460TIP3   OH246794   6.552   1.268   2.729 -0.0629  0.9468 -0.0542
 8460TIP3    H146795   6.569   1.278   2.823  1.1543 -0.3415 -0.1279
 8460TIP3    H246796   6.458   1.255   2.723 -0.1720  1.2133  0.9779
 8461TIP3   OH246797   2.773   0.215   3.861  0.1354 -0.0224  0.4322
 8461TIP3    H146798   2.763   0.213   3.766  0.3785 -0.7650  0.4216
 8461TIP3    H246799   2.840   0.281   3.877  1.5869 -1.3511 -0.0401
 8462TIP3   OH246800   1.451   6.251  13.903 -0.7195  0.7685  0.3048
 8462TIP3    H146801   1.363   6.228  13.933 -0.8267 -0.0322 -0.6264
 8462TIP3    H246802   1.438   6.285  13.815 -0.1587  1.1680  0.3775
 8463TIP3   OH246803   4.377   2.462  11.610  0.0741 -0.0612 -0.2394
 8463TIP3    H146804   4.303   2.405  11.590 -0.1932  0.4410 -0.6803
 8463TIP3    H246805   4.407   2.432  11.696 -0.7143 -0.1902 -0.0080
 8464TIP3   OH246806   2.411   3.047   4.249 -0.0134 -0.1241 -0.1577
 8464TIP3    H146807   2.362   3.035   4.330 -0.0921  1.0367 -0.0312
 8464TIP3    H246808   2.485   2.986   4.257  0.0665  0.0965  0.8496
 8465TIP3   OH246809   2.819   3.645  11.470 -0.1114  0.2331 -0.2393
 8465TIP3    H146810   2.755   3.613  11.406 -1.8798  2.9669  0.0864
 8465TIP3    H246811   2.901   3.651  11.420 -1.2413  1.3850 -2.0104
 8466TIP3   OH246812   2.621   0.863   2.105  0.0148  0.0350 -0.5791
 8466TIP3    H146813   2.590   0.830   2.021  0.2838  1.0046 -1.0623
 8466TIP3    H246814   2.607   0.957   2.101  0.6316  0.1676  0.2074
 8467TIP3   OH246815   2.142   5.245   3.278  0.1785  0.3433  0.4138
 8467TIP3    H146816   2.054   5.279   3.260 -0.1762 -0.8220 -0.0844
 8467TIP3    H246817   2.189   5.320   3.315 -0.6062  1.3703 -0.6071
 8468TIP3   OH246818   1.830   5.564   4.202  0.1710  0.2798  0.5683
 8468TIP3    H146819   1.858   5.633   4.141  1.0376 -0.7866 -0.2563
 8468TIP3    H246820   1.739   5.584   4.220  0.9032  2.7452  1.8128
 8469TIP3   OH246821   3.636   2.354   4.655 -0.3165 -0.1972  0.7806
 8469TIP3    H146822   3.714   2.299   4.661  0.3166  0.7507  1.4420
 8469TIP3    H246823   3.588   2.320   4.580  0.3881 -1.2383  0.7970
 8470TIP3   OH246824   5.766   4.333  11.584  0.0716 -0.4519 -0.0064
 8470TIP3    H146825   5.808   4.299  11.504 -0.0220 -0.9300  0.1475
 8470TIP3    H246826   5.706   4.263  11.611  1.4558 -1.0906  1.5215
 8471TIP3   OH246827   4.305   2.614  13.836 -0.9103  0.4539 -0.1489
 8471TIP3    H146828   4.311   2.629  13.741  0.9656 -1.5621 -0.3748
 8471TIP3    H246829   4.212   2.599  13.852 -1.1761  0.3239 -1.7387
 8472TIP3   OH246830   1.345   4.244  14.469  0.5492  0.1182  0.3688
 8472TIP3    H146831   1.438   4.238  14.448  0.6524 -1.5845  1.2872
 8472TIP3    H246832   1.342   4.244  14.565 -0.2339  2.9845  0.3994
 8473TIP3   OH246833   4.023   0.343  14.863  0.5683  0.0020  0.3228
 8473TIP3    H146834   4.111   0.377  14.879  1.0760 -0.6682 -1.0295
 8473TIP3    H246835   4.034   0.248  14.861 -0.6350 -0.2378  2.8361
 8474TIP3   OH246836   3.966   6.015  11.297  0.6412 -0.4788  0.5579
 8474TIP3    H146837   4.021   5.938  11.310 -1.7428 -2.6346 -1.6518
 8474TIP3    H246838   4.002   6.057  11.219  0.8921 -0.2905  0.7732
 8475TIP3   OH246839   5.960   4.920  12.186 -0.5227 -0.8102  0.1102
 8475TIP3    H146840   6.017   4.887  12.116  1.0033  1.4239  0.2591
 8475TIP3    H246841   5.895   4.973  12.141  0.9230  1.2688  0.3979
 8476TIP3   OH246842   0.554   2.133  13.244  0.1356 -0.1038  0.9785
 8476TIP3    H146843   0.637   2.178  13.259  0.4117 -0.6469  1.0916
 8476TIP3    H246844   0.488   2.202  13.250  0.5760  0.3250  0.9168
 8477TIP3   OH246845   0.858   3.888  13.244  0.0724 -0.2436 -0.1613
 8477TIP3    H146846   0.769   3.892  13.208  0.2398  1.3678 -0.4284
 8477TIP3    H246847   0.870   3.973  13.286  1.6560 -0.2940 -0.4998
 8478TIP3   OH246848   0.843   6.408  14.887 -0.4923  0.5506 -0.2379
 8478TIP3    H146849   0.811   6.454  14.810 -1.2897 -0.8791 -0.7801
 8478TIP3    H246850   0.893   6.334  14.852  0.6277  0.8913  0.6187
 8479TIP3   OH246851   1.354   1.951  17.182 -0.7384  0.6185  0.0981
 8479TIP3    H146852   1.275   1.989  17.144 -0.7740 -1.6084 -2.1494
 8479TIP3    H246853   1.326   1.914  17.265 -1.3732  2.5372  0.7788
 8480TIP3   OH246854   1.904   2.910  14.080  0.0892 -0.7104 -0.3918
 8480TIP3    H146855   1.828   2.874  14.127 -0.3494  0.9544  0.2118
 8480TIP3    H246856   1.978   2.892  14.138 -0.2770  0.2478  0.3927
 8481TIP3   OH246857   1.863   5.212  17.002  0.4797  0.4267 -0.0077
 8481TIP3    H146858   1.791   5.166  17.045  0.5913 -0.8936 -1.2281
 8481TIP3    H246859   1.846   5.305  17.020 -1.3414  0.1074 -0.0317
 8482TIP3   OH246860   2.962   5.745   6.858 -0.1536 -0.2096  0.1727
 8482TIP3    H146861   3.037   5.687   6.840  0.2844  0.0341  1.1549
 8482TIP3    H246862   3.002   5.824   6.895 -0.8491  0.1780  0.0960
 8483TIP3   OH246863   6.089   4.106  11.303 -0.2657 -0.1473 -0.6246
 8483TIP3    H146864   6.017   4.055  11.340 -0.1734  0.8606  1.0242
 8483TIP3    H246865   6.146   4.042  11.261 -1.0975 -1.1700 -0.2025
 8484TIP3   OH246866   4.253   0.180   4.916 -0.4298 -0.1359  0.1373
 8484TIP3    H146867   4.312   0.175   4.992 -1.2052  0.4564  0.7841
 8484TIP3    H246868   4.308   0.154   4.842  0.0486 -1.7802  1.0438
 8485TIP3   OH246869   2.872   5.881   5.975 -0.4575 -0.2885 -0.3009
 8485TIP3    H146870   2.810   5.828   5.925 -1.1651 -0.2042  0.4849
 8485TIP3    H246871   2.907   5.943   5.911 -0.1950 -1.2012 -1.0502
 8486TIP3   OH246872   6.416   4.305   3.545  0.2104 -0.2851  0.0720
 8486TIP3    H146873   6.385   4.294   3.635 -0.7731  1.5503 -0.0070
 8486TIP3    H246874   6.369   4.239   3.495 -0.3689 -0.3317  0.6701
 8487TIP3   OH246875   5.530   5.007  13.555  0.2484  0.1027 -0.1801
 8487TIP3    H146876   5.599   5.004  13.488 -1.0096  1.6103 -1.6002
 8487TIP3    H246877   5.449   4.994  13.506 -0.6756  0.8659  1.1171
 8488TIP3   OH246878   3.833   2.192  12.608  0.0199 -0.1997 -0.5955
 8488TIP3    H146879   3.834   2.120  12.545  0.5868  0.6451 -1.5598
 8488TIP3    H246880   3.740   2.208  12.624 -0.1207 -0.7195 -0.8738
 8489TIP3   OH246881   1.444   3.778  14.051  0.1064 -0.3914 -0.0922
 8489TIP3    H146882   1.474   3.721  13.980 -0.5511 -0.1796 -0.5438
 8489TIP3    H246883   1.502   3.756  14.125  0.9582 -0.4340 -0.7620
 8490TIP3   OH246884   1.515   0.501   3.738  0.3249  0.5969 -0.9080
 8490TIP3    H146885   1.537   0.550   3.818 -0.3190  0.2532 -0.5198
 8490TIP3    H246886   1.552   0.414   3.753 -2.6415 -0.4792  0.4304
 8491TIP3   OH246887   3.052   6.198   0.169  0.8943 -0.2979  0.3981
 8491TIP3    H146888   3.078   6.170   0.081  0.3114  0.9038 -0.1682
 8491TIP3    H246889   3.121   6.260   0.195  1.2175 -0.8696  0.9058
 8492TIP3   OH246890   6.330   1.231  13.618  0.4145  0.9297 -0.4794
 8492TIP3    H146891   6.314   1.173  13.692 -0.2400  0.8479 -0.6861
 8492TIP3    H246892   6.345   1.317  13.658 -0.1754  0.9348 -0.2611
 8493TIP3   OH246893   3.278   3.121  14.803  0.6215  0.1985  0.0600
 8493TIP3    H146894   3.249   3.155  14.888  0.7076  1.0277 -0.2342
 8493TIP3    H246895   3.368   3.153  14.794  1.6610 -2.3773  0.9693
 8494TIP3   OH246896   6.034   5.981  17.218  0.0733  0.2123 -0.1651
 8494TIP3    H146897   5.973   6.052  17.238 -0.0050 -0.0903  0.6831
 8494TIP3    H246898   5.991   5.932  17.148 -0.2358  0.5326 -0.2054
 8495TIP3   OH246899   2.744   1.872  14.121 -0.8959 -0.0863 -0.7543
 8495TIP3    H146900   2.725   1.914  14.037  0.4666  1.4993 -0.3111
 8495TIP3    H246901   2.822   1.819  14.104 -2.3297 -2.1230 -1.1917
 8496TIP3   OH246902   2.723   4.233   4.085  0.4155  0.2925  1.0143
 8496TIP3    H146903   2.628   4.242   4.077  0.4404 -0.1283  0.1309
 8496TIP3    H246904   2.748   4.294   4.154 -0.5601  0.0434  1.5991
 8497TIP3   OH246905   3.853   4.809  10.402  0.6332  0.1654  0.1719
 8497TIP3    H146906   3.890   4.866  10.469 -0.3800  1.2858 -0.2084
 8497TIP3    H246907   3.763   4.795  10.429  0.5172 -0.2205 -0.4014
 8498TIP3   OH246908   1.965   3.907  13.234  0.4780 -0.4751  0.3972
 8498TIP3    H146909   1.943   3.940  13.322  2.2909 -0.0392  0.6940
 8498TIP3    H246910   1.886   3.925  13.182  0.3073  1.6263  1.3110
 8499TIP3   OH246911   5.077   2.543  11.714  0.2184  0.5169  0.7802
 8499TIP3    H146912   5.005   2.570  11.772 -0.1440  0.4067  0.3871
 8499TIP3    H246913   5.092   2.451  11.736  1.1988  0.9132  1.8528
 8500TIP3   OH246914   2.303   5.031  12.831 -0.0642  0.2316 -0.1225
 8500TIP3    H146915   2.225   4.988  12.794 -0.3018  0.7133 -0.1885
 8500TIP3    H246916   2.326   4.977  12.907  2.2845 -2.5936 -2.6913
 8501TIP3   OH246917   3.243   0.769  17.222  0.2450  0.0511 -0.0545
 8501TIP3    H146918   3.231   0.738  17.312  1.4094 -0.6644 -0.1379
 8501TIP3    H246919   3.317   0.829  17.227  1.3584 -1.2326 -0.8018
 8502TIP3   OH246920   5.823   3.351   3.255 -1.2576 -0.1187 -0.6082
 8502TIP3    H146921   5.818   3.260   3.225 -0.8573 -0.4878  0.4416
 8502TIP3    H246922   5.866   3.397   3.183 -2.5182 -0.5283 -1.6451
 8503TIP3   OH246923   6.392   1.759   0.652 -0.1510 -0.0675  0.0242
 8503TIP3    H146924   6.420   1.837   0.701 -1.4048 -0.9726  2.2483
 8503TIP3    H246925   6.463   1.696   0.665 -0.6268 -0.4162  0.9554
 8504TIP3   OH246926   1.637   2.363  15.299 -0.3670  0.6301  0.7623
 8504TIP3    H146927   1.565   2.305  15.322 -0.0175  0.3745  1.2139
 8504TIP3    H246928   1.703   2.306  15.259 -1.1522  1.1357 -1.2992
 8505TIP3   OH246929   0.641   1.869   5.698 -0.3545 -0.3544  0.1673
 8505TIP3    H146930   0.702   1.797   5.681  0.1962 -0.2416  1.6158
 8505TIP3    H246931   0.576   1.832   5.758  0.1123  0.4396  1.1701
 8506TIP3   OH246932   2.569   4.233  13.138  0.8679 -0.2133 -0.5454
 8506TIP3    H146933   2.583   4.182  13.218  0.0462  0.6770  0.1715
 8506TIP3    H246934   2.475   4.230  13.123  0.7308  1.6593 -0.1189
 8507TIP3   OH246935   6.686   5.178   5.491 -0.2909 -0.0184  0.4453
 8507TIP3    H146936   6.626   5.193   5.565 -0.8679  1.3291 -0.2763
 8507TIP3    H246937   6.762   5.233   5.511 -1.1671  1.6550 -0.7843
 8508TIP3   OH246938   2.113   5.266  14.985 -0.4107  0.5206  0.0416
 8508TIP3    H146939   2.024   5.301  14.992 -0.0390  1.3815  0.6188
 8508TIP3    H246940   2.167   5.328  15.035  0.4904 -0.0682 -0.1845
 8509TIP3   OH246941   1.308   2.423  14.388 -0.1399  0.1326  0.3555
 8509TIP3    H146942   1.394   2.390  14.415 -0.8154 -0.7862  1.4503
 8509TIP3    H246943   1.325   2.510  14.353  1.0561  0.5259  1.8510
 8510TIP3   OH246944   4.140   0.669   2.851 -0.6744  0.4328  0.1259
 8510TIP3    H146945   4.211   0.647   2.911 -0.6963  0.1896  0.0654
 8510TIP3    H246946   4.181   0.719   2.781 -0.9090  2.0359  1.1230
 8511TIP3   OH246947   6.381   5.435  12.074 -0.1947 -0.5806  0.4814
 8511TIP3    H146948   6.351   5.429  11.983 -1.8150  1.0710  0.8738
 8511TIP3    H246949   6.433   5.515  12.076  0.2265 -0.8655  0.9135
 8512TIP3   OH246950   1.242   3.294  15.283  0.1490 -0.2733 -0.4420
 8512TIP3    H146951   1.287   3.356  15.226  2.8890 -0.3929  1.4663
 8512TIP3    H246952   1.257   3.209  15.243 -2.6065  0.1270 -2.4275
 8513TIP3   OH246953   1.010   2.401   3.574 -0.0542  0.0870  0.1901
 8513TIP3    H146954   1.077   2.350   3.619 -1.4380 -0.2607  1.9053
 8513TIP3    H246955   0.997   2.355   3.491  2.1417  0.4303 -0.3587
 8514TIP3   OH246956   3.091   5.533   2.015  0.0324 -0.1376 -0.2895
 8514TIP3    H146957   3.034   5.599   2.053 -0.2390 -0.5660  0.0530
 8514TIP3    H246958   3.034   5.458   1.999  0.7396 -1.0277  1.2502
 8515TIP3   OH246959   1.601   1.900   0.126  0.4503  0.2479 -0.3607
 8515TIP3    H146960   1.683   1.945   0.146 -0.1990  0.7297  1.2715
 8515TIP3    H246961   1.552   1.900   0.208  0.3797 -3.3525 -0.3170
 8516TIP3   OH246962   6.002   1.453  17.087 -0.0304  0.0782 -0.4836
 8516TIP3    H146963   6.067   1.423  17.023 -0.1053 -0.5246 -0.2763
 8516TIP3    H246964   5.925   1.474  17.034 -0.0528 -0.3070 -0.6064
 8517TIP3   OH246965   4.346   4.768   6.596  0.2814  0.4393 -0.0301
 8517TIP3    H146966   4.304   4.854   6.588  0.9053  1.0633  2.6685
 8517TIP3    H246967   4.308   4.732   6.677  1.8495 -0.7575  0.1822
 8518TIP3   OH246968   0.654   2.043   6.447 -0.1308  0.4667  0.4645
 8518TIP3    H146969   0.700   1.982   6.504  2.2075  1.5172 -0.2536
 8518TIP3    H246970   0.569   2.055   6.490  0.1338 -1.6691  1.6981
 8519TIP3   OH246971   1.239   3.243  17.140  0.4394 -0.5580  0.1478
 8519TIP3    H146972   1.249   3.328  17.097  1.0813 -0.3035  0.7933
 8519TIP3    H246973   1.223   3.182  17.068  2.9581 -0.3808 -0.6073
 8520TIP3   OH246974   5.436   1.966   3.206 -0.1919  0.1544 -0.2295
 8520TIP3    H146975   5.509   1.986   3.148  0.8664  0.2903  1.1363
 8520TIP3    H246976   5.430   2.041   3.265 -0.2546 -0.6592  0.8225
 8521TIP3   OH246977   6.653   4.115  16.894 -0.3255  0.3942 -0.1733
 8521TIP3    H146978   6.588   4.102  16.963  1.2251  1.9638  1.6350
 8521TIP3    H246979   6.730   4.068  16.925  0.8220  2.2398 -0.1720
 8522TIP3   OH246980   4.461   5.356   3.641  0.2717 -0.3911  0.0655
 8522TIP3    H146981   4.477   5.334   3.733 -0.2258  1.6962  0.6625
 8522TIP3    H246982   4.507   5.438   3.627 -0.0368 -0.4607 -1.4407
 8523TIP3   OH246983   2.499   1.901   5.130 -0.2512  0.0208 -0.4386
 8523TIP3    H146984   2.478   1.842   5.202  0.4037  0.7074  0.3269
 8523TIP3    H246985   2.556   1.967   5.169 -0.7437  0.9993 -1.3443
 8524TIP3   OH246986   4.590   2.226   3.954  0.6571  0.1721  0.1586
 8524TIP3    H146987   4.539   2.170   3.896  0.2161 -0.2779  0.9799
 8524TIP3    H246988   4.679   2.223   3.918  1.0772 -2.6737  1.3846
 8525TIP3   OH246989   3.640   3.383   2.208 -0.2181  0.8833 -0.0161
 8525TIP3    H146990   3.730   3.355   2.222 -0.2705  0.9069  0.3989
 8525TIP3    H246991   3.587   3.309   2.235 -0.2907  0.0481 -2.3511
 8526TIP3   OH246992   0.719   1.186   5.674 -0.2667 -0.1382  0.4367
 8526TIP3    H146993   0.647   1.240   5.705  0.5680 -0.2574  2.6689
 8526TIP3    H246994   0.797   1.221   5.718  0.3646 -2.7931  1.5624
 8527TIP3   OH246995   3.270   2.088   1.900 -0.9807  0.1802 -0.0534
 8527TIP3    H146996   3.277   2.096   1.996  0.3523  0.0176 -0.1330
 8527TIP3    H246997   3.289   1.997   1.882  1.7217  0.8352 -0.7144
 8528TIP3   OH246998   4.438   2.331  16.872 -0.4882  0.3402 -0.2355
 8528TIP3    H146999   4.489   2.372  16.802 -1.0863 -0.1756 -0.9872
 8528TIP3    H247000   4.418   2.402  16.932  0.6055  0.6633 -0.2303
 8529TIP3   OH247001   3.003   3.144  13.848 -0.2412 -0.7095 -0.5126
 8529TIP3    H147002   3.022   3.100  13.931 -1.4022 -2.1174 -0.9867
 8529TIP3    H247003   3.078   3.203  13.835  2.9047 -4.6635 -1.3469
 8530TIP3   OH247004   3.974   1.283   5.049 -0.2884 -0.2867  0.1847
 8530TIP3    H147005   3.890   1.239   5.034 -1.6676  1.6152  2.0555
 8530TIP3    H247006   3.959   1.336   5.127  2.3598  0.8714 -0.0627
 8531TIP3   OH247007   3.253   5.371  16.214  0.1620 -0.7035 -0.7569
 8531TIP3    H147008   3.271   5.434  16.284  0.8928 -1.9200  0.1660
 8531TIP3    H247009   3.164   5.340  16.232 -0.0950 -0.1303 -1.0551
 8532TIP3   OH247010   4.386   6.744   6.469  0.1864 -0.3567 -0.6085
 8532TIP3    H147011   4.334   6.682   6.418 -0.6736 -1.0416  1.0391
 8532TIP3    H247012   4.368   6.720   6.560  2.5491  0.0934  0.0184
 8533TIP3   OH247013   3.994   3.867   1.963 -0.2547 -0.2515 -0.3776
 8533TIP3    H147014   3.975   3.921   2.040 -1.6134 -1.9208  0.4895
 8533TIP3    H247015   3.981   3.777   1.992 -0.6034 -0.9301 -2.5048
 8534TIP3   OH247016   2.757   6.592   6.653 -0.3529 -0.2363  0.6076
 8534TIP3    H147017   2.754   6.497   6.641 -2.1422 -0.2023  0.5850
 8534TIP3    H247018   2.849   6.614   6.646  0.2864 -2.1839  2.3195
 8535TIP3   OH247019   1.912   0.790   4.884  0.0932  0.8120  0.1959
 8535TIP3    H147020   1.891   0.743   4.803  1.4607 -0.2034  0.4154
 8535TIP3    H247021   1.845   0.858   4.890 -0.9514 -0.0952 -0.9704
 8536TIP3   OH247022   2.589   3.452  12.448 -0.2905  0.1065  0.2820
 8536TIP3    H147023   2.631   3.370  12.419 -1.4231 -0.4941  0.3168
 8536TIP3    H247024   2.656   3.519  12.432  0.3029 -0.6763 -0.6670
 8537TIP3   OH247025   3.514   2.403   3.242  0.3628 -0.4264  0.1761
 8537TIP3    H147026   3.465   2.385   3.323  0.0477 -3.1252 -0.5545
 8537TIP3    H247027   3.603   2.422   3.272 -0.1625  0.3450  1.2659
 8538TIP3   OH247028   5.091   6.699   0.771  0.9346 -0.3047 -0.2910
 8538TIP3    H147029   5.082   6.794   0.767  0.1410 -0.2754  1.7900
 8538TIP3    H247030   5.008   6.666   0.738  0.4021 -0.2409  0.9639
 8539TIP3   OH247031   0.233   6.517   0.023 -0.5971  0.3975 -0.6305
 8539TIP3    H147032   0.271   6.594  -0.019  0.0260 -0.8484 -2.4324
 8539TIP3    H247033   0.286   6.444  -0.010 -1.6925 -0.8906  0.4065
 8540TIP3   OH247034   4.073   3.938   4.321 -0.4278 -0.1333  0.3703
 8540TIP3    H147035   4.096   4.000   4.252 -2.4755  1.8710  1.4279
 8540TIP3    H247036   4.094   3.984   4.402  1.1995 -2.1532  1.1346
 8541TIP3   OH247037   4.734   1.996  10.717  0.0329  0.0076 -0.4575
 8541TIP3    H147038   4.787   1.949  10.782  0.0954  0.8351  0.1092
 8541TIP3    H247039   4.799   2.038  10.660 -0.0199  0.0940 -0.4537
 8542TIP3   OH247040   5.416   2.750  15.393 -0.4936 -0.2821  0.4252
 8542TIP3    H147041   5.356   2.819  15.423  1.5291  1.7351  0.0433
 8542TIP3    H247042   5.398   2.742  15.299 -0.9894 -0.5292  0.5440
 8543TIP3   OH247043   2.594   3.608  11.321  0.5174 -0.1086 -0.0465
 8543TIP3    H147044   2.559   3.696  11.305  0.9630 -0.0441 -0.7051
 8543TIP3    H247045   2.539   3.551  11.267  1.2216 -0.0459 -0.8274
 8544TIP3   OH247046   2.964   2.582   5.419 -0.2215  0.2357  0.3208
 8544TIP3    H147047   3.013   2.634   5.356  0.2853  0.3459  0.8011
 8544TIP3    H247048   2.873   2.589   5.391 -0.0474  0.6398 -0.1416
 8545TIP3   OH247049   2.896   6.030  14.638 -0.2667 -0.1340 -0.1585
 8545TIP3    H147050   2.896   5.934  14.637 -1.3967 -0.1406 -1.8839
 8545TIP3    H247051   2.894   6.053  14.731 -0.0178 -1.7839  0.2698
 8546TIP3   OH247052   1.766   4.023  12.531 -0.2306  0.0660  0.1779
 8546TIP3    H147053   1.764   4.045  12.624 -0.2563 -0.4426  0.2979
 8546TIP3    H247054   1.775   4.108  12.486 -2.8753  0.5699  0.5267
 8547TIP3   OH247055   4.853   0.727  15.779  0.3417 -0.3810  0.1865
 8547TIP3    H147056   4.806   0.659  15.827  3.2575 -1.9517  0.9781
 8547TIP3    H247057   4.945   0.697  15.780  0.9355  1.0322 -3.8173
 8548TIP3   OH247058   5.012   1.021  12.088 -0.5717  0.0593 -0.1213
 8548TIP3    H147059   4.966   1.094  12.047 -0.7309 -1.1774 -2.2498
 8548TIP3    H247060   5.018   1.044  12.181 -4.1488  0.9265 -0.0564
 8549TIP3   OH247061   3.909   0.291  14.525  0.0629 -0.1213 -0.7593
 8549TIP3    H147062   3.936   0.248  14.444 -2.4490 -1.6671 -0.8464
 8549TIP3    H247063   3.868   0.221  14.576 -0.5072  1.3415  0.8244
 8550TIP3   OH247064   5.723   2.689  17.096  0.4776  0.0584  0.2439
 8550TIP3    H147065   5.700   2.777  17.125 -0.4137 -0.1270  0.1118
 8550TIP3    H247066   5.817   2.693  17.080  0.1077  1.5490 -1.7361
 8551TIP3   OH247067   5.491   5.878  12.688  0.3912  0.0998  0.3209
 8551TIP3    H147068   5.545   5.940  12.735  1.0264 -1.5993  1.8944
 8551TIP3    H247069   5.409   5.875  12.736  0.6580 -0.8634  0.7332
 8552TIP3   OH247070   5.343   0.489  11.334 -0.4542  0.1485 -0.2101
 8552TIP3    H147071   5.353   0.395  11.319 -0.2669  0.1045  0.2111
 8552TIP3    H247072   5.431   0.520  11.355 -0.4334  0.4960 -0.7960
 8553TIP3   OH247073   1.893   3.193  11.496 -0.0243  0.2102 -0.4032
 8553TIP3    H147074   1.976   3.158  11.462  0.9188  1.6325  0.3557
 8553TIP3    H247075   1.876   3.270  11.442 -0.8553 -0.0871 -0.5583
 8554TIP3   OH247076   4.208   3.752   0.056 -0.3100  0.4151  0.4998
 8554TIP3    H147077   4.260   3.833   0.051  1.2222 -0.5551  0.3857
 8554TIP3    H247078   4.177   3.749   0.147  1.5575 -0.0199  1.1465
 8555TIP3   OH247079   5.704   3.438  16.604 -0.1157  0.1628  0.6103
 8555TIP3    H147080   5.694   3.378  16.530  0.7071  0.5102  0.2076
 8555TIP3    H247081   5.625   3.425  16.656 -0.6382 -0.1992 -0.2511
 8556TIP3   OH247082   5.146   1.312   0.487  0.1996  0.3890  0.2316
 8556TIP3    H147083   5.112   1.399   0.468 -0.2214  0.3195  0.6640
 8556TIP3    H247084   5.119   1.294   0.577  1.4245  0.3493  0.5945
 8557TIP3   OH247085   1.496   5.417   1.273  0.2029  0.3210  0.3347
 8557TIP3    H147086   1.551   5.346   1.240 -0.8522 -0.1384 -0.4566
 8557TIP3    H247087   1.466   5.463   1.194 -2.0714 -0.5853  0.6271
 8558TIP3   OH247088   2.379   4.052  12.443 -0.0799 -0.0978  0.1773
 8558TIP3    H147089   2.421   4.088  12.521  2.1146 -1.0829 -0.5029
 8558TIP3    H247090   2.292   4.025  12.474  0.5152  0.1007  2.1396
 8559TIP3   OH247091   1.882   2.656  13.292  0.2190 -0.4331  0.3646
 8559TIP3    H147092   1.963   2.706  13.293  0.3470 -0.6396  0.4027
 8559TIP3    H247093   1.818   2.712  13.336  0.2236 -0.0745 -0.0817
 8560TIP3   OH247094   4.112   1.394   5.728  0.4013 -0.3411  0.3730
 8560TIP3    H147095   4.109   1.490   5.733  1.5623 -0.3459  1.4935
 8560TIP3    H247096   4.169   1.368   5.800  1.8565 -1.7634 -1.2308
 8561TIP3   OH247097   5.238   0.435  11.880 -0.3964  0.3189 -0.1700
 8561TIP3    H147098   5.168   0.457  11.941 -1.5266 -1.0690 -0.9350
 8561TIP3    H247099   5.206   0.467  11.795 -0.7140 -1.4496 -0.7489
 8562TIP3   OH247100   2.264   0.132   1.088 -0.4169 -0.3198  0.1678
 8562TIP3    H147101   2.334   0.066   1.090  1.1820  1.3667  0.9719
 8562TIP3    H247102   2.253   0.152   0.995  1.0318  0.2707  0.1050
 8563TIP3   OH247103   0.740   6.189   0.635  0.4758  0.0099 -0.0636
 8563TIP3    H147104   0.697   6.141   0.706  0.5463 -1.9800 -1.3643
 8563TIP3    H247105   0.829   6.153   0.632 -0.0513 -1.1802 -2.3177
 8564TIP3   OH247106   0.698   2.132  15.405  0.2674  0.1505  0.6254
 8564TIP3    H147107   0.654   2.055  15.442 -0.2647 -0.2724 -0.8830
 8564TIP3    H247108   0.738   2.100  15.324 -0.7168  1.6726 -0.4789
 8565TIP3   OH247109   1.877   0.525  16.697 -0.0262 -0.5656  0.6228
 8565TIP3    H147110   1.887   0.497  16.606  0.1705 -0.0539  0.4830
 8565TIP3    H247111   1.852   0.446  16.744  0.2349 -0.9097  0.1839
 8566TIP3   OH247112   3.022   4.780  14.164  0.3357  0.1772  0.0760
 8566TIP3    H147113   2.995   4.870  14.182 -1.0016 -0.2844  0.4472
 8566TIP3    H247114   3.022   4.774  14.069 -2.4949 -0.2651  0.0671
 8567TIP3   OH247115   0.959   5.131  13.345 -0.4604 -0.4430  0.0101
 8567TIP3    H147116   0.943   5.095  13.432  0.1794 -0.9500 -0.0781
 8567TIP3    H247117   1.001   5.060  13.297  0.6002  0.3392 -0.2336
 8568TIP3   OH247118   6.674   1.993   1.052  0.2817 -0.5924  0.1165
 8568TIP3    H147119   6.697   2.085   1.063 -1.5773  0.2578 -2.5408
 8568TIP3    H247120   6.598   1.980   1.108 -1.2216  0.2902 -1.6641
 8569TIP3   OH247121   1.900   1.724   4.067  0.1320  0.3493 -0.5482
 8569TIP3    H147122   1.873   1.639   4.033 -0.6306  0.5948 -0.5666
 8569TIP3    H247123   1.986   1.708   4.107 -0.4387 -0.6288  0.2883
 8570TIP3   OH247124   4.120   2.958  11.784  0.3338 -0.2975 -0.1036
 8570TIP3    H147125   4.104   3.046  11.816 -0.8389 -0.5063 -0.1016
 8570TIP3    H247126   4.195   2.927  11.835  0.6801  0.6453 -0.0301
 8571TIP3   OH247127   2.484   3.020  12.752 -0.1809  0.1698  0.0182
 8571TIP3    H147128   2.453   2.958  12.819  1.0728 -2.0675 -1.4045
 8571TIP3    H247129   2.438   2.994  12.672 -0.2560  1.6256 -0.4282
 8572TIP3   OH247130   6.471   2.077   1.530 -0.6367  0.0048 -0.0898
 8572TIP3    H147131   6.513   2.115   1.453 -1.3663  1.0241  0.0130
 8572TIP3    H247132   6.531   2.008   1.558 -0.1139 -0.0219 -1.2611
 8573TIP3   OH247133   5.327   1.255   2.945 -0.0990 -0.3887  0.0535
 8573TIP3    H147134   5.251   1.312   2.948  0.7528  0.7136  1.2405
 8573TIP3    H247135   5.402   1.315   2.949  0.8315 -1.4600 -0.8674
 8574TIP3   OH247136   3.326   4.645   4.870 -0.2125  0.1598 -0.5183
 8574TIP3    H147137   3.381   4.706   4.918 -1.6006  1.3932 -0.4369
 8574TIP3    H247138   3.380   4.614   4.798  0.9038  0.5718  0.1414
 8575TIP3   OH247139   2.999   0.014   2.327  0.1068  0.4413  0.0569
 8575TIP3    H147140   3.077   0.039   2.278 -1.0658 -1.7089 -3.0563
 8575TIP3    H247141   3.021  -0.071   2.366  0.1764  0.9907  1.2206
 8576TIP3   OH247142   2.385   3.783  12.992 -0.0698 -0.4819 -0.5647
 8576TIP3    H147143   2.316   3.751  12.934 -1.5383  0.0783  0.8072
 8576TIP3    H247144   2.339   3.803  13.074  1.4663  1.3477 -0.1191
 8577TIP3   OH247145   1.377   1.381  10.741  0.3308  0.4988  0.5826
 8577TIP3    H147146   1.424   1.437  10.680  1.5924  0.2942  1.3434
 8577TIP3    H247147   1.323   1.325  10.686  0.8378  0.8683 -0.2938
 8578TIP3   OH247148   0.820   1.804  13.953  0.1860 -0.3038  0.7216
 8578TIP3    H147149   0.778   1.838  13.874  0.4886 -0.4173  0.5101
 8578TIP3    H247150   0.866   1.879  13.990 -0.6642 -0.0498  1.2561
 8579TIP3   OH247151   0.878   0.980   0.650 -0.4718 -0.1481  0.4864
 8579TIP3    H147152   0.787   0.950   0.655  0.1515 -2.1368  0.1004
 8579TIP3    H247153   0.925   0.924   0.712  0.5657  0.6041  0.3901
 8580TIP3   OH247154   3.469   2.041  11.191  0.0867  0.1516  1.0816
 8580TIP3    H147155   3.383   2.084  11.193 -1.4634 -2.7665  0.3289
 8580TIP3    H247156   3.508   2.069  11.108 -0.2026  1.2954  1.3126
 8581TIP3   OH247157   0.722   2.327  11.271  0.5217  0.6958  0.0397
 8581TIP3    H147158   0.733   2.405  11.326  1.5596 -0.0375  0.8773
 8581TIP3    H247159   0.721   2.254  11.333 -0.1529  0.0146 -0.7707
 8582TIP3   OH247160   4.914   2.313  13.350  0.1894  0.0788  0.1466
 8582TIP3    H147161   4.819   2.308  13.362  0.2935  1.7314  1.9478
 8582TIP3    H247162   4.946   2.228  13.378 -0.7562 -0.4260 -0.2898
 8583TIP3   OH247163   2.712   1.559   2.190  0.0877  0.1247  0.5939
 8583TIP3    H147164   2.758   1.480   2.162  0.0009  0.4553 -0.5042
 8583TIP3    H247165   2.620   1.534   2.190 -0.1766  0.9054 -2.1793
 8584TIP3   OH247166   6.134   5.554   3.193  0.2337  0.2683  0.1712
 8584TIP3    H147167   6.064   5.610   3.159 -0.8606 -0.5739  0.9810
 8584TIP3    H247168   6.090   5.472   3.215  1.7262 -0.7754 -0.6004
 8585TIP3   OH247169   1.196   3.143  13.262 -0.5434 -0.7910 -0.2104
 8585TIP3    H147170   1.143   3.088  13.204  0.6597 -3.2278  0.9432
 8585TIP3    H247171   1.219   3.086  13.335  0.9212  1.1962  0.9210
 8586TIP3   OH247172   6.583   6.081  14.380 -0.1180 -0.1784 -0.6643
 8586TIP3    H147173   6.536   6.096  14.298  0.2290 -1.4198 -1.1010
 8586TIP3    H247174   6.516   6.089  14.448 -1.0460 -2.1762 -1.2935
 8587TIP3   OH247175   2.029   2.176  16.659  0.0462 -0.5483 -0.1736
 8587TIP3    H147176   2.071   2.252  16.701  0.1273 -0.1996 -0.8772
 8587TIP3    H247177   2.092   2.105  16.670 -0.8494 -1.0309  2.2085
 8588TIP3   OH247178   4.820   3.529  17.011  0.1306 -0.6114  0.1618
 8588TIP3    H147179   4.829   3.498  17.101  0.5472  0.3827  0.4660
 8588TIP3    H247180   4.726   3.522  16.993  0.2063 -1.8937  0.2794
 8589TIP3   OH247181   3.204   1.798   5.746  0.2526  0.4141  0.2911
 8589TIP3    H147182   3.135   1.844   5.794 -0.0858  1.4741 -1.1594
 8589TIP3    H247183   3.261   1.868   5.713  0.5779 -0.2981 -0.6885
 8590TIP3   OH247184   4.019   1.369   3.178 -0.0729  0.0113 -0.3108
 8590TIP3    H147185   3.956   1.310   3.137 -0.0090 -1.3385  1.4825
 8590TIP3    H247186   4.089   1.379   3.112 -0.3649 -1.4434 -0.8605
 8591TIP3   OH247187   5.285   1.719   0.010 -0.3116 -0.2733 -0.3740
 8591TIP3    H147188   5.312   1.669  -0.067  0.8164  0.5077 -0.5020
 8591TIP3    H247189   5.249   1.800  -0.026 -1.9151 -0.8827 -0.1598
 8592TIP3   OH247190   2.769   0.923  13.715 -0.1922 -0.2859  0.4256
 8592TIP3    H147191   2.813   0.841  13.692  1.5802  0.9301 -0.7574
 8592TIP3    H247192   2.710   0.940  13.642  0.2781  0.0405  0.1143
 8593TIP3   OH247193   4.948   2.015  15.420  0.0006  0.0220  0.3568
 8593TIP3    H147194   4.856   2.043  15.428 -0.6237 -2.1000  0.8575
 8593TIP3    H247195   4.990   2.053  15.497 -0.3670  1.2902 -0.0462
 8594TIP3   OH247196   5.687   0.129   4.307  0.3236 -0.1056  0.1992
 8594TIP3    H147197   5.662   0.037   4.301  1.0829 -0.2826 -0.2013
 8594TIP3    H247198   5.781   0.130   4.292  0.3739  0.7012  0.5322
 8595TIP3   OH247199   0.543   1.997  13.515 -0.3095 -0.8343 -0.4304
 8595TIP3    H147200   0.453   2.016  13.487 -0.5173 -2.0619 -0.6600
 8595TIP3    H247201   0.598   2.044  13.453 -0.7956  0.0550 -0.1952
 8596TIP3   OH247202   4.474   4.069   0.744  0.0471 -0.1962  0.3628
 8596TIP3    H147203   4.550   4.095   0.797  1.3945 -0.7104 -1.2674
 8596TIP3    H247204   4.494   4.102   0.657 -1.4691 -0.6310 -0.1519
 8597TIP3   OH247205   0.786   2.503   0.436 -0.4505 -0.2253  0.3556
 8597TIP3    H147206   0.751   2.537   0.518  0.1009 -0.6943  0.7939
 8597TIP3    H247207   0.881   2.511   0.445 -0.3880 -0.2400 -0.2549
 8598TIP3   OH247208   0.598   3.098   4.991  0.6535 -0.3717 -0.2451
 8598TIP3    H147209   0.648   3.170   4.953 -0.7933  0.8139  0.0598
 8598TIP3    H247210   0.605   3.111   5.086 -2.7834  1.6648 -0.1885
 8599TIP3   OH247211   0.979   0.048   1.590 -0.3694 -0.0500 -0.0514
 8599TIP3    H147212   1.040   0.090   1.651 -0.2259  0.1341 -0.3183
 8599TIP3    H247213   0.932   0.120   1.549  0.6338 -0.0785 -1.2992
 8600TIP3   OH247214   1.941   6.594   2.765  1.0208  0.7158  0.0236
 8600TIP3    H147215   1.866   6.653   2.771  0.8347  0.4243  0.5760
 8600TIP3    H247216   1.903   6.506   2.772  1.3059  0.5318 -0.7115
 8601TIP3   OH247217   1.117   2.714  16.448  0.2117  0.0525 -0.6052
 8601TIP3    H147218   1.126   2.786  16.385 -0.6865  0.0504 -0.7413
 8601TIP3    H247219   1.149   2.637  16.401  1.3169  0.3793 -0.4078
 8602TIP3   OH247220   5.185   0.700   3.274 -0.2406  0.4752 -0.2354
 8602TIP3    H147221   5.114   0.654   3.228  0.3282  0.3016 -0.9334
 8602TIP3    H247222   5.166   0.685   3.367  0.6891 -2.3255 -0.4610
 8603TIP3   OH247223   6.142   5.782  11.671  0.4907 -0.1523  0.0490
 8603TIP3    H147224   6.196   5.806  11.596  0.2304  1.0730  0.2335
 8603TIP3    H247225   6.202   5.741  11.732  1.3248  1.6622  0.4715
 8604TIP3   OH247226   2.165   1.937  16.229 -0.5556  0.3994 -0.2393
 8604TIP3    H147227   2.077   1.909  16.252 -0.1164 -0.6645  0.1854
 8604TIP3    H247228   2.170   2.028  16.258 -0.6745 -0.3145  2.0581
 8605TIP3   OH247229   5.005   6.058  15.694 -0.6469 -0.1522 -0.6161
 8605TIP3    H147230   5.009   6.100  15.608  1.1188 -0.9683 -0.9490
 8605TIP3    H247231   4.915   6.024  15.700 -0.5264 -0.8626 -2.5098
 8606TIP3   OH247232   4.069   4.366   3.063  0.3272 -0.3356  0.2260
 8606TIP3    H147233   4.160   4.337   3.073  0.5997  1.0065  1.9989
 8606TIP3    H247234   4.073   4.434   2.996  0.7242  0.0933  0.6826
 8607TIP3   OH247235   2.906   1.662  14.088 -0.2560 -0.9719  0.0674
 8607TIP3    H147236   2.925   1.599  14.158  1.2779 -0.6672 -0.0398
 8607TIP3    H247237   2.991   1.675  14.045 -0.8961 -0.0649 -0.9298
 8608TIP3   OH247238   4.351   2.505  14.433 -0.3024  0.2722  0.4484
 8608TIP3    H147239   4.296   2.496  14.355  0.0962 -2.0114  0.3967
 8608TIP3    H247240   4.336   2.424  14.483  2.2626  0.0206  0.8903
 8609TIP3   OH247241   3.214   4.849   2.271  0.0901 -0.1623 -0.6787
 8609TIP3    H147242   3.220   4.921   2.209  0.4959 -0.4452 -0.9702
 8609TIP3    H247243   3.173   4.888   2.349  1.4107  0.6730 -0.3899
 8610TIP3   OH247244   2.060   4.436  10.954  0.3450  0.2991  0.6985
 8610TIP3    H147245   1.998   4.499  10.916  2.2908  0.7948 -1.7759
 8610TIP3    H247246   2.082   4.377  10.881  0.0745 -2.0803  2.4656
 8611TIP3   OH247247   1.778   1.893   5.869  0.5840 -0.1494 -0.0734
 8611TIP3    H147248   1.704   1.845   5.830  0.7613 -1.6267  1.3618
 8611TIP3    H247249   1.737   1.967   5.913 -0.0090 -0.7269  0.3618
 8612TIP3   OH247250   3.138   4.905   5.227  0.1768  0.0326  0.1347
 8612TIP3    H147251   3.073   4.834   5.230 -0.7080  0.8890  2.0444
 8612TIP3    H247252   3.121   4.956   5.306  2.4480  0.9415  0.0576
 8613TIP3   OH247253   2.785   6.167   5.917  0.0134 -0.3983  0.3640
 8613TIP3    H147254   2.862   6.212   5.951 -0.6607  0.8293  0.3033
 8613TIP3    H247255   2.751   6.118   5.991 -1.0627  1.7363  1.3386
 8614TIP3   OH247256   4.586   5.145  14.701 -0.1589  0.4588  0.3954
 8614TIP3    H147257   4.582   5.224  14.647  0.1038  0.6682  0.6863
 8614TIP3    H247258   4.658   5.095  14.664  0.3278  0.8204  0.8484
 8615TIP3   OH247259   4.622   2.219  15.218  0.5892 -0.7288  0.4014
 8615TIP3    H147260   4.623   2.312  15.195 -2.5669 -0.7023  0.1308
 8615TIP3    H247261   4.677   2.177  15.152 -0.6158  0.5639 -1.4723
 8616TIP3   OH247262   4.817   1.760   1.658  0.0171  0.3273 -0.0632
 8616TIP3    H147263   4.803   1.843   1.704  1.1707 -0.0216  0.9456
 8616TIP3    H247264   4.908   1.764   1.629 -0.7265  0.6187 -2.5372
 8617TIP3   OH247265   1.487   0.432  11.085  0.0978 -0.0576  0.3319
 8617TIP3    H147266   1.580   0.456  11.087  0.2161 -0.6186  2.1368
 8617TIP3    H247267   1.476   0.371  11.158 -1.5897 -0.3983 -0.1818
 8618TIP3   OH247268   3.604   4.324  16.488  0.1903 -0.5151 -0.1932
 8618TIP3    H147269   3.597   4.419  16.492  1.4651 -0.4039 -0.3947
 8618TIP3    H247270   3.536   4.292  16.547 -1.3239  0.4786 -1.3453
 8619TIP3   OH247271   3.661   4.762   2.935  0.1305  0.6409 -0.0646
 8619TIP3    H147272   3.722   4.694   2.964 -0.7577 -0.2883 -0.3500
 8619TIP3    H247273   3.711   4.816   2.874  0.8067  0.1817  0.0890
 8620TIP3   OH247274   4.869   0.280   2.629 -0.3300 -0.0278  0.0386
 8620TIP3    H147275   4.786   0.326   2.622 -0.0200  0.7710  1.3639
 8620TIP3    H247276   4.868   0.216   2.558 -1.0042  1.6598 -1.4930
 8621TIP3   OH247277   2.130   6.519   0.745  0.7273  0.2334  0.2080
 8621TIP3    H147278   2.218   6.521   0.783  1.2654  1.1259 -1.0572
 8621TIP3    H247279   2.144   6.530   0.651 -0.7353  0.2328 -0.0243
 8622TIP3   OH247280   4.757   6.598   0.797 -0.0410 -0.1948  0.0447
 8622TIP3    H147281   4.728   6.651   0.872 -1.1830  0.1221 -0.6180
 8622TIP3    H247282   4.787   6.516   0.836  0.8979  0.5889  1.0001
 8623TIP3   OH247283   3.512   2.427  17.007  1.0113 -0.1068 -0.2467
 8623TIP3    H147284   3.512   2.380  17.090  2.5210  0.3642  0.0335
 8623TIP3    H247285   3.604   2.450  16.992  0.4836  1.5502 -1.0639
 8624TIP3   OH247286   3.453   2.207   6.773 -0.2345 -0.1631  0.1078
 8624TIP3    H147287   3.417   2.145   6.837  1.6604 -2.3147 -0.8370
 8624TIP3    H247288   3.398   2.195   6.696 -0.7789  0.4121  0.3997
 8625TIP3   OH247289   3.073   0.099   5.964 -0.0690 -0.1495  0.1555
 8625TIP3    H147290   3.042   0.180   5.925  0.8579 -0.4379 -1.2031
 8625TIP3    H247291   3.161   0.120   5.996  0.2948 -0.7129 -0.4830
 8626TIP3   OH247292   4.929   4.031   2.757 -0.0279 -0.0410  0.3150
 8626TIP3    H147293   4.885   3.957   2.798  0.8635  0.3889  2.1062
 8626TIP3    H247294   5.021   4.023   2.784  0.7027 -0.0363 -2.0515
 8627TIP3   OH247295   3.524   3.237  12.339 -0.1625  0.3123 -0.3820
 8627TIP3    H147296   3.455   3.217  12.403  0.3053 -0.5328 -0.1291
 8627TIP3    H247297   3.507   3.176  12.267 -0.2084  0.7160 -0.7130
 8628TIP3   OH247298   2.341   5.611   5.196 -0.0759  0.2297  0.2873
 8628TIP3    H147299   2.287   5.690   5.198  0.7432  0.7787  1.9870
 8628TIP3    H247300   2.279   5.540   5.181 -0.7983  1.1880 -1.4576
 8629TIP3   OH247301   0.126   5.282  16.078 -0.4411  0.2998  0.4520
 8629TIP3    H147302   0.144   5.303  15.986 -0.7315  2.2846  0.8247
 8629TIP3    H247303   0.046   5.332  16.098 -0.1472  0.1926  1.9003
 8630TIP3   OH247304   1.062   0.720  15.229  0.6180  0.3666 -0.3377
 8630TIP3    H147305   1.018   0.662  15.291  0.5983  0.9018  0.1551
 8630TIP3    H247306   1.028   0.807  15.250  1.6355  0.7328 -0.1974
 8631TIP3   OH247307   2.293   5.037  16.101 -0.2282  0.2621  0.7452
 8631TIP3    H147308   2.389   5.036  16.100 -0.1084  2.4450  3.7462
 8631TIP3    H247309   2.270   4.992  16.182 -1.9274 -3.0406 -1.4350
 8632TIP3   OH247310   2.484   6.634  16.425 -0.6729 -0.3396  0.0771
 8632TIP3    H147311   2.504   6.552  16.470 -0.3064 -1.1852 -1.6038
 8632TIP3    H247312   2.555   6.693  16.451 -1.1045 -0.4414  1.5325
 8633TIP3   OH247313   2.726   6.029  14.408  0.2565  0.0215  0.4833
 8633TIP3    H147314   2.766   6.021  14.494  1.2225 -0.0116  0.0406
 8633TIP3    H247315   2.779   6.096  14.363 -0.4979  0.3446  0.0727
 8634TIP3   OH247316   6.349   4.298   5.748  0.2814 -0.0528 -0.1733
 8634TIP3    H147317   6.323   4.300   5.840  0.0888  0.4435 -0.2358
 8634TIP3    H247318   6.398   4.380   5.736  1.1883 -0.5989 -0.2554
 8635TIP3   OH247319   2.127   0.922  14.809 -0.0527  0.2267 -0.4379
 8635TIP3    H147320   2.217   0.912  14.841 -0.5178 -1.0338  0.4951
 8635TIP3    H247321   2.100   1.009  14.840  0.2095 -0.1488  0.8587
 8636TIP3   OH247322   4.582   0.372  14.811  0.2319  0.3310  0.0007
 8636TIP3    H147323   4.538   0.410  14.735 -1.2039  0.9116  1.1018
 8636TIP3    H247324   4.656   0.430  14.827 -0.5356  1.2787  0.1741
 8637TIP3   OH247325   3.750   3.411  13.784 -0.4605 -0.0049 -0.1511
 8637TIP3    H147326   3.766   3.490  13.836  2.8955 -0.8312  0.1989
 8637TIP3    H247327   3.788   3.340  13.836 -0.9329 -1.4688 -1.7624
 8638TIP3   OH247328   1.572   0.455   1.515  0.5091 -1.0041  0.3928
 8638TIP3    H147329   1.503   0.407   1.469  0.9189 -0.0398 -1.2581
 8638TIP3    H247330   1.653   0.431   1.470  1.1496 -1.3439  1.6861
 8639TIP3   OH247331   5.343   3.862  10.973 -0.7414 -0.2090 -0.2091
 8639TIP3    H147332   5.315   3.771  10.972 -1.6716  0.0353  1.6528
 8639TIP3    H247333   5.277   3.908  10.921 -1.6719 -0.2252  0.9423
 8640TIP3   OH247334   2.047   4.943  14.575  0.2641 -0.0883 -0.5976
 8640TIP3    H147335   2.036   4.874  14.641 -0.6989 -1.9432 -2.6436
 8640TIP3    H247336   2.047   5.024  14.626  0.0048 -1.4922  1.7339
 8641TIP3   OH247337   3.558   3.533  12.507 -0.4662 -0.0316  0.1525
 8641TIP3    H147338   3.640   3.484  12.515 -1.2814 -1.8443 -1.9342
 8641TIP3    H247339   3.490   3.467  12.516 -1.6182  0.9072 -1.4233
 8642TIP3   OH247340   1.662   0.274  14.547 -0.5364  0.2848  0.0547
 8642TIP3    H147341   1.614   0.337  14.493  0.4576 -0.0364 -1.2236
 8642TIP3    H247342   1.652   0.191  14.501  1.0396  0.1742 -0.1278
 8643TIP3   OH247343   6.149   5.985   1.511 -0.0107 -0.3743  0.2146
 8643TIP3    H147344   6.174   6.026   1.429 -2.1532 -2.1168 -1.3487
 8643TIP3    H247345   6.216   5.917   1.524 -0.4965 -1.0708 -0.8598
 8644TIP3   OH247346   6.661   1.765  12.626  0.1247  0.3567 -0.1000
 8644TIP3    H147347   6.734   1.774  12.566  1.3529 -1.3926  1.0684
 8644TIP3    H247348   6.676   1.831  12.693 -0.7317  1.6635 -1.1681
 8645TIP3   OH247349   5.108   4.509  14.008  0.1446  0.8977 -0.0651
 8645TIP3    H147350   5.099   4.527  14.102  1.5321  0.1503  0.2232
 8645TIP3    H247351   5.202   4.502  13.993 -0.0569  1.1156 -1.5396
 8646TIP3   OH247352   5.277   5.936  14.271  0.2109  0.4097  0.0830
 8646TIP3    H147353   5.254   6.002  14.205 -0.5597  0.8401  0.7720
 8646TIP3    H247354   5.289   5.856  14.220  1.6342  1.1763 -0.8123
 8647TIP3   OH247355   6.242   2.131  15.498 -0.1592  0.0849 -0.4318
 8647TIP3    H147356   6.243   2.097  15.588  0.0381  0.0160 -0.4573
 8647TIP3    H247357   6.221   2.054  15.445 -1.1500  0.3143 -0.3719
 8648TIP3   OH247358   6.603   1.227  12.299 -0.0361  0.1470  0.0219
 8648TIP3    H147359   6.678   1.173  12.275  0.7494  0.6597  1.2489
 8648TIP3    H247360   6.552   1.235  12.219  0.7978 -0.8891 -0.6178
 8649TIP3   OH247361   5.363   6.187  13.778  0.4529  0.5694 -0.1456
 8649TIP3    H147362   5.455   6.209  13.787  1.2465 -2.4837 -0.1472
 8649TIP3    H247363   5.334   6.235  13.701  2.9072 -0.9324 -2.0778
 8650TIP3   OH247364   0.298   5.451   5.629  0.0472  0.1638  0.9632
 8650TIP3    H147365   0.290   5.526   5.689 -0.5427 -0.1504  1.2866
 8650TIP3    H247366   0.311   5.491   5.543 -1.2164  0.6758  0.9903
 8651TIP3   OH247367   2.574   1.056  11.810 -0.5824  0.0437  0.4171
 8651TIP3    H147368   2.490   1.100  11.796 -0.0625 -0.0374 -3.2412
 8651TIP3    H247369   2.568   0.976  11.758  0.7696 -1.2950  2.2591
 8652TIP3   OH247370   2.946   1.317  14.571 -0.0555  0.6048  0.0410
 8652TIP3    H147371   3.002   1.395  14.575  0.4581  0.2388  0.1439
 8652TIP3    H247372   2.919   1.303  14.662 -1.4047  1.5530 -0.2035
 8653TIP3   OH247373   0.895   2.297   3.816 -0.0855 -0.2538 -0.2759
 8653TIP3    H147374   0.931   2.339   3.738 -0.2452  0.3179 -0.0493
 8653TIP3    H247375   0.903   2.364   3.885 -2.1475  0.1356 -0.3666
 8654TIP3   OH247376   4.106   4.704  16.332  0.1515 -0.1682  0.3581
 8654TIP3    H147377   4.100   4.666  16.419 -0.8387  0.0353  0.3821
 8654TIP3    H247378   4.115   4.798  16.347  0.1382 -0.1479  0.2462
 8655TIP3   OH247379   0.478   2.624  16.261 -0.0863  0.3175  0.6049
 8655TIP3    H147380   0.552   2.606  16.320 -0.5435  2.2342  1.7956
 8655TIP3    H247381   0.519   2.661  16.183  0.6868 -3.8995 -1.1012
 8656TIP3   OH247382   5.839   6.381   2.960  0.0529 -0.5907 -0.4020
 8656TIP3    H147383   5.824   6.422   3.045 -3.0653 -1.7959 -0.2703
 8656TIP3    H247384   5.823   6.450   2.896 -0.1606 -0.3256 -0.0631
 8657TIP3   OH247385   0.634   2.773   4.456  0.6686 -0.8170  0.8058
 8657TIP3    H147386   0.668   2.738   4.374  0.2884 -1.0187  0.7318
 8657TIP3    H247387   0.621   2.697   4.512  0.1209 -0.7709  0.7491
 8658TIP3   OH247388   2.135   5.609  13.438 -0.2320  0.2659 -0.1268
 8658TIP3    H147389   2.136   5.607  13.534  0.4303  1.8460 -0.0840
 8658TIP3    H247390   2.047   5.580  13.414 -0.7306  0.8302  0.9892
 8659TIP3   OH247391   0.303   0.401   0.623  0.0473 -0.4403  0.1524
 8659TIP3    H147392   0.280   0.326   0.569 -0.4373  0.3051 -0.6805
 8659TIP3    H247393   0.244   0.396   0.698 -1.1433  0.0613 -0.7433
 8660TIP3   OH247394   1.891   1.563  14.543 -0.0776  0.5922  0.4945
 8660TIP3    H147395   1.895   1.604  14.629 -0.5908  0.6532  0.4959
 8660TIP3    H247396   1.856   1.632  14.486  1.9396  1.1162 -0.1301
 8661TIP3   OH247397   6.481   5.723  16.015  0.1834 -0.8293  0.0635
 8661TIP3    H147398   6.571   5.741  15.990  0.1692 -0.2039  0.4489
 8661TIP3    H247399   6.431   5.734  15.934  0.3664 -0.5216 -0.0108
 8662TIP3   OH247400   6.785   0.519   1.111 -0.3347 -0.4912  0.1562
 8662TIP3    H147401   6.708   0.484   1.066  0.7567 -1.1876 -1.2221
 8662TIP3    H247402   6.852   0.524   1.043  1.1496 -0.8989  1.5504
 8663TIP3   OH247403   5.621   2.890  17.225  0.1011 -0.0692 -0.6244
 8663TIP3    H147404   5.532   2.875  17.193 -0.8505 -1.2497  2.3903
 8663TIP3    H247405   5.609   2.927  17.313  2.5865  1.3701 -0.8413
 8664TIP3   OH247406   0.662   2.034  14.477  0.8090 -0.5808 -0.5017
 8664TIP3    H147407   0.578   1.989  14.469 -0.0010  0.7994  0.1639
 8664TIP3    H247408   0.695   2.040  14.387  0.6331 -1.9206 -0.6678
 8665TIP3   OH247409   5.993   2.971  15.118  0.6771 -0.5183 -0.8651
 8665TIP3    H147410   5.962   2.934  15.200  0.5074  0.6182 -0.4070
 8665TIP3    H247411   6.076   2.927  15.101  0.4182 -1.1864 -0.3964
 8666TIP3   OH247412   2.558   5.353  14.025 -0.0594 -0.0607 -0.4217
 8666TIP3    H147413   2.493   5.286  14.045  1.2582 -1.1601  0.2647
 8666TIP3    H247414   2.641   5.315  14.054  0.9242  1.2064 -1.5353
 8667TIP3   OH247415   4.321   3.785   2.364 -0.2781 -0.3843  0.2675
 8667TIP3    H147416   4.346   3.787   2.271 -0.9367 -1.1807  0.0678
 8667TIP3    H247417   4.265   3.708   2.371 -1.1001  0.3009  1.1119
 8668TIP3   OH247418   4.574   3.517  12.727 -0.2316  0.1942 -0.4801
 8668TIP3    H147419   4.486   3.480  12.736 -0.8405  1.9544  0.9265
 8668TIP3    H247420   4.585   3.573  12.804  2.1910 -0.1300 -0.5424
 8669TIP3   OH247421   3.939   4.037  15.421  0.2440  0.4409  0.0424
 8669TIP3    H147422   3.965   3.973  15.354  1.0645  0.2968  0.4917
 8669TIP3    H247423   3.864   3.996  15.465 -0.9314  0.9743 -1.4379
 8670TIP3   OH247424   0.587   5.007   4.542 -0.1840 -0.0057 -0.1155
 8670TIP3    H147425   0.682   5.002   4.550 -0.2651 -2.1385 -0.0635
 8670TIP3    H247426   0.554   4.967   4.623 -1.1491  1.8804  0.4601
 8671TIP3   OH247427   4.880   1.869  10.923 -0.3989  0.2171 -0.1878
 8671TIP3    H147428   4.870   1.774  10.919  1.9417 -0.0021 -1.5024
 8671TIP3    H247429   4.910   1.887  11.012  2.1622 -0.6323 -0.8323
 8672TIP3   OH247430   4.179   4.722  17.237  0.3449  0.0598  0.1357
 8672TIP3    H147431   4.268   4.751  17.218 -0.3048  1.9021 -0.1934
 8672TIP3    H247432   4.174   4.634  17.199  1.2587  0.9118 -2.0672
 8673TIP3   OH247433   1.108   3.847  11.726 -0.4383  0.5363  0.2812
 8673TIP3    H147434   1.058   3.798  11.661 -0.4284  0.6497  0.1860
 8673TIP3    H247435   1.059   3.836  11.808  0.1574 -0.5420  0.5062
 8674TIP3   OH247436   5.783   1.293  13.390 -0.3662 -0.0227  0.6238
 8674TIP3    H147437   5.860   1.349  13.386 -1.7923  1.9215 -0.2178
 8674TIP3    H247438   5.778   1.252  13.303  0.4038 -1.1430  1.0858
 8675TIP3   OH247439   4.090   6.544  11.090 -0.1207 -0.3115 -0.1851
 8675TIP3    H147440   4.164   6.563  11.031 -1.0576 -0.5064 -1.4274
 8675TIP3    H247441   4.019   6.517  11.033 -0.6800 -1.7179  1.1410
 8676TIP3   OH247442   3.363   4.523   6.550  0.0560  0.2793 -0.0899
 8676TIP3    H147443   3.269   4.524   6.568  0.3736 -1.5871  1.8812
 8676TIP3    H247444   3.387   4.430   6.554  1.7296  0.5881 -2.0502
 8677TIP3   OH247445   2.633   2.803   0.829  0.4916 -0.2682 -0.0887
 8677TIP3    H147446   2.654   2.887   0.871  0.3710  0.8729 -2.2091
 8677TIP3    H247447   2.578   2.757   0.892  1.1300  0.9727  1.3921
 8678TIP3   OH247448   0.961   4.482  16.734 -0.8834 -0.0453  0.1648
 8678TIP3    H147449   0.938   4.559  16.682 -2.7526 -0.4612  0.3335
 8678TIP3    H247450   0.901   4.485  16.809 -1.0777 -1.7457  0.0940
 8679TIP3   OH247451   2.079   4.780  13.086  0.5071  0.4893  0.1083
 8679TIP3    H147452   2.097   4.873  13.100 -1.1599  1.1568 -1.8630
 8679TIP3    H247453   2.128   4.758  13.007 -1.4566  0.4989 -1.1538
 8680TIP3   OH247454   1.371   0.101  13.001  0.1211  0.2111 -0.3060
 8680TIP3    H147455   1.307   0.169  12.979 -0.7955 -0.9245 -1.2242
 8680TIP3    H247456   1.428   0.142  13.066 -1.9219  1.0493  1.0304
 8681TIP3   OH247457   0.297   5.334   6.003 -0.1541  0.0122 -0.5886
 8681TIP3    H147458   0.318   5.283   6.081  1.5111 -0.3864 -1.2857
 8681TIP3    H247459   0.353   5.298   5.934  0.5293  2.2669 -1.2764
 8682TIP3   OH247460   0.888   4.912  14.531 -0.5941 -0.5813  0.4148
 8682TIP3    H147461   0.794   4.931  14.530 -0.5044 -0.1352  0.2703
 8682TIP3    H247462   0.927   4.983  14.480 -0.1041 -0.3663  1.0935
 8683TIP3   OH247463   2.935   4.979  12.083  0.0650 -0.1956  0.7432
 8683TIP3    H147464   2.859   4.934  12.048 -0.7261  2.7637 -1.4731
 8683TIP3    H247465   3.006   4.914  12.078 -1.4673 -1.8121 -0.4735
 8684TIP3   OH247466   0.479   4.183  13.964  0.6349 -0.6017  0.4110
 8684TIP3    H147467   0.415   4.167  13.896 -1.4623 -0.6532  2.3449
 8684TIP3    H247468   0.513   4.271  13.945  1.4293 -1.3617 -1.7316
 8685TIP3   OH247469   6.765   0.096   4.911  0.9014 -0.2346 -0.3167
 8685TIP3    H147470   6.751   0.184   4.875 -0.0713 -0.1985  0.1338
 8685TIP3    H247471   6.814   0.111   4.992  0.3007 -0.0673  0.0172
 8686TIP3   OH247472   4.075   3.912  12.036  0.5551  0.7760  0.4641
 8686TIP3    H147473   4.134   3.953  12.100  0.9544  0.9154  0.0120
 8686TIP3    H247474   3.988   3.946  12.058  0.8612  1.7815  0.1819
 8687TIP3   OH247475   3.303   5.934   0.217 -0.3294 -0.5891  0.5996
 8687TIP3    H147476   3.327   5.986   0.140  0.2451 -0.5879  0.7750
 8687TIP3    H247477   3.208   5.932   0.217 -0.3317 -0.4382 -0.0160
 8688TIP3   OH247478   5.911   4.400   3.334 -0.2298  0.0415  0.0675
 8688TIP3    H147479   5.991   4.452   3.341  1.3430 -2.1285 -1.3278
 8688TIP3    H247480   5.847   4.447   3.389  1.4041  2.8487 -0.3324
 8689TIP3   OH247481   2.051   4.364  14.329 -0.0539  0.6550 -0.2621
 8689TIP3    H147482   2.118   4.315  14.280  0.1927 -0.4722  1.1773
 8689TIP3    H247483   2.100   4.411  14.396 -0.5298  1.2197 -0.3056
 8690TIP3   OH247484   2.791   3.593   1.266 -0.3592 -0.2270 -0.4646
 8690TIP3    H147485   2.735   3.655   1.313  0.1638 -0.3975  0.3884
 8690TIP3    H247486   2.831   3.645   1.196  0.7211  0.5862  0.7526
 8691TIP3   OH247487   3.250   3.680   1.167 -0.1049 -0.7692  0.0372
 8691TIP3    H147488   3.279   3.648   1.252 -0.0928 -0.5076  0.1341
 8691TIP3    H247489   3.330   3.698   1.118 -0.0267  2.4114  1.2348
 8692TIP3   OH247490   4.957   5.795   4.039  0.5300 -0.4438 -0.3938
 8692TIP3    H147491   4.932   5.878   4.079  0.1923 -1.2633  1.1191
 8692TIP3    H247492   4.874   5.748   4.028  0.4759  0.1612 -3.0222
 8693TIP3   OH247493   6.210   6.742   4.210  0.5690  0.4735  0.7357
 8693TIP3    H147494   6.202   6.672   4.275  0.8298 -0.1473  0.1169
 8693TIP3    H247495   6.302   6.769   4.215  0.9129 -0.4591 -0.2464
 8694TIP3   OH247496   4.454   1.505   2.899 -0.4393  0.9106  0.0616
 8694TIP3    H147497   4.470   1.412   2.883 -2.3296  0.3436  1.3389
 8694TIP3    H247498   4.438   1.512   2.993  1.9581  2.8964  0.3790
 8695TIP3   OH247499   1.839   5.906   0.749  0.2666 -0.3541 -0.1613
 8695TIP3    H147500   1.799   5.823   0.778 -0.2466 -0.3151 -0.7525
 8695TIP3    H247501   1.767   5.955   0.711  0.6894  0.1293 -0.3384
 8696TIP3   OH247502   2.717   4.070   4.947  0.6306 -0.5071 -0.0087
 8696TIP3    H147503   2.686   4.147   4.899 -1.3015 -0.5426  1.1521
 8696TIP3    H247504   2.639   4.015   4.956  1.2688 -1.1006  2.0272
 8697TIP3   OH247505   4.925   3.583   5.646 -0.1473 -0.5892 -0.1345
 8697TIP3    H147506   4.841   3.628   5.630 -1.2126 -2.5154 -0.0809
 8697TIP3    H247507   4.926   3.511   5.583  0.6052 -1.6960  1.1168
 8698TIP3   OH247508   1.557   4.607   2.137 -0.4071 -0.3133  0.2186
 8698TIP3    H147509   1.527   4.657   2.212 -0.9354  1.5606 -1.2120
 8698TIP3    H247510   1.651   4.626   2.132 -0.2699 -0.8404  0.6812
 8699TIP3   OH247511   2.421   6.261  14.035  0.2961  0.1032 -0.4463
 8699TIP3    H147512   2.498   6.257  13.979  0.5498 -0.9211 -0.0340
 8699TIP3    H247513   2.347   6.250  13.976  0.5118  0.0958 -0.7146
 8700TIP3   OH247514   2.680   0.155  11.109  0.7797 -0.3891  0.1801
 8700TIP3    H147515   2.658   0.124  11.021 -0.2143  0.3048  0.1761
 8700TIP3    H247516   2.739   0.229  11.096 -1.6662  1.5893 -0.0259
 8701TIP3   OH247517   4.834   2.557  15.903  0.0599  0.9289  0.6008
 8701TIP3    H147518   4.785   2.478  15.925 -0.8872  1.3846  0.1426
 8701TIP3    H247519   4.795   2.588  15.821 -0.4786  2.6152  1.4703
 8702TIP3   OH247520   2.327   1.192  15.944 -0.0649 -0.4331 -0.1362
 8702TIP3    H147521   2.241   1.166  15.976 -0.3220 -0.1372 -0.5714
 8702TIP3    H247522   2.308   1.258  15.876  0.5376  0.3822  0.4796
 8703TIP3   OH247523   0.825   3.503  15.887  0.3152 -0.5591 -1.0129
 8703TIP3    H147524   0.756   3.490  15.822  0.9665 -0.2773 -1.7714
 8703TIP3    H247525   0.898   3.449  15.855  0.1155 -1.6288  0.2987
 8704TIP3   OH247526   0.974   0.637   2.880  0.9553 -0.1776  0.2556
 8704TIP3    H147527   0.991   0.730   2.865 -2.8917  0.3842 -1.1983
 8704TIP3    H247528   1.019   0.592   2.808 -1.7071  1.0919 -2.3328
 8705TIP3   OH247529   1.641   6.420  12.723  0.4980 -0.1788  0.3432
 8705TIP3    H147530   1.602   6.437  12.809  1.0004  1.1151  0.3342
 8705TIP3    H247531   1.735   6.411  12.740  0.8045  1.6477 -0.2458
 8706TIP3   OH247532   5.403   2.808  13.573 -0.3308  0.4816  0.2949
 8706TIP3    H147533   5.420   2.730  13.626  1.2844 -0.2320 -1.2344
 8706TIP3    H247534   5.403   2.880  13.636  5.2915  0.1550  0.9034
 8707TIP3   OH247535   5.669   4.095  14.034  0.1546 -0.2918  0.7981
 8707TIP3    H147536   5.625   4.180  14.023  0.0958 -0.3030  0.9447
 8707TIP3    H247537   5.762   4.115  14.026  0.1946 -0.0603  1.7550
 8708TIP3   OH247538   5.802   6.549  17.029 -0.1201  0.2909  0.3561
 8708TIP3    H147539   5.884   6.506  17.053  1.0390  1.9875 -0.4930
 8708TIP3    H247540   5.807   6.561  16.934 -1.5507  0.0128  0.2321
 8709TIP3   OH247541   2.753   2.601   3.258 -0.6176 -0.1789  0.3954
 8709TIP3    H147542   2.820   2.639   3.201  0.3580 -1.0912  0.9023
 8709TIP3    H247543   2.689   2.671   3.271  1.0097  1.2028  1.0987
 8710TIP3   OH247544   0.462   5.123  11.060 -0.1027 -0.3841 -0.1559
 8710TIP3    H147545   0.388   5.168  11.101 -0.4274 -0.5911 -0.5064
 8710TIP3    H247546   0.472   5.166  10.975 -0.1083 -0.6543 -0.2929
 8711TIP3   OH247547   2.679   2.808  14.488  0.2642 -0.2764  0.1807
 8711TIP3    H147548   2.720   2.895  14.491  2.4180 -1.2336 -0.1817
 8711TIP3    H247549   2.696   2.777  14.399  1.0392 -1.7770  0.8423
 8712TIP3   OH247550   6.754   0.827  12.678  0.0167 -0.4238  0.0039
 8712TIP3    H147551   6.685   0.761  12.674 -1.3841  0.9596  0.9410
 8712TIP3    H247552   6.818   0.791  12.739 -1.5022 -0.2330  1.7390
 8713TIP3   OH247553   3.049   3.741   1.849 -0.2767 -0.4020 -0.3747
 8713TIP3    H147554   3.042   3.833   1.826 -2.2442 -0.7137 -1.0901
 8713TIP3    H247555   3.141   3.720   1.835  0.7192  1.9911  1.9657
 8714TIP3   OH247556   3.769   5.448   4.975  0.7686 -0.4063  0.3775
 8714TIP3    H147557   3.701   5.494   5.023  0.3643 -0.9745  0.3417
 8714TIP3    H247558   3.727   5.369   4.941  0.6668  0.6395 -2.0673
 8715TIP3   OH247559   5.938   5.535   6.615  0.5170  0.2502  0.3741
 8715TIP3    H147560   5.996   5.611   6.604  0.1616  0.1471 -2.5021
 8715TIP3    H247561   5.864   5.569   6.666  2.0939  0.8792  2.3156
 8716TIP3   OH247562   0.958   0.212   2.363  0.3609 -0.3830 -0.1279
 8716TIP3    H147563   1.045   0.224   2.326  0.3542  0.0616 -0.0002
 8716TIP3    H247564   0.969   0.143   2.428  0.7984  0.2923  0.5128
 8717TIP3   OH247565   0.570   4.722  13.356  0.1806 -0.3640 -0.8542
 8717TIP3    H147566   0.521   4.803  13.368  0.5602 -0.3305  0.5636
 8717TIP3    H247567   0.587   4.691  13.445  4.1156  0.4784 -1.2441
 8718TIP3   OH247568   1.045   5.266   4.650 -0.2503 -0.3395 -0.2085
 8718TIP3    H147569   1.045   5.216   4.569  1.4399 -0.7318  0.0087
 8718TIP3    H247570   0.955   5.261   4.682 -1.2823  0.9672 -2.7328
 8719TIP3   OH247571   1.744   1.730   1.533  0.5403 -0.6292  0.0972
 8719TIP3    H147572   1.670   1.780   1.497  0.8784 -0.9784 -1.0902
 8719TIP3    H247573   1.786   1.792   1.593 -0.7486 -0.4487  0.8381
 8720TIP3   OH247574   2.760   4.881   0.415 -0.2459  0.2376 -0.1381
 8720TIP3    H147575   2.831   4.823   0.443  0.9492  1.5821 -0.3444
 8720TIP3    H247576   2.768   4.958   0.471 -0.2995  1.2523 -1.4952
 8721TIP3   OH247577   0.331   4.596   3.482  0.5426 -0.7509  1.0654
 8721TIP3    H147578   0.349   4.509   3.446 -1.3412 -1.6535  2.2673
 8721TIP3    H247579   0.320   4.582   3.576 -0.0302  0.7466  1.2364
 8722TIP3   OH247580   3.685   4.613  12.642 -0.4131  0.3011 -0.0403
 8722TIP3    H147581   3.681   4.581  12.732 -1.0827 -0.6045 -0.3829
 8722TIP3    H247582   3.723   4.701  12.649  1.4520 -0.5613  0.9155
 8723TIP3   OH247583   1.294   3.089   6.854  0.0464 -0.3687 -0.4065
 8723TIP3    H147584   1.234   3.157   6.885  1.3165  0.1730  0.9092
 8723TIP3    H247585   1.381   3.129   6.858  0.5935 -1.3936 -1.5749
 8724TIP3   OH247586   1.762   3.821   3.699 -0.2179 -0.9252 -0.3643
 8724TIP3    H147587   1.808   3.748   3.739  1.7143 -0.1473 -1.1309
 8724TIP3    H247588   1.785   3.818   3.607 -1.2670 -0.1986 -0.6677
 8725TIP3   OH247589   1.081   2.623   2.056 -0.1019  0.1067  0.0583
 8725TIP3    H147590   1.144   2.561   2.093 -1.0609 -0.4745  0.7384
 8725TIP3    H247591   1.095   2.704   2.105 -0.3820 -0.2381  0.7126
 8726TIP3   OH247592   0.435   4.213  11.996  0.0824  0.2924 -0.2023
 8726TIP3    H147593   0.473   4.237  12.080 -0.7983 -1.2236  0.6377
 8726TIP3    H247594   0.491   4.257  11.931  1.4888  0.4784  1.1184
 8727TIP3   OH247595   1.981   4.574   3.862 -0.3452  0.4339  0.4755
 8727TIP3    H147596   2.039   4.504   3.830  0.3554  0.2130  2.2050
 8727TIP3    H247597   2.018   4.654   3.825 -1.3013 -0.0938 -1.7386
 8728TIP3   OH247598   1.326   5.635   1.191  0.1251  0.3831 -0.0123
 8728TIP3    H147599   1.414   5.652   1.159  0.4138  0.9397  1.0555
 8728TIP3    H247600   1.305   5.711   1.245 -0.8867  0.1001  0.0064
 8729TIP3   OH247601   1.024   0.081  15.678  0.5899  0.5341 -0.2666
 8729TIP3    H147602   1.040   0.005  15.734 -1.4474 -0.7189 -1.2913
 8729TIP3    H247603   0.939   0.114  15.707 -0.3609  0.0459 -2.3499
 8730TIP3   OH247604   5.834   0.720   1.549  0.3032 -0.7585  0.4854
 8730TIP3    H147605   5.852   0.813   1.557  0.6524 -0.9819  2.5173
 8730TIP3    H247606   5.749   0.715   1.506 -0.2926  0.5358  1.4845
 8731TIP3   OH247607   2.878   5.924   6.331  0.2220  0.3535 -0.0273
 8731TIP3    H147608   2.807   5.987   6.341 -0.7136 -0.3932 -1.7848
 8731TIP3    H247609   2.899   5.897   6.421 -1.4185  0.9037  0.5395
 8732TIP3   OH247610   2.512   6.275   2.266 -0.0944  0.1079 -0.2084
 8732TIP3    H147611   2.435   6.302   2.316  1.0745  0.8284  1.2491
 8732TIP3    H247612   2.511   6.333   2.189 -0.1705  1.1831  0.5812
 8733TIP3   OH247613   3.278   3.469  17.023 -0.0629 -0.3356  0.0452
 8733TIP3    H147614   3.279   3.460  17.118  1.1716  0.5232  0.1231
 8733TIP3    H247615   3.369   3.459  16.996 -0.4496 -0.9480 -1.0885
 8734TIP3   OH247616   2.784   3.761   1.823 -0.0179  0.5565 -0.4621
 8734TIP3    H147617   2.879   3.762   1.836 -0.2440 -1.0334  1.5348
 8734TIP3    H247618   2.770   3.701   1.750  0.2667 -2.4443  1.8883
 8735TIP3   OH247619   2.262   0.657  13.644 -0.6741 -0.0781  0.0321
 8735TIP3    H147620   2.260   0.749  13.617  1.4474 -0.4779 -1.5872
 8735TIP3    H247621   2.216   0.610  13.574  1.3022 -0.6442 -0.9128
 8736TIP3   OH247622   0.180   0.865   2.158 -0.1748 -0.3287  0.1959
 8736TIP3    H147623   0.137   0.782   2.142  0.3314 -0.5181 -0.2005
 8736TIP3    H247624   0.255   0.865   2.098  1.1422 -0.5959  1.8061
 8737TIP3   OH247625   2.033   1.682   1.999  0.0696  0.4341  0.0630
 8737TIP3    H147626   2.051   1.588   2.010  0.3200  0.4479 -0.2021
 8737TIP3    H247627   2.120   1.722   1.992 -0.0246  0.7543  0.7044
 8738TIP3   OH247628   0.533   6.509   0.002 -0.0224  0.5571 -0.5640
 8738TIP3    H147629   0.484   6.541  -0.074  1.2500  0.4391 -1.4537
 8738TIP3    H247630   0.617   6.481  -0.034  0.3181 -0.2030  0.7859
 8739TIP3   OH247631   2.178   4.424   1.812 -0.4664  0.4834 -0.0221
 8739TIP3    H147632   2.089   4.419   1.846 -0.8590 -0.5076 -1.1673
 8739TIP3    H247633   2.168   4.450   1.720  0.3082 -1.1730 -0.6047
 8740TIP3   OH247634   0.485   0.856   4.419 -0.0929 -0.5019 -0.2491
 8740TIP3    H147635   0.567   0.822   4.384 -0.1446 -0.3999 -0.4762
 8740TIP3    H247636   0.429   0.779   4.428 -0.0567 -0.5385 -0.3334
 8741TIP3   OH247637   6.345   4.734   5.884 -0.0332 -0.5131 -0.1704
 8741TIP3    H147638   6.310   4.735   5.973  0.3788 -1.8458  0.0139
 8741TIP3    H247639   6.404   4.659   5.882 -0.9152 -1.2006 -1.8946
 8742TIP3   OH247640   6.111   2.278  17.002 -0.5220 -0.4483 -0.0973
 8742TIP3    H147641   6.063   2.314  16.928 -2.1101 -0.9441  0.6664
 8742TIP3    H247642   6.120   2.352  17.063  0.3365 -0.1710 -0.5566
 8743TIP3   OH247643   5.610   5.332   5.369  0.4724  0.0406  0.5337
 8743TIP3    H147644   5.612   5.397   5.438  0.5140 -0.6815  1.2185
 8743TIP3    H247645   5.669   5.365   5.302  1.8456 -0.1436  1.6467
 8744TIP3   OH247646   3.850   3.927   1.379  0.5113 -0.6153 -0.5869
 8744TIP3    H147647   3.940   3.943   1.350  0.6394 -1.5031 -0.6975
 8744TIP3    H247648   3.857   3.924   1.475  0.3518  0.7325 -0.5186
 8745TIP3   OH247649   5.016   6.401  13.559 -0.7287 -0.0693 -0.2034
 8745TIP3    H147650   5.027   6.405  13.464  0.9621 -1.3848 -0.0922
 8745TIP3    H247651   4.990   6.490  13.584  3.3014  1.5684 -1.3947
 8746TIP3   OH247652   2.709   4.099  16.511 -0.3280 -0.0457  0.4129
 8746TIP3    H147653   2.703   4.060  16.423  1.2033  0.6463 -0.0114
 8746TIP3    H247654   2.777   4.048  16.555  0.3615  0.9449  0.4977
 8747TIP3   OH247655   5.197   2.519  13.132  0.2571  0.3985 -0.7081
 8747TIP3    H147656   5.243   2.440  13.104 -0.1442  0.1169 -0.5706
 8747TIP3    H247657   5.206   2.520  13.227  1.2926  1.1539 -0.8084
 8748TIP3   OH247658   3.757   0.018   2.629  0.1916  0.1986 -0.0988
 8748TIP3    H147659   3.798   0.005   2.543 -1.6799  0.1580 -0.9950
 8748TIP3    H247660   3.778   0.108   2.653  0.8092  0.1731 -0.5297
 8749TIP3   OH247661   1.796   4.240   4.653  0.5474 -0.9532  0.1893
 8749TIP3    H147662   1.713   4.192   4.650  0.5230 -0.8577 -0.7081
 8749TIP3    H247663   1.852   4.187   4.710  0.0223 -1.2677  0.4089
 8750TIP3   OH247664   5.928   2.692  16.443 -0.5715  0.5549 -0.5033
 8750TIP3    H147665   5.934   2.652  16.356  2.5105  0.0764 -0.1213
 8750TIP3    H247666   5.925   2.617  16.503  1.4086  0.8396  0.0000
 8751TIP3   OH247667   1.685   2.860   0.663  0.0532 -0.2784 -0.3410
 8751TIP3    H147668   1.701   2.790   0.600  0.3817 -1.3815  0.9410
 8751TIP3    H247669   1.592   2.880   0.655  0.5091  1.0654 -2.6566
 8752TIP3   OH247670   3.524   3.608   2.267 -0.2464  0.1475 -0.2012
 8752TIP3    H147671   3.562   3.533   2.221 -0.3914  0.0399 -0.1476
 8752TIP3    H247672   3.585   3.625   2.339  0.5880  1.0596 -1.1263
 8753TIP3   OH247673   2.198   2.962   2.160 -0.0927 -0.9879 -0.2273
 8753TIP3    H147674   2.259   2.989   2.090  0.4579 -2.2799 -0.2588
 8753TIP3    H247675   2.235   3.001   2.239 -0.2100 -0.2883 -0.5082
 8754TIP3   OH247676   0.018   6.731  14.383 -0.1075 -0.5651  0.5002
 8754TIP3    H147677   0.034   6.823  14.365 -2.6756  0.0457  1.1506
 8754TIP3    H247678   0.094   6.686  14.346  0.4377  1.6633 -1.2139
 8755TIP3   OH247679   5.306   1.293  12.816 -0.7214  0.3523 -0.0252
 8755TIP3    H147680   5.246   1.366  12.798 -1.1863 -0.2607 -0.9851
 8755TIP3    H247681   5.379   1.333  12.863 -1.6463  1.1932  0.7063
 8756TIP3   OH247682   4.820   2.874  17.143  0.0221  0.0803  0.0363
 8756TIP3    H147683   4.735   2.834  17.162  1.4311 -3.3897 -0.4830
 8756TIP3    H247684   4.812   2.907  17.054 -0.1522 -2.2114 -0.8336
 8757TIP3   OH247685   4.095   5.714   5.881  0.5866  0.1379 -0.1807
 8757TIP3    H147686   4.138   5.669   5.808  0.0497  0.9995 -1.0483
 8757TIP3    H247687   4.166   5.754   5.930  0.9364 -0.2287 -0.3894
 8758TIP3   OH247688   2.867   0.680  14.988 -0.3920  0.3007  0.1994
 8758TIP3    H147689   2.958   0.708  15.000 -1.0694  1.9382  1.7800
 8758TIP3    H247690   2.861   0.597  15.035  0.5453 -0.3293 -0.7915
 8759TIP3   OH247691   6.631   6.386  10.681  0.7110  0.1483  0.3248
 8759TIP3    H147692   6.571   6.358  10.751 -1.1168 -1.5042 -1.8438
 8759TIP3    H247693   6.642   6.480  10.695 -1.3410  0.2244  1.5600
 8760TIP3   OH247694   4.208   6.184   5.937 -0.5819  0.4003 -0.0445
 8760TIP3    H147695   4.275   6.252   5.938 -1.3170  1.1380 -0.7559
 8760TIP3    H247696   4.251   6.110   5.893  0.3651  0.2335  1.1427
 8761TIP3   OH247697   4.289   5.536   3.860  0.0110  0.2215  0.3005
 8761TIP3    H147698   4.274   5.466   3.922  1.8523  0.4605  1.0446
 8761TIP3    H247699   4.382   5.555   3.866  0.1618  0.5337 -2.2316
 8762TIP3   OH247700   4.264   5.025   2.988 -0.1319 -0.5854 -0.3095
 8762TIP3    H147701   4.354   5.027   2.956  0.0975  2.7395  0.3540
 8762TIP3    H247702   4.225   5.105   2.954 -2.4579 -1.3374  0.5133
 8763TIP3   OH247703   3.405   1.108  15.083 -0.1231 -0.3012  0.1429
 8763TIP3    H147704   3.329   1.111  15.025 -0.9390 -0.2039  1.2051
 8763TIP3    H247705   3.455   1.187  15.061 -0.8682  0.1827  0.1769
 8764TIP3   OH247706   4.401   1.864   4.611  0.1427  0.4673 -0.2961
 8764TIP3    H147707   4.358   1.849   4.527 -0.1540  0.3271 -0.1212
 8764TIP3    H247708   4.371   1.951   4.638 -1.4023 -0.3368  0.6419
 8765TIP3   OH247709   6.373   4.376  13.411  0.5484  0.3800  0.4167
 8765TIP3    H147710   6.310   4.326  13.463 -0.9309  0.2212 -1.4369
 8765TIP3    H247711   6.338   4.465  13.408  0.8463  0.4897  0.0711
 8766TIP3   OH247712   3.660   3.832  14.170  0.5174 -0.0093 -0.1982
 8766TIP3    H147713   3.635   3.748  14.209 -0.4628 -0.2438 -1.3164
 8766TIP3    H247714   3.578   3.876  14.152  1.0016  0.7096 -0.6777
 8767TIP3   OH247715   3.733   5.928  16.634 -0.0563 -0.1182  0.0905
 8767TIP3    H147716   3.777   5.852  16.597 -0.8777 -0.5542 -0.0010
 8767TIP3    H247717   3.799   5.971  16.688  0.1102 -1.4468  0.9419
 8768TIP3   OH247718   6.364   1.503   2.543 -0.0759 -0.2826 -0.4037
 8768TIP3    H147719   6.448   1.525   2.584 -0.1570 -0.4905 -0.1259
 8768TIP3    H247720   6.308   1.475   2.616 -0.1361 -0.9240 -0.6945
 8769TIP3   OH247721   1.407   2.820   6.786  0.1333 -0.0460 -0.1413
 8769TIP3    H147722   1.498   2.795   6.802  1.3635  2.2736 -3.0717
 8769TIP3    H247723   1.398   2.906   6.827 -0.8466 -0.4350  0.4583
 8770TIP3   OH247724   1.566   4.495  12.391  0.0008 -0.1124 -0.0966
 8770TIP3    H147725   1.638   4.555  12.412  0.9824 -1.0573 -0.6974
 8770TIP3    H247726   1.600   4.443  12.319 -0.4719 -2.0426  1.0520
 8771TIP3   OH247727   3.855   3.896   3.358 -0.1204 -0.1031  0.2964
 8771TIP3    H147728   3.848   3.991   3.371  0.9297  0.1063 -0.6065
 8771TIP3    H247729   3.897   3.887   3.273 -0.2897 -1.3920  0.3416
 8772TIP3   OH247730   2.486   0.774  11.291  0.1996 -0.5905  0.0813
 8772TIP3    H147731   2.554   0.748  11.229  0.3647 -2.2426  0.9439
 8772TIP3    H247732   2.412   0.800  11.236  0.7066 -1.0206 -0.8142
 8773TIP3   OH247733   0.202   1.736  11.173  0.0662  0.0515 -0.7163
 8773TIP3    H147734   0.239   1.657  11.212  0.3059  0.1847 -0.6694
 8773TIP3    H247735   0.233   1.735  11.083 -1.8633 -1.1291 -1.4035
 8774TIP3   OH247736   2.284   5.815  14.382  0.3162 -0.3921 -0.6445
 8774TIP3    H147737   2.192   5.832  14.361  0.7377 -0.0880 -2.2933
 8774TIP3    H247738   2.326   5.900  14.379  0.4251 -0.3555  1.3705
 8775TIP3   OH247739   3.607   4.478  16.768 -0.7664  0.2544 -0.4107
 8775TIP3    H147740   3.664   4.534  16.819 -0.5438  0.4466 -0.8661
 8775TIP3    H247741   3.581   4.531  16.693 -2.3976  0.5462  0.3252
 8776TIP3   OH247742   6.386   0.321  11.484 -0.1336  0.0951  0.5421
 8776TIP3    H147743   6.300   0.282  11.467  0.2517  0.1619 -1.7254
 8776TIP3    H247744   6.368   0.413  11.498 -0.5483 -0.0910  1.2674
 8777TIP3   OH247745   0.558   0.031  16.923  0.7926  0.7311 -0.3345
 8777TIP3    H147746   0.464   0.042  16.911  0.5188 -1.0866  0.0520
 8777TIP3    H247747   0.566  -0.044  16.982  2.4317  1.9618  1.0761
 8778TIP3   OH247748   0.376   3.446   1.734  0.2508 -0.2299  0.7290
 8778TIP3    H147749   0.404   3.384   1.667 -0.7278 -0.2045  0.2857
 8778TIP3    H247750   0.414   3.413   1.815  1.8136 -0.0107  0.0966
 8779TIP3   OH247751   6.519   0.881  12.869  0.1292  0.2044  0.0220
 8779TIP3    H147752   6.576   0.957  12.853  0.8848 -0.5957 -1.1152
 8779TIP3    H247753   6.572   0.824  12.925 -1.0063  1.1729  2.1505
 8780TIP3   OH247754   3.732   5.141   0.325  0.2879  0.0621 -0.5274
 8780TIP3    H147755   3.641   5.152   0.297 -0.3022 -1.3771  0.7668
 8780TIP3    H247756   3.768   5.229   0.322 -1.2830  0.7281 -0.5738
 8781TIP3   OH247757   2.477   3.380  11.996  0.1691 -0.0262  0.1957
 8781TIP3    H147758   2.528   3.422  12.065 -0.1292 -0.0076  0.4100
 8781TIP3    H247759   2.428   3.311  12.042 -0.0379 -0.0073  0.0054
 8782TIP3   OH247760   6.609   5.667   0.862  0.6909  0.3625 -0.3592
 8782TIP3    H147761   6.632   5.589   0.913  0.8344  0.4018 -0.3642
 8782TIP3    H247762   6.544   5.635   0.799 -1.3103  0.8162  1.4282
 8783TIP3   OH247763   1.769   2.263   0.051 -0.0381 -0.2748  0.6208
 8783TIP3    H147764   1.693   2.216   0.018  0.3998 -0.9509  0.5578
 8783TIP3    H247765   1.844   2.210   0.023  0.4462  0.3405  0.7487
 8784TIP3   OH247766   1.808   2.688  14.290 -0.1935  0.2245  0.4111
 8784TIP3    H147767   1.722   2.648  14.282 -0.4237  0.9670 -0.9757
 8784TIP3    H247768   1.793   2.767  14.341 -0.1866 -0.0773  0.8838
 8785TIP3   OH247769   6.278   5.826  12.267 -0.1988 -0.4124 -0.0182
 8785TIP3    H147770   6.213   5.838  12.198  2.9787  3.5666 -2.5586
 8785TIP3    H247771   6.247   5.880  12.340 -1.3683 -1.1801  0.0644
 8786TIP3   OH247772   5.340   1.637  16.132 -0.0200  0.5594  0.1271
 8786TIP3    H147773   5.270   1.669  16.188 -0.8778  0.7795 -1.0780
 8786TIP3    H247774   5.302   1.563  16.085  1.0566 -0.3852  0.6778
 8787TIP3   OH247775   2.020   4.888   4.883 -0.5379 -0.7212  0.1240
 8787TIP3    H147776   2.107   4.907   4.848 -0.6052 -0.1680  0.2580
 8787TIP3    H247777   2.035   4.876   4.977 -0.7355  0.1918  0.2726
 8788TIP3   OH247778   6.578   5.493  11.783  0.1171 -0.5943  0.9437
 8788TIP3    H147779   6.632   5.418  11.808  0.8185 -0.7433 -0.9165
 8788TIP3    H247780   6.613   5.521  11.699 -1.6038  0.4104  0.5291
 8789TIP3   OH247781   2.874   5.174   1.263 -0.3410  0.0774 -0.0824
 8789TIP3    H147782   2.802   5.117   1.237 -1.6268  1.6860 -0.1981
 8789TIP3    H247783   2.892   5.150   1.354  0.5890 -1.9424 -0.7769
 8790TIP3   OH247784   5.075   2.063  15.923 -0.4192 -0.0681  0.3718
 8790TIP3    H147785   5.169   2.045  15.924 -0.5750 -0.9809 -0.8484
 8790TIP3    H247786   5.058   2.105  16.007  0.8953 -0.8521  1.0434
 8791TIP3   OH247787   3.434   0.203  14.539 -0.0728 -0.3692 -0.1231
 8791TIP3    H147788   3.380   0.139  14.585  1.4147 -0.3803  1.6808
 8791TIP3    H247789   3.524   0.181  14.564  0.4439  2.6916  0.9007
 8792TIP3   OH247790   2.114   0.738   5.691 -0.1619  0.3968 -0.4710
 8792TIP3    H147791   2.054   0.772   5.757 -1.2825  1.3352 -1.9417
 8792TIP3    H247792   2.116   0.643   5.708 -1.2038  0.4949  0.2964
 8793TIP3   OH247793   5.031   6.424   3.987  0.5060 -0.0831 -0.4501
 8793TIP3    H147794   4.963   6.427   4.054 -1.9050 -0.4707 -2.7719
 8793TIP3    H247795   5.042   6.515   3.959 -0.3865 -0.2197 -1.2979
 8794TIP3   OH247796   3.098   6.377  13.150  0.3923  0.3904  0.3988
 8794TIP3    H147797   3.003   6.368  13.159  0.4189  1.5889  2.1592
 8794TIP3    H247798   3.119   6.461  13.191  2.3702 -0.4771  1.2862
 8795TIP3   OH247799   2.651   6.176   1.410  0.5217 -0.3308  0.6188
 8795TIP3    H147800   2.581   6.148   1.469 -0.0743  1.7185  0.9229
 8795TIP3    H247801   2.650   6.111   1.340 -1.2395 -0.7127  0.9613
 8796TIP3   OH247802   2.090   5.447   5.522  0.2573 -0.1460  0.6098
 8796TIP3    H147803   2.130   5.406   5.445  0.8688  1.7999 -0.1544
 8796TIP3    H247804   2.161   5.454   5.585 -0.3198 -2.0253  1.4966
 8797TIP3   OH247805   5.881   6.609  12.784 -0.1761  0.0817  0.0350
 8797TIP3    H147806   5.973   6.635  12.787 -0.7187  1.9665  0.8497
 8797TIP3    H247807   5.841   6.652  12.859 -1.6944 -0.8902 -0.1908
 8798TIP3   OH247808   3.836   4.116  14.240 -0.0163 -0.2382  0.1244
 8798TIP3    H147809   3.796   4.101  14.326 -1.6598 -0.1292 -0.6119
 8798TIP3    H247810   3.842   4.028  14.202 -2.6174  0.0567 -1.0859
 8799TIP3   OH247811   5.207   0.810  15.917 -0.4128  0.0514 -0.0376
 8799TIP3    H147812   5.188   0.726  15.875  0.6624 -0.8914  1.3169
 8799TIP3    H247813   5.122   0.840  15.951 -0.8194 -0.4061 -0.6402
 8800TIP3   OH247814   5.519   4.870  14.505 -0.6371 -0.3998  0.0759
 8800TIP3    H147815   5.531   4.951  14.455 -3.3119 -0.8304 -1.3759
 8800TIP3    H247816   5.501   4.899  14.594  0.5261  0.5085  0.0327
 8801TIP3   OH247817   4.705   4.166  16.448 -0.1552 -0.1431 -0.1870
 8801TIP3    H147818   4.772   4.145  16.383 -1.8206 -0.6271 -1.7841
 8801TIP3    H247819   4.640   4.217  16.399 -0.0381  1.9898  1.7851
 8802TIP3   OH247820   0.352   4.689  11.590 -0.2813  0.4954 -0.2499
 8802TIP3    H147821   0.393   4.766  11.550 -1.1560  1.2877  0.3475
 8802TIP3    H247822   0.258   4.704  11.580 -0.4636 -1.7772 -2.4911
 8803TIP3   OH247823   3.993   3.434  15.146  1.3041 -0.4860  0.1027
 8803TIP3    H147824   3.902   3.461  15.146  1.0367 -1.3819  0.3816
 8803TIP3    H247825   4.027   3.461  15.060  1.2399  1.3605  0.6363
 8804TIP3   OH247826   2.462   0.729   3.632  0.0309  0.2058  0.7125
 8804TIP3    H147827   2.369   0.712   3.642 -0.0473  0.3744  0.2872
 8804TIP3    H247828   2.467   0.800   3.568  0.4318  0.4724  1.0336
 8805TIP3   OH247829   5.436   1.172  17.147  0.1770  0.2976 -0.0415
 8805TIP3    H147830   5.396   1.155  17.062  0.4891 -0.0189 -0.1274
 8805TIP3    H247831   5.529   1.182  17.129  0.4470 -1.1983  0.4425
 8806TIP3   OH247832   3.680   5.049  13.958  0.4276 -0.6761 -0.1194
 8806TIP3    H147833   3.750   5.024  13.898 -0.4484  0.0770 -1.4589
 8806TIP3    H247834   3.609   4.989  13.939  0.1178 -0.3855  0.1140
 8807TIP3   OH247835   6.690   2.627  14.356  0.2307 -0.0880 -0.0367
 8807TIP3    H147836   6.744   2.569  14.302  0.2565 -0.2109  0.1226
 8807TIP3    H247837   6.603   2.586  14.356  0.5831 -0.8577  1.1974
 8808TIP3   OH247838   0.801   2.003  11.623  0.4193  0.2342 -0.1384
 8808TIP3    H147839   0.847   1.994  11.707  0.0312  0.9375  0.1570
 8808TIP3    H247840   0.868   2.032  11.562  0.5419  0.4671  0.1049
 8809TIP3   OH247841   5.762   0.651  16.631 -0.4070 -0.2302  0.1823
 8809TIP3    H147842   5.799   0.587  16.692 -0.4514 -0.6545 -0.2246
 8809TIP3    H247843   5.709   0.598  16.571  0.0675  0.1146 -0.5467
 8810TIP3   OH247844   6.708   1.742  13.680 -0.7188 -0.4357  0.0371
 8810TIP3    H147845   6.784   1.769  13.628 -0.9088 -3.9640 -2.2497
 8810TIP3    H247846   6.633   1.785  13.637 -0.3980  0.3776  0.2745
 8811TIP3   OH247847   0.820   3.363  11.401 -0.2823 -0.0859  0.1474
 8811TIP3    H147848   0.780   3.442  11.435  2.3656  0.2478  2.7279
 8811TIP3    H247849   0.886   3.394  11.338 -0.4105 -0.3398 -0.1180
 8812TIP3   OH247850   0.400   0.215  12.542 -0.2859  0.0757 -0.3857
 8812TIP3    H147851   0.452   0.244  12.467 -0.5720  1.8402  0.0915
 8812TIP3    H247852   0.461   0.218  12.616 -0.5523  0.2956 -0.1745
 8813TIP3   OH247853   3.899   4.743  13.529  0.0786  0.2031 -0.2297
 8813TIP3    H147854   3.885   4.653  13.499 -0.6629  0.6858 -1.3804
 8813TIP3    H247855   3.811   4.781  13.531  0.4368  1.0348 -0.1766
 8814TIP3   OH247856   1.702   4.038  16.711 -0.0724  0.3463 -0.5914
 8814TIP3    H147857   1.682   4.104  16.777 -0.8988 -1.1026  0.6171
 8814TIP3    H247858   1.786   4.002  16.738 -1.0717 -1.2198  0.4570
 8815TIP3   OH247859   1.775   0.571   2.454 -0.0565  0.5817  0.7996
 8815TIP3    H147860   1.850   0.543   2.505  0.5199 -1.2534 -1.0183
 8815TIP3    H247861   1.803   0.564   2.363 -3.3810 -3.1948 -0.0948
 8816TIP3   OH247862   0.579   5.083   3.179  0.0311 -0.6172 -0.0339
 8816TIP3    H147863   0.625   5.139   3.241 -1.1691 -0.2434  0.5290
 8816TIP3    H247864   0.529   5.023   3.233  0.6914 -1.7434 -0.6399
 8817TIP3   OH247865   1.990   1.286  15.259 -0.2803 -0.2973 -0.4714
 8817TIP3    H147866   1.897   1.308  15.249 -0.5947 -0.9149  0.9302
 8817TIP3    H247867   2.001   1.272  15.353  0.9515 -1.4641 -0.7782
 8818TIP3   OH247868   5.307   3.737   3.031 -0.5925 -0.3080  0.3297
 8818TIP3    H147869   5.258   3.656   3.041 -1.4602  0.2941  1.0807
 8818TIP3    H247870   5.271   3.795   3.099 -2.4306  1.8871 -2.3623
 8819TIP3   OH247871   2.869   4.032  13.173 -0.0025  0.5125  0.7421
 8819TIP3    H147872   2.832   4.119  13.188  0.6634  0.4752  2.7858
 8819TIP3    H247873   2.943   4.027  13.233  1.8843 -0.2996 -1.6034
 8820TIP3   OH247874   0.002   0.831  16.018 -0.2023 -0.1268 -0.0773
 8820TIP3    H147875  -0.010   0.741  16.049  0.3192  0.1472  0.9240
 8820TIP3    H247876   0.097   0.841  16.010 -0.2332  0.5046  0.3185
 8821TIP3   OH247877   0.713   5.311   6.511 -0.3765 -0.2171 -0.7174
 8821TIP3    H147878   0.737   5.277   6.597  0.9242  0.3689 -0.8326
 8821TIP3    H247879   0.725   5.237   6.451 -0.3808 -0.3711 -0.5265
 8822TIP3   OH247880   0.440   3.757   2.081 -0.0480 -0.1857  0.2324
 8822TIP3    H147881   0.528   3.725   2.061 -0.4016 -0.3494 -1.1687
 8822TIP3    H247882   0.410   3.797   1.999 -0.4187  1.9102  1.3621
 8823TIP3   OH247883   4.922   5.626   4.886 -0.6713  0.1458  0.2749
 8823TIP3    H147884   4.831   5.648   4.908 -0.7888 -0.8390  0.8171
 8823TIP3    H247885   4.923   5.621   4.791 -0.8584  1.5438  0.1963
 8824TIP3   OH247886   5.410   0.208  12.841 -0.5891 -0.0673 -0.2731
 8824TIP3    H147887   5.347   0.272  12.809 -0.0457  0.5750 -0.0711
 8824TIP3    H247888   5.496   0.250  12.829 -0.3019 -0.2707  0.9445
 8825TIP3   OH247889   4.383   5.804  15.789 -0.0783  0.2670 -0.7977
 8825TIP3    H147890   4.398   5.710  15.777 -0.9300  0.3225 -2.5295
 8825TIP3    H247891   4.390   5.840  15.700 -1.4993  1.5784 -0.3936
 8826TIP3   OH247892   3.721   0.476  15.905  0.8187 -0.3489  0.2328
 8826TIP3    H147893   3.682   0.551  15.861 -0.7556 -0.3101  1.6636
 8826TIP3    H247894   3.666   0.461  15.981  0.4670 -3.6482 -0.6025
 8827TIP3   OH247895   3.891   1.758  13.583  0.2324 -0.1868 -0.0563
 8827TIP3    H147896   3.869   1.686  13.524 -2.0150  0.1930  0.3072
 8827TIP3    H247897   3.868   1.837  13.534 -1.6016  0.1361  1.2737
 8828TIP3   OH247898   3.078   0.996   4.824 -0.7662  0.5484 -0.1102
 8828TIP3    H147899   2.990   1.033   4.833 -1.9292 -1.9779 -0.8302
 8828TIP3    H247900   3.064   0.910   4.786  2.2166  1.0532 -2.5181
 8829TIP3   OH247901   5.973   5.618  13.535  0.7379  0.4246 -0.6892
 8829TIP3    H147902   5.955   5.695  13.480 -1.2175  0.9296  0.6132
 8829TIP3    H247903   5.903   5.556  13.513 -0.5579  0.9691  1.8224
 8830TIP3   OH247904   4.581   1.902  15.049  0.6190  0.0481  0.3884
 8830TIP3    H147905   4.659   1.946  15.082  0.9142  0.5342 -0.9157
 8830TIP3    H247906   4.561   1.836  15.115  2.1991 -0.1589  0.6780
 8831TIP3   OH247907   2.446   2.978   0.601  0.7464  0.0608 -0.2661
 8831TIP3    H147908   2.471   3.005   0.689 -3.0163  1.0292  0.5945
 8831TIP3    H247909   2.404   2.893   0.613 -0.8060  0.7134 -0.9229
 8832TIP3   OH247910   0.039   0.204  17.008  0.1260 -0.1249  0.4664
 8832TIP3    H147911  -0.032   0.141  17.000  1.8266 -2.4048  2.7506
 8832TIP3    H247912   0.054   0.212  17.103  2.9413  0.2658  0.0298
 8833TIP3   OH247913   5.041   3.241   5.114 -0.4595 -0.7773  0.0799
 8833TIP3    H147914   5.093   3.229   5.193 -0.6790 -2.5462 -0.0270
 8833TIP3    H247915   5.089   3.194   5.046  0.3522  1.7322 -1.1318
 8834TIP3   OH247916   5.226   5.011   3.708  0.1478 -0.2577 -0.5499
 8834TIP3    H147917   5.233   4.960   3.627 -0.9027 -3.0087  1.0052
 8834TIP3    H247918   5.143   5.059   3.700  0.6270  0.4060 -1.5896
 8835TIP3   OH247919   4.401   5.279   6.107 -0.4346  0.3794 -0.0618
 8835TIP3    H147920   4.496   5.276   6.112 -0.5147  0.4631  1.6620
 8835TIP3    H247921   4.377   5.364   6.145 -1.2500 -0.0731  0.4563
 8836TIP3   OH247922   5.842   3.874   6.538 -0.4870 -0.4983  0.0781
 8836TIP3    H147923   5.782   3.839   6.603 -0.3312  0.5414  0.7899
 8836TIP3    H247924   5.796   3.865   6.454 -2.2302  1.6350  0.7853
 8837TIP3   OH247925   0.869   2.862   3.701 -0.1138  0.5969 -0.1965
 8837TIP3    H147926   0.887   2.775   3.667 -0.2418  1.2826 -2.0673
 8837TIP3    H247927   0.939   2.877   3.765  0.4113 -0.5356 -0.4926
 8838TIP3   OH247928   0.863   6.736   3.760 -0.3140  0.3334 -0.3839
 8838TIP3    H147929   0.797   6.693   3.815 -0.0036  1.5537  0.9844
 8838TIP3    H247930   0.864   6.685   3.679 -1.6139 -0.8092  0.2965
 8839TIP3   OH247931   6.655   0.548   0.812 -0.2220 -0.3609 -0.4085
 8839TIP3    H147932   6.726   0.545   0.749 -1.2368  0.3536 -1.6134
 8839TIP3    H247933   6.635   0.642   0.822 -0.9833 -0.5508 -0.0843
 8840TIP3   OH247934   1.599   3.291  13.020  0.5010 -0.6945 -0.3229
 8840TIP3    H147935   1.544   3.352  12.972 -0.9591 -0.1036  1.9964
 8840TIP3    H247936   1.552   3.208  13.016 -0.1088 -0.4195  0.8394
 8841TIP3   OH247937   5.955   4.394  16.001  0.1257 -0.6482 -0.0778
 8841TIP3    H147938   5.922   4.383  15.912  0.0616 -1.4902  0.0407
 8841TIP3    H247939   5.881   4.431  16.049  0.0719 -0.4424 -0.3185
 8842TIP3   OH247940   0.520   2.973  15.891 -0.6467 -0.0274 -0.4102
 8842TIP3    H147941   0.573   3.036  15.841 -0.5367  0.2232  0.0220
 8842TIP3    H247942   0.432   2.981  15.852 -0.2567 -0.8178 -1.4687
 8843TIP3   OH247943   2.953   3.916  11.701  0.3631  1.1177  0.0004
 8843TIP3    H147944   2.873   3.928  11.651 -0.5486 -0.1346  1.1337
 8843TIP3    H247945   3.015   3.977  11.661 -0.7396  1.1368 -1.7572
 8844TIP3   OH247946   1.752   2.446  16.663  0.5456  0.4436  0.1137
 8844TIP3    H147947   1.828   2.455  16.720  0.5728  1.7676 -0.1012
 8844TIP3    H247948   1.686   2.403  16.717  0.8973  0.7994  0.8370
 8845TIP3   OH247949   0.748   3.340  14.116 -0.0335  0.5095  0.4136
 8845TIP3    H147950   0.692   3.338  14.039 -1.7047 -0.1712  1.5999
 8845TIP3    H247951   0.822   3.283  14.094  0.0930  1.2619 -1.1049
 8846TIP3   OH247952   0.468   2.105  12.128 -0.3655 -0.0540  0.9628
 8846TIP3    H147953   0.520   2.178  12.162 -1.7541  1.2400  0.3794
 8846TIP3    H247954   0.378   2.139  12.125 -0.6472 -0.9256 -1.7322
 8847TIP3   OH247955   0.497   4.150  16.625 -0.2223 -0.0697 -0.3489
 8847TIP3    H147956   0.511   4.242  16.649 -0.5588 -0.1030 -0.0283
 8847TIP3    H247957   0.560   4.134  16.554 -1.6430  1.0229 -1.9028
 8848TIP3   OH247958   3.057   6.030  14.900 -0.4572  0.3897  0.6556
 8848TIP3    H147959   3.123   6.027  14.969 -0.3013 -0.5410  0.4643
 8848TIP3    H247960   3.028   5.940  14.890 -0.9908  0.6327 -0.0058
 8849TIP3   OH247961   1.634   3.684  13.817 -0.6024  0.0749 -0.3003
 8849TIP3    H147962   1.710   3.638  13.853  0.0314  0.9354 -0.5148
 8849TIP3    H247963   1.667   3.772  13.796 -1.6938  0.5078 -0.2494
 8850TIP3   OH247964   2.745   2.770  12.555  0.0897 -0.2964  0.5753
 8850TIP3    H147965   2.663   2.742  12.594 -0.3296  0.1801  0.0400
 8850TIP3    H247966   2.723   2.794  12.465  0.4702  1.5544  0.9512
 8851TIP3   OH247967   1.823   3.589  15.256 -0.1910 -0.0180  0.6844
 8851TIP3    H147968   1.756   3.618  15.194  0.5566 -1.3392 -0.7586
 8851TIP3    H247969   1.904   3.627  15.224  0.0500  0.1148  1.4324
 8852TIP3   OH247970   3.962   5.615   4.795 -0.2181 -0.0342 -0.1365
 8852TIP3    H147971   3.875   5.585   4.822 -0.0725 -1.4956 -1.2138
 8852TIP3    H247972   3.948   5.662   4.714 -0.1269  0.5899  0.2095
 8853TIP3   OH247973   0.096   4.222   3.719 -0.0229  0.6343 -0.0963
 8853TIP3    H147974   0.107   4.205   3.626  0.7644  0.6006  0.0028
 8853TIP3    H247975   0.007   4.258   3.727 -0.1908  0.3711 -0.8180
 8854TIP3   OH247976   3.503   3.359  11.313  0.1129 -0.9107  0.0587
 8854TIP3    H147977   3.529   3.269  11.292  0.7434 -0.8631  0.6233
 8854TIP3    H247978   3.516   3.407  11.232 -0.1846 -1.3208 -0.2348
 8855TIP3   OH247979   3.693   6.577  13.167 -0.3293 -0.2763 -0.4110
 8855TIP3    H147980   3.640   6.586  13.088  0.0245  2.4432 -0.3820
 8855TIP3    H247981   3.740   6.660  13.174  1.1357 -1.2436  1.5858
 8856TIP3   OH247982   0.225   1.968  12.175 -0.0402  0.0134  0.3196
 8856TIP3    H147983   0.166   1.968  12.100  0.4851 -0.9559 -0.1050
 8856TIP3    H247984   0.193   2.039  12.231  0.3404  1.6188 -1.4310
 8857TIP3   OH247985   6.371   1.274   4.840  0.1657  0.0299 -0.0451
 8857TIP3    H147986   6.302   1.235   4.895 -0.7891 -1.2351 -2.0458
 8857TIP3    H247987   6.439   1.207   4.836 -0.1381 -0.2306 -1.0493
 8858TIP3   OH247988   2.259   4.396   5.499 -0.1183 -0.1032  0.2867
 8858TIP3    H147989   2.323   4.325   5.506  0.2872  0.1752 -0.5983
 8858TIP3    H247990   2.306   4.474   5.530  0.1079  0.1834 -0.7648
 8859TIP3   OH247991   0.073   5.435   4.520  0.0416 -0.4942 -0.0833
 8859TIP3    H147992   0.117   5.519   4.528 -0.5090 -0.0973 -1.0851
 8859TIP3    H247993   0.035   5.436   4.432 -0.4826 -1.5408  0.1181
 8860TIP3   OH247994   1.972   3.410   2.236  0.3101  0.5081 -0.2949
 8860TIP3    H147995   2.068   3.403   2.232  0.2762  0.8560 -2.1478
 8860TIP3    H247996   1.955   3.476   2.303  1.3605  0.0815  0.3952
 8861TIP3   OH247997   3.340   6.255   1.335  0.1359 -0.1440 -0.1533
 8861TIP3    H147998   3.381   6.197   1.400 -0.8351  0.6194  1.1678
 8861TIP3    H247999   3.273   6.201   1.294  0.5651 -0.5477 -0.3318
 8862TIP3   OH248000   3.152   0.177   3.056 -0.3609 -0.3769 -0.2414
 8862TIP3    H148001   3.095   0.233   3.109  1.7538  2.7613 -1.1043
 8862TIP3    H248002   3.113   0.179   2.969  0.7358  1.3945 -0.7230
 8863TIP3   OH248003   2.299   6.243   5.299 -0.0822 -0.2834 -0.0669
 8863TIP3    H148004   2.362   6.181   5.335 -0.0187 -0.2287 -0.0843
 8863TIP3    H248005   2.352   6.320   5.276  0.4234 -1.6085 -3.5558
 8864TIP3   OH248006   1.485   1.790   1.007 -0.4870  0.8163 -0.3742
 8864TIP3    H148007   1.574   1.821   1.020 -0.1132  0.1933 -1.3954
 8864TIP3    H248008   1.439   1.866   0.970 -0.7223  1.5423  1.3640
 8865TIP3   OH248009   6.182   6.601   2.521 -0.6878 -0.3079  0.3973
 8865TIP3    H148010   6.174   6.535   2.453  1.1482 -0.7583  0.5844
 8865TIP3    H248011   6.154   6.557   2.601  0.4045 -0.8340  0.4993
 8866TIP3   OH248012   2.840   5.001  13.965 -0.5133 -0.8271  0.5552
 8866TIP3    H148013   2.778   4.943  13.920  0.0517 -0.0197 -1.3207
 8866TIP3    H248014   2.924   4.985  13.921 -0.4333  1.6872 -0.2835
 8867TIP3   OH248015   6.023   1.063  13.809 -0.3189  0.5361  0.0867
 8867TIP3    H148016   6.113   1.037  13.792 -0.5191  0.2815 -0.6350
 8867TIP3    H248017   5.986   1.077  13.722 -1.4234 -0.9258  0.2959
 8868TIP3   OH248018   2.636   4.697  15.676  0.0428 -0.3175  0.3302
 8868TIP3    H148019   2.625   4.627  15.740 -0.6501 -0.8894 -0.4150
 8868TIP3    H248020   2.550   4.706  15.636  0.2664  0.6067  0.0568
 8869TIP3   OH248021   3.338   2.860   5.827  0.1203 -0.5841 -0.1066
 8869TIP3    H148022   3.410   2.889   5.883  2.1534 -0.6891 -2.5711
 8869TIP3    H248023   3.263   2.914   5.854  1.0561 -0.4978  2.5234
 8870TIP3   OH248024   6.624   0.525   3.382  0.3999 -0.6277  0.2394
 8870TIP3    H148025   6.694   0.522   3.448  1.8338 -1.8206 -1.2810
 8870TIP3    H248026   6.617   0.617   3.359  0.3774 -0.2882  1.5332
 8871TIP3   OH248027   0.107   6.217  15.766 -0.7547 -0.0090  0.4155
 8871TIP3    H148028   0.051   6.210  15.844 -2.2128 -1.7338 -0.7351
 8871TIP3    H248029   0.069   6.288  15.715 -0.8407 -0.0182  0.4673
 8872TIP3   OH248030   5.636   0.829   1.190  0.2599 -0.1651 -0.1428
 8872TIP3    H148031   5.584   0.791   1.119 -2.0577 -1.2514  2.0816
 8872TIP3    H248032   5.587   0.906   1.218 -1.2311 -2.2256  3.2072
 8873TIP3   OH248033   2.123   5.993  16.167 -0.0725  0.5808 -0.2914
 8873TIP3    H148034   2.095   6.068  16.115 -0.0193  0.0409 -1.1146
 8873TIP3    H248035   2.207   6.020  16.204 -1.0640  1.7140  1.1339
 8874TIP3   OH248036   5.322   2.378  17.197 -0.1935 -0.0189  0.9720
 8874TIP3    H148037   5.374   2.451  17.231  1.7312 -0.0933 -1.6877
 8874TIP3    H248038   5.236   2.417  17.178  1.0595  1.8364 -1.2244
 8875TIP3   OH248039   2.792   4.038   4.415  0.3965 -0.0025 -0.1585
 8875TIP3    H148040   2.743   4.019   4.334  0.6018  1.2196 -0.5713
 8875TIP3    H248041   2.860   3.970   4.417 -1.4967 -1.9290  0.6015
 8876TIP3   OH248042   6.144   2.613   3.470 -0.1195  0.3717  0.2124
 8876TIP3    H148043   6.178   2.546   3.410  1.0760 -0.5878  1.9032
 8876TIP3    H248044   6.064   2.575   3.505  0.2539  0.0739  0.7419
 8877TIP3   OH248045   2.206   4.371   0.858 -0.4072  0.0565  0.4597
 8877TIP3    H148046   2.280   4.319   0.889 -0.5386  0.9455  2.3248
 8877TIP3    H248047   2.130   4.312   0.864 -0.0647 -0.4773 -0.3302
 8878TIP3   OH248048   3.143   5.910  12.614  0.0001 -0.3478 -0.1216
 8878TIP3    H148049   3.157   5.940  12.524  2.0177 -1.3419 -0.1693
 8878TIP3    H248050   3.075   5.843  12.607 -1.8942  1.5753 -0.5016
 8879TIP3   OH248051   2.702   3.176   3.925 -0.1668  0.1605  0.4772
 8879TIP3    H148052   2.706   3.110   3.993 -1.8568 -0.2963  0.1570
 8879TIP3    H248053   2.705   3.127   3.843  1.3771  0.6744  0.2120
 8880TIP3   OH248054   3.606   1.090   3.691 -0.4796  0.2336 -0.1666
 8880TIP3    H148055   3.680   1.031   3.675 -0.2469  0.3918  0.3092
 8880TIP3    H248056   3.550   1.043   3.753 -0.2190  0.5611  0.3295
 8881TIP3   OH248057   5.286   2.988  16.204 -0.4451 -0.5196 -0.4164
 8881TIP3    H148058   5.360   2.937  16.172 -1.7723 -0.6643 -3.4727
 8881TIP3    H248059   5.210   2.951  16.157 -1.5605  3.6430 -2.1216
 8882TIP3   OH248060   2.912   0.524  11.689  0.0702 -0.4302  0.1512
 8882TIP3    H148061   2.885   0.442  11.728 -0.1743  1.0260  3.1575
 8882TIP3    H248062   2.997   0.543  11.729 -0.0670  0.9685 -0.1813
 8883TIP3   OH248063   3.836   2.481  13.317  0.1636  0.4900 -0.0329
 8883TIP3    H148064   3.796   2.460  13.233  3.1824 -0.0026 -1.4285
 8883TIP3    H248065   3.846   2.576  13.316  0.3384  0.4698 -0.3077
 8884TIP3   OH248066   4.108   1.572  14.128  0.1483  0.7183 -0.4802
 8884TIP3    H148067   4.079   1.636  14.063 -0.5352 -0.2088 -1.1126
 8884TIP3    H248068   4.029   1.550  14.176  0.5501  0.9875  0.3020
 8885TIP3   OH248069   6.228   0.012  14.275  0.0448 -0.2932 -0.5539
 8885TIP3    H148070   6.181  -0.068  14.254 -1.4715  0.0734  1.2680
 8885TIP3    H248071   6.278  -0.009  14.354  1.3711 -0.0779 -1.3173
 8886TIP3   OH248072   6.355   0.913  15.081 -0.0602  0.3137 -0.0955
 8886TIP3    H148073   6.424   0.847  15.080 -1.4616 -1.2102  1.7930
 8886TIP3    H248074   6.345   0.936  15.173  0.3804  3.1759 -0.7004
 8887TIP3   OH248075   2.707   3.075   0.366 -0.4475 -0.6899  0.2178
 8887TIP3    H148076   2.695   3.124   0.448  0.6206 -1.7727  1.0218
 8887TIP3    H248077   2.733   2.987   0.394 -0.2160 -1.1019 -1.2841
 8888TIP3   OH248078   3.602   1.710  11.444 -0.4394 -0.1899  0.2030
 8888TIP3    H148079   3.625   1.722  11.352 -2.4518 -1.8085 -0.5319
 8888TIP3    H248080   3.596   1.799  11.479  0.0052  0.4457 -1.3078
 8889TIP3   OH248081   3.851   1.977  13.426 -0.1380 -0.4031  0.1216
 8889TIP3    H148082   3.871   2.051  13.369  2.5888  0.2721  1.8520
 8889TIP3    H248083   3.880   2.005  13.513  0.1785 -3.1658  0.9730
 8890TIP3   OH248084   1.048   0.382   3.491  0.0905  0.1095  0.2469
 8890TIP3    H148085   0.987   0.390   3.418  1.2133 -2.2230 -0.9952
 8890TIP3    H248086   1.008   0.317   3.549  0.8154 -0.5330  0.0303
 8891TIP3   OH248087   3.924   5.358   0.736 -0.3685 -0.0023 -0.1941
 8891TIP3    H148088   3.869   5.424   0.778  2.8367  2.5654  0.1403
 8891TIP3    H248089   3.949   5.396   0.652  1.7184 -0.6226  0.1041
 8892TIP3   OH248090   2.318   2.006   0.139 -0.0077 -0.2445 -0.7154
 8892TIP3    H148091   2.251   2.031   0.075 -0.6928 -1.8515 -0.6384
 8892TIP3    H248092   2.362   2.089   0.160 -2.3708  0.9440 -0.2797
 8893TIP3   OH248093   3.684   3.159   1.313 -0.2137  0.5051  0.3294
 8893TIP3    H148094   3.713   3.160   1.404 -1.3204  0.1720  0.6947
 8893TIP3    H248095   3.588   3.151   1.318 -0.2974  0.6546 -0.8557
 8894TIP3   OH248096   5.120   5.543  11.635 -0.0059 -0.3939 -0.3293
 8894TIP3    H148097   5.034   5.532  11.595 -0.5618 -0.3337  0.8266
 8894TIP3    H248098   5.151   5.454  11.650  0.7188 -0.4334 -1.9412
 8895TIP3   OH248099   6.112   5.220  12.749  0.1721  0.1665  0.3051
 8895TIP3    H148100   6.020   5.211  12.725  0.2038  0.4573  0.0814
 8895TIP3    H248101   6.117   5.181  12.837  0.0744 -0.9605 -0.1761
 8896TIP3   OH248102   5.033   4.956  13.645  0.6142 -0.3871  0.1118
 8896TIP3    H148103   5.117   4.934  13.684  0.7065 -0.4603 -0.1256
 8896TIP3    H248104   5.017   4.885  13.581  1.2172  0.5675 -1.1173
 8897TIP3   OH248105   3.424   5.098  10.611  0.0560 -0.1486 -0.3378
 8897TIP3    H148106   3.340   5.081  10.653  1.0439 -0.4436  1.5567
 8897TIP3    H248107   3.426   5.194  10.601  0.0537 -0.0371  0.7637
 8898TIP3   OH248108   4.714   3.941   5.853  0.2018 -0.0810  0.1070
 8898TIP3    H148109   4.777   4.005   5.883  0.8332 -0.4099 -0.5065
 8898TIP3    H248110   4.629   3.985   5.861  0.6217  0.7951 -0.2225
 8899TIP3   OH248111   0.319   1.378  16.628  0.6384 -0.0434 -0.5857
 8899TIP3    H148112   0.271   1.405  16.706 -0.0013 -0.5774 -0.7952
 8899TIP3    H248113   0.260   1.319  16.582  1.9952 -1.8126 -0.1426
 8900TIP3   OH248114   3.862   6.252  14.094  1.0953  0.1736 -0.7920
 8900TIP3    H148115   3.900   6.197  14.026  0.3953  0.9848 -1.8512
 8900TIP3    H248116   3.799   6.196  14.139  0.5953  0.0320 -1.6732
 8901TIP3   OH248117   6.773   3.596   2.499 -0.7798  0.3442  0.1313
 8901TIP3    H148118   6.811   3.683   2.510 -0.8536  0.2433  1.1731
 8901TIP3    H248119   6.708   3.588   2.568 -0.7652 -0.5439  0.0531
 8902TIP3   OH248120   2.980   6.220  12.580  0.7902  0.1964  0.6485
 8902TIP3    H148121   3.022   6.248  12.661  1.0468  2.0596 -0.0820
 8902TIP3    H248122   3.051   6.221  12.515  0.5637 -1.1467  0.3795
 8903TIP3   OH248123   5.947   1.813   2.261  0.3658 -0.3129 -1.2771
 8903TIP3    H148124   6.008   1.740   2.254  2.5036  1.1397  1.4565
 8903TIP3    H248125   6.000   1.891   2.246 -0.8402  0.9626  0.7650
 8904TIP3   OH248126   1.137   0.163  14.991 -0.2714  0.1564 -0.6671
 8904TIP3    H148127   1.185   0.127  15.065  0.9362  1.3875 -0.8297
 8904TIP3    H248128   1.109   0.250  15.021 -1.1415  0.0272 -1.0919
 8905TIP3   OH248129   2.870   2.655  15.732 -0.0504  0.6023  0.0938
 8905TIP3    H148130   2.905   2.631  15.646  0.9740  1.0271  0.3928
 8905TIP3    H248131   2.799   2.592  15.747 -0.0061  0.3040 -0.9051
 8906TIP3   OH248132   0.625   1.374  14.013 -0.1650  0.1492  0.4973
 8906TIP3    H148133   0.649   1.461  14.045 -2.0422  0.4186  1.2802
 8906TIP3    H248134   0.534   1.384  13.983 -0.3680 -1.4950  0.5170
 8907TIP3   OH248135   2.230   2.709  15.480 -0.3798  0.1148 -0.1073
 8907TIP3    H148136   2.282   2.787  15.460 -1.0973  0.8561  0.9181
 8907TIP3    H248137   2.194   2.683  15.395  1.5938 -0.3655 -0.8146
 8908TIP3   OH248138   5.467   3.101  14.489  0.1890 -0.4224 -0.2961
 8908TIP3    H148139   5.432   3.021  14.448  0.5302 -0.9454  0.4193
 8908TIP3    H248140   5.523   3.069  14.560  0.3266  0.4589  0.0003
 8909TIP3   OH248141   0.866   6.717  14.354  0.2738 -0.2284 -0.0117
 8909TIP3    H148142   0.949   6.761  14.335  0.9457 -0.6185  1.8490
 8909TIP3    H248143   0.816   6.780  14.405 -0.9661  0.3323 -1.8668
 8910TIP3   OH248144   5.505   5.952  13.500  0.4524 -0.6482  0.1258
 8910TIP3    H148145   5.521   5.969  13.408  0.5870 -1.2543  0.0325
 8910TIP3    H248146   5.412   5.971  13.513  1.1355  2.7004  0.6228
 8911TIP3   OH248147   3.886   4.826   6.049 -0.0983 -0.7429 -0.3781
 8911TIP3    H148148   3.876   4.855   6.139  0.4380 -0.3595 -0.4404
 8911TIP3    H248149   3.802   4.786   6.027 -0.5278 -0.0674  0.0117
 8912TIP3   OH248150   1.065   4.940  15.076  0.3849 -0.3957 -0.1878
 8912TIP3    H148151   1.132   4.876  15.104  1.3700 -0.9998 -3.6701
 8912TIP3    H248152   1.062   4.931  14.981 -1.1369  3.1631 -0.5510
 8913TIP3   OH248153   3.274   1.668   3.913 -0.3031 -0.2324  0.0615
 8913TIP3    H148154   3.266   1.669   3.818  1.6619 -2.3388 -0.1706
 8913TIP3    H248155   3.212   1.601   3.942  1.5889 -2.1016 -0.0721
 8914TIP3   OH248156   5.561   1.525   4.604 -0.1748  0.0054 -0.1792
 8914TIP3    H148157   5.581   1.577   4.682 -0.8260  0.4257 -0.2939
 8914TIP3    H248158   5.528   1.588   4.540 -1.9707 -0.7033  0.0363
 8915TIP3   OH248159   2.228   4.904   0.640 -0.3188 -0.1176 -0.3358
 8915TIP3    H148160   2.322   4.913   0.630 -0.4153 -0.5383 -1.6896
 8915TIP3    H248161   2.202   4.978   0.694  0.5413  1.0160 -1.4504
 8916TIP3   OH248162   0.444   3.691  11.325  0.6918 -0.3175  0.4911
 8916TIP3    H148163   0.414   3.762  11.268  0.0870 -0.9216  0.0573
 8916TIP3    H248164   0.365   3.659  11.369  1.1819  0.3083  1.8726
 8917TIP3   OH248165   2.245   4.467  11.728 -0.8653  0.0485  0.2447
 8917TIP3    H148166   2.340   4.470  11.717 -0.9718  1.5177 -0.5014
 8917TIP3    H248167   2.215   4.398  11.668 -0.5425  1.7154 -1.9089
 8918TIP3   OH248168   1.934   1.782   3.209  0.0253 -0.0630  0.6138
 8918TIP3    H148169   1.897   1.697   3.232  1.5073 -0.1281  2.8714
 8918TIP3    H248170   1.862   1.829   3.167 -0.8502 -2.3542 -0.5433
 8919TIP3   OH248171   4.587   3.472   4.854 -0.3274  0.0853 -0.3874
 8919TIP3    H148172   4.648   3.401   4.837 -1.0885 -0.7467  0.2766
 8919TIP3    H248173   4.638   3.552   4.843  0.4708 -0.5584 -1.3844
 8920TIP3   OH248174   3.978   2.920   5.343 -0.0325 -0.0120  0.0081
 8920TIP3    H148175   3.915   2.985   5.374  0.0103 -0.3445  0.8002
 8920TIP3    H248176   3.984   2.935   5.249 -1.9181 -0.4938 -0.2095
 8921TIP3   OH248177   1.950   0.861   2.362 -0.5803 -0.2077 -0.6411
 8921TIP3    H148178   1.898   0.877   2.441 -0.0549  1.0286 -0.5413
 8921TIP3    H248179   1.956   0.946   2.320  2.5605 -0.0158  0.0656
 8922TIP3   OH248180   5.388   3.884   0.613 -0.2470  0.2446  0.8653
 8922TIP3    H148181   5.460   3.859   0.555 -2.5186  3.4477 -3.6871
 8922TIP3    H248182   5.354   3.802   0.648 -0.4194 -2.1242 -4.5186
 8923TIP3   OH248183   2.077   2.711  11.804  0.4118  0.0106  0.1811
 8923TIP3    H148184   2.118   2.631  11.838 -0.6868 -0.0465  1.4152
 8923TIP3    H248185   2.149   2.758  11.761  1.5453 -0.5937  1.3569
 8924TIP3   OH248186   3.780   5.010   4.439 -0.0871 -0.4678  0.9954
 8924TIP3    H148187   3.823   5.082   4.484  0.3738 -0.7247  0.9710
 8924TIP3    H248188   3.719   5.052   4.379  0.4104 -0.0860  0.7525
 8925TIP3   OH248189   5.012   4.413   4.205 -0.2813 -0.4120 -0.2034
 8925TIP3    H148190   5.014   4.501   4.243  1.8529 -0.6785  0.3716
 8925TIP3    H248191   4.939   4.370   4.249 -1.0709  0.9356 -0.1765
 8926TIP3   OH248192   0.769   5.006  12.633  0.1894  0.1891  0.0265
 8926TIP3    H148193   0.681   4.971  12.648  0.7020 -0.9798  0.3739
 8926TIP3    H248194   0.800   5.029  12.720  0.5827 -0.2916  0.0179
 8927TIP3   OH248195   1.102   5.920   3.735  0.1219 -0.7217  0.1904
 8927TIP3    H148196   1.092   6.013   3.755  2.1593  0.0953 -2.2580
 8927TIP3    H248197   1.106   5.877   3.820 -1.4699  1.3512  1.3468
 8928TIP3   OH248198   3.132   5.375   5.425  0.1500 -0.8611 -0.4450
 8928TIP3    H148199   3.173   5.422   5.497  0.7656 -0.8141 -0.8212
 8928TIP3    H248200   3.041   5.363   5.452 -0.1757  1.0743 -0.6004
 8929TIP3   OH248201   2.299   6.403  12.460 -0.1210  0.1726  0.4893
 8929TIP3    H148202   2.360   6.457  12.410 -0.5630  0.7353  0.5557
 8929TIP3    H248203   2.350   6.325  12.483  0.3691  0.3347 -0.0266
 8930TIP3   OH248204   1.493   0.816  14.889  0.0980 -0.2241 -0.1377
 8930TIP3    H148205   1.502   0.722  14.902 -1.1811 -0.0596  2.2704
 8930TIP3    H248206   1.582   0.848  14.876  0.3394 -2.0619 -3.6167
 8931TIP3   OH248207   2.151   0.431  11.586 -0.4107  0.2843  0.8378
 8931TIP3    H148208   2.211   0.488  11.537 -1.5301  0.4807 -0.3638
 8931TIP3    H248209   2.182   0.342  11.568 -1.1300  0.3269 -0.7024
 8932TIP3   OH248210   1.160   2.890   0.253  1.0040  0.0617 -0.8225
 8932TIP3    H148211   1.133   2.976   0.285  1.1928 -0.7761  1.7053
 8932TIP3    H248212   1.254   2.886   0.270  1.3222 -0.0023 -2.5165
 8933TIP3   OH248213   0.373   3.233  14.895 -0.5709  0.0212  0.0502
 8933TIP3    H148214   0.360   3.173  14.968 -2.4414 -0.1284 -0.3936
 8933TIP3    H248215   0.453   3.281  14.918 -0.3250 -1.0346  1.4821
 8934TIP3   OH248216   0.096   3.904   0.493 -0.2806  0.3167  0.3184
 8934TIP3    H148217   0.124   3.841   0.560 -2.5849 -2.2239 -1.0076
 8934TIP3    H248218   0.024   3.951   0.534 -0.6219 -0.1076  0.2088
 8935TIP3   OH248219   5.307   2.703   3.507  0.4600 -0.6544  0.2814
 8935TIP3    H148220   5.368   2.636   3.475 -0.2966 -0.9762 -0.5370
 8935TIP3    H248221   5.301   2.687   3.601  1.8832 -0.4099  0.4264
 8936TIP3   OH248222   1.083   2.601   0.479 -0.5623  0.3384  0.2895
 8936TIP3    H148223   1.110   2.546   0.552 -1.7325  0.5437  0.8810
 8936TIP3    H248224   1.163   2.646   0.452  0.1915 -0.8869  0.4473
 8937TIP3   OH248225   6.602   3.674   1.103 -0.1167 -0.1953 -0.3663
 8937TIP3    H148226   6.657   3.751   1.117 -1.5942  0.8966 -0.3645
 8937TIP3    H248227   6.561   3.659   1.189  2.0868 -2.5485  0.3191
 8938TIP3   OH248228   0.064   3.795  14.991 -0.5513  0.4997 -0.0506
 8938TIP3    H148229   0.131   3.863  14.990  0.3709 -0.3688  1.4457
 8938TIP3    H248230  -0.007   3.832  15.043  0.8408 -0.4904  2.6122
 8939TIP3   OH248231   6.714   4.059  14.587 -0.4086 -0.0344  0.4315
 8939TIP3    H148232   6.635   4.055  14.532  0.3476 -2.7999 -0.5519
 8939TIP3    H248233   6.787   4.056  14.525  0.4660 -0.2041  1.4534
 8940TIP3   OH248234   5.911   3.056  14.037  0.6337 -0.2480  0.5672
 8940TIP3    H148235   5.885   2.965  14.022  1.4971 -0.3343 -0.4542
 8940TIP3    H248236   5.828   3.103  14.047  0.1112 -0.7648 -1.1702
 8941TIP3   OH248237   0.044   4.998   3.013 -0.0705 -0.0247 -0.2863
 8941TIP3    H148238   0.067   5.089   3.032  1.1192 -0.2504 -0.5804
 8941TIP3    H248239   0.127   4.958   2.985 -0.7071 -1.0408 -0.7475
 8942TIP3   OH248240   5.392   3.211   0.692 -0.2750  0.0255 -0.0843
 8942TIP3    H148241   5.484   3.192   0.712 -0.7547  0.7989  3.2529
 8942TIP3    H248242   5.395   3.288   0.635  1.1471  0.4475  0.5358
 8943TIP3   OH248243   6.011   0.176  16.026  0.3084  0.0117  0.4152
 8943TIP3    H148244   6.062   0.157  15.947  0.7062 -1.6481  1.0396
 8943TIP3    H248245   6.017   0.095  16.077 -2.3382  0.0779  0.8543
 8944TIP3   OH248246   4.126   0.550   3.481  0.3102  0.1531 -0.1278
 8944TIP3    H148247   4.192   0.618   3.479  0.0942  0.4353  1.4615
 8944TIP3    H248248   4.083   0.555   3.395  0.8734  1.4264 -0.3462
 8945TIP3   OH248249   3.510   0.269   0.087  0.3492 -0.0130  0.5628
 8945TIP3    H148250   3.603   0.255   0.106 -0.0374 -0.3377  2.3641
 8945TIP3    H248251   3.509   0.331   0.014  1.9739  0.2045  0.7018
 8946TIP3   OH248252   5.907   2.231  13.271 -0.1551  0.4643  0.2746
 8946TIP3    H148253   5.857   2.311  13.255 -2.1409 -0.8563 -0.3548
 8946TIP3    H248254   5.877   2.171  13.204  3.8360  0.2429 -1.4491
 8947TIP3   OH248255   1.142   4.231   5.880  0.3132 -0.2588 -0.2356
 8947TIP3    H148256   1.102   4.197   5.960  1.8866  0.3112  0.8205
 8947TIP3    H248257   1.215   4.171   5.863  3.0467  2.3968  1.5864
 8948TIP3   OH248258   6.685   5.480  16.070  0.1968 -0.5098 -0.0472
 8948TIP3    H148259   6.718   5.473  15.980 -1.0820  0.4257 -0.6019
 8948TIP3    H248260   6.607   5.534  16.062 -0.0628 -0.6397  1.6049
 8949TIP3   OH248261   5.131   5.022   4.812 -0.2178  0.3545  0.3799
 8949TIP3    H148262   5.116   4.937   4.854 -0.2279 -0.2389 -0.8115
 8949TIP3    H248263   5.199   5.005   4.746  0.3894  1.4535  0.6964
 8950TIP3   OH248264   5.846   4.843  14.840  0.4224 -0.1491  0.2491
 8950TIP3    H148265   5.850   4.844  14.745 -0.0047  0.0524  0.2352
 8950TIP3    H248266   5.927   4.887  14.867  0.0379  0.7471 -0.0338
 8951TIP3   OH248267   1.985   6.298  14.185 -0.5259 -0.6699 -0.5598
 8951TIP3    H148268   1.998   6.276  14.093 -1.9796  2.7445 -1.6850
 8951TIP3    H248269   2.073   6.306  14.221  0.2837  3.4160 -3.1441
 8952TIP3   OH248270   4.720   1.508   1.114  0.1965  0.0109  0.2151
 8952TIP3    H148271   4.658   1.435   1.121  1.8097 -1.3812  0.2528
 8952TIP3    H248272   4.800   1.475   1.156  2.3358  0.2425 -3.5043
 8953TIP3   OH248273   1.139   6.400  16.722  0.1720 -0.0391 -0.3367
 8953TIP3    H148274   1.188   6.480  16.743 -1.8491  0.6790  1.8976
 8953TIP3    H248275   1.052   6.415  16.760 -0.3369 -3.1622 -0.1598
 8954TIP3   OH248276   2.199   0.431  17.147 -0.2259  0.1803  0.2854
 8954TIP3    H148277   2.170   0.369  17.215 -1.3283  0.9695  0.5608
 8954TIP3    H248278   2.172   0.390  17.065  0.5599 -0.4897  0.3527
 8955TIP3   OH248279   4.654   4.321  17.154 -0.8326  0.7336 -0.1258
 8955TIP3    H148280   4.692   4.255  17.096 -3.8804 -0.0106 -1.3568
 8955TIP3    H248281   4.729   4.357  17.201  1.0916 -2.4312 -0.6216
 8956TIP3   OH248282   5.177   3.403   1.656 -0.3495  0.3645  0.0290
 8956TIP3    H148283   5.207   3.327   1.606 -0.0896  0.5900 -0.1555
 8956TIP3    H248284   5.169   3.473   1.591  2.7051  1.4433  0.7407
 8957TIP3   OH248285   6.191   2.908   5.518  1.0051  0.2110  0.5070
 8957TIP3    H148286   6.105   2.908   5.476  1.6221 -0.7898 -0.8332
 8957TIP3    H248287   6.191   2.985   5.574 -0.4988  0.6163 -0.0212
 8958TIP3   OH248288   4.682   5.773   2.750  0.2659  0.3876  0.1608
 8958TIP3    H148289   4.773   5.795   2.731  0.0417  0.8752 -0.3484
 8958TIP3    H248290   4.631   5.826   2.689 -0.3574  0.0758  0.4088
 8959TIP3   OH248291   0.447   6.755  16.522 -0.0337 -0.0054 -0.1190
 8959TIP3    H148292   0.485   6.840  16.500 -0.2516 -0.5336 -2.6606
 8959TIP3    H248293   0.353   6.774  16.533  0.0478  0.2257  0.2055
 8960TIP3   OH248294   5.763   5.798   1.693  0.1053  0.3963 -0.6221
 8960TIP3    H148295   5.780   5.863   1.625 -0.1152  1.1832  0.0679
 8960TIP3    H248296   5.673   5.769   1.676 -0.7192  2.1638  0.6167
 8961TIP3   OH248297   1.703   6.289   1.426 -0.3146 -0.0465 -0.0194
 8961TIP3    H148298   1.653   6.275   1.507  3.0491 -0.6638  2.0302
 8961TIP3    H248299   1.742   6.376   1.437 -0.2130  0.0728 -1.2395
 8962TIP3   OH248300   0.176   3.401   5.201 -0.0970  0.0352 -0.2362
 8962TIP3    H148301   0.183   3.305   5.198 -0.8033 -0.0865  1.3502
 8962TIP3    H248302   0.187   3.429   5.110  1.7913 -1.4274 -0.4813
 8963TIP3   OH248303   4.600   3.194  13.081  0.2233  0.1653  0.0750
 8963TIP3    H148304   4.589   3.101  13.063  0.9729  0.1231 -0.1843
 8963TIP3    H248305   4.694   3.209  13.074 -0.0253  1.2185 -1.2654
 8964TIP3   OH248306   1.153   0.548   3.097 -0.5814 -0.4871  0.0190
 8964TIP3    H148307   1.087   0.563   3.030 -0.0096 -0.2025 -0.4918
 8964TIP3    H248308   1.225   0.505   3.050 -1.2336 -2.7372  0.9793
 8965TIP3   OH248309   2.344   0.851   0.893 -0.3813  0.0528  0.1615
 8965TIP3    H148310   2.436   0.869   0.875 -0.3608 -0.8402 -0.6459
 8965TIP3    H248311   2.307   0.824   0.809 -1.8190  2.1425  0.0871
 8966TIP3   OH248312   2.049   2.922   5.481 -0.5654  0.6018 -0.3205
 8966TIP3    H148313   2.093   2.970   5.551 -0.9698  0.2222  0.1911
 8966TIP3    H248314   2.098   2.840   5.474  0.3890  1.2430 -1.4791
 8967TIP3   OH248315   3.454   4.231  15.590  0.3390 -0.6248  0.3436
 8967TIP3    H148316   3.382   4.206  15.648  0.6056  0.9785  1.4174
 8967TIP3    H248317   3.457   4.326  15.597  1.5943 -0.5691 -0.8725
 8968TIP3   OH248318   6.706   1.998  13.169 -0.8213 -0.4428  0.1664
 8968TIP3    H148319   6.785   2.004  13.115  0.2122 -0.8602  1.6036
 8968TIP3    H248320   6.646   2.060  13.130  0.4540  0.3541 -0.5721
 8969TIP3   OH248321   1.943   3.922   4.557 -0.1435 -0.5627  0.1105
 8969TIP3    H148322   1.997   3.890   4.485 -0.0877 -1.4225  0.5281
 8969TIP3    H248323   2.003   3.971   4.612 -0.3797  0.9291 -0.9282
 8970TIP3   OH248324   1.468   1.664  14.073  0.1764  0.3422  0.1898
 8970TIP3    H148325   1.527   1.634  14.004 -1.2395 -0.1480 -0.8310
 8970TIP3    H248326   1.468   1.593  14.137 -1.0960 -0.6900 -0.9338
 8971TIP3   OH248327   2.697   2.482   4.576 -0.5788 -0.7893 -0.1015
 8971TIP3    H148328   2.644   2.525   4.644 -3.3445 -1.0152 -2.0201
 8971TIP3    H248329   2.766   2.437   4.624 -0.2709  2.0557  2.2977
 8972TIP3   OH248330   0.459   5.190   6.483 -0.6124  0.3395 -0.1606
 8972TIP3    H148331   0.541   5.237   6.493  1.9202 -3.7124 -0.7202
 8972TIP3    H248332   0.404   5.248   6.430  1.7490  3.2384  0.4307
 8973TIP3   OH248333   4.290   0.445  11.116 -0.0334 -0.3466  0.1175
 8973TIP3    H148334   4.357   0.497  11.072  1.1320 -1.2421  0.8154
 8973TIP3    H248335   4.208   0.472  11.074  0.5331  2.0259  0.4564
 8974TIP3   OH248336   5.933   4.720  10.547  0.1297  0.3326  0.4322
 8974TIP3    H148337   5.991   4.704  10.622 -1.2070  0.9203  1.6054
 8974TIP3    H248338   5.940   4.814  10.531  0.5853  0.1742 -0.3420
 8975TIP3   OH248339   5.788   3.043   3.805  0.9875 -0.6063  0.0468
 8975TIP3    H148340   5.864   3.023   3.749  1.1920 -0.0877  0.1325
 8975TIP3    H248341   5.726   3.086   3.746  1.2669  0.0833  0.2502
 8976TIP3   OH248342   4.815   3.700   2.205 -0.2117 -0.2475 -0.1758
 8976TIP3    H148343   4.785   3.771   2.262  0.4647 -0.5069  0.5134
 8976TIP3    H248344   4.888   3.660   2.252  0.7728 -0.0647 -1.5135
 8977TIP3   OH248345   3.659   3.112  12.916  0.0670 -0.4351 -0.3732
 8977TIP3    H148346   3.593   3.118  12.846 -3.5249 -0.9222  2.8264
 8977TIP3    H248347   3.639   3.186  12.974  3.1556  0.1199  0.0791
 8978TIP3   OH248348   4.905   3.222  13.484  0.0586 -0.7494  0.3502
 8978TIP3    H148349   4.961   3.277  13.539  0.1615 -0.4783 -0.0213
 8978TIP3    H248350   4.965   3.184  13.419 -0.0605 -1.0716  0.4265
 8979TIP3   OH248351   0.643   4.577   4.471 -0.0575 -0.4176  0.1073
 8979TIP3    H148352   0.708   4.635   4.433  1.4671 -1.7417  0.6598
 8979TIP3    H248353   0.568   4.634   4.490 -0.1858  0.6140 -3.1498
 8980TIP3   OH248354   1.298   0.305  13.252 -0.1302 -0.1540 -0.5839
 8980TIP3    H148355   1.258   0.377  13.301 -0.8585  0.7582 -2.4500
 8980TIP3    H248356   1.337   0.249  13.319 -2.2513  0.3291  1.1237
 8981TIP3   OH248357   1.734   5.073  14.260  0.8249  0.3926 -0.1388
 8981TIP3    H148358   1.656   5.021  14.244  0.3617  0.4308  1.8715
 8981TIP3    H248359   1.719   5.155  14.213  1.0514 -0.8018 -2.3475
 8982TIP3   OH248360   3.019   3.643  12.245  0.0735  0.1460  0.1035
 8982TIP3    H148361   3.082   3.602  12.305  0.3427  0.3208 -0.0615
 8982TIP3    H248362   2.979   3.569  12.198  1.7920  0.1678 -1.4285
 8983TIP3   OH248363   5.103   4.633   0.798 -0.2364 -0.3097 -0.1767
 8983TIP3    H148364   5.127   4.702   0.860  0.1499 -0.5637 -0.0342
 8983TIP3    H248365   5.146   4.554   0.833  0.4643 -0.3380 -1.0851
 8984TIP3   OH248366   2.137   3.591  11.386  0.2441  0.1428 -0.4420
 8984TIP3    H148367   2.222   3.607  11.426  0.6358 -0.5612 -0.9880
 8984TIP3    H248368   2.092   3.676  11.390  0.2852  0.0900  1.4362
 8985TIP3   OH248369   0.274   6.449  15.469 -0.2866  0.4403 -0.0445
 8985TIP3    H148370   0.312   6.381  15.525  0.1952 -0.5468 -1.5298
 8985TIP3    H248371   0.243   6.516  15.530  0.2016 -0.6138  1.3958
 8986TIP3   OH248372   1.723   3.457  12.261 -0.7818  0.0091 -1.0204
 8986TIP3    H148373   1.673   3.417  12.332 -2.2779  0.6240 -1.7028
 8986TIP3    H248374   1.706   3.551  12.270  1.6549  0.4007 -0.2078
 8987TIP3   OH248375   3.943   5.475   5.819 -0.2920  0.4881 -0.0408
 8987TIP3    H148376   3.981   5.562   5.804  0.3359  0.4628  1.3491
 8987TIP3    H248377   3.976   5.448   5.905 -0.6828 -1.0185 -0.3377
 8988TIP3   OH248378   1.089   0.323   0.223  0.1869  0.4730  0.5141
 8988TIP3    H148379   1.127   0.405   0.191 -0.2513  0.2532 -0.5895
 8988TIP3    H248380   1.067   0.342   0.315  2.6137  0.7085  1.0987
 8989TIP3   OH248381   4.402   2.855  10.502  0.6810  0.1752 -0.3756
 8989TIP3    H148382   4.437   2.766  10.501 -1.3777 -0.7063  0.8690
 8989TIP3    H248383   4.456   2.902  10.565 -0.0399 -1.0185  1.1624
 8990TIP3   OH248384   5.967   2.320  14.236  0.1490 -0.0703  0.9980
 8990TIP3    H148385   5.944   2.228  14.248 -1.6165 -0.0964 -2.0424
 8990TIP3    H248386   6.015   2.322  14.153  0.7469  1.6737  1.3641
 8991TIP3   OH248387   1.829   3.676   1.537  0.3657  0.2055  0.5007
 8991TIP3    H148388   1.866   3.734   1.470 -0.5022 -0.7487 -0.8454
 8991TIP3    H248389   1.743   3.715   1.556 -0.3370 -0.7755 -0.6117
 8992TIP3   OH248390   1.820   6.688  13.144 -0.4200 -0.0311 -0.2508
 8992TIP3    H148391   1.819   6.752  13.216 -0.8887  0.2734 -0.5241
 8992TIP3    H248392   1.870   6.614  13.178  0.2756  0.5594  0.0063
 8993TIP3   OH248393   4.374   2.496  13.089 -0.0292 -0.3476 -0.0556
 8993TIP3    H148394   4.362   2.408  13.053  1.2040 -0.1741 -0.9423
 8993TIP3    H248395   4.296   2.544  13.063 -0.1001 -0.8122 -0.7031
 8994TIP3   OH248396   3.332   0.037   3.550 -0.3585  0.7554 -0.1937
 8994TIP3    H148397   3.351  -0.050   3.587  2.6614  1.9840  1.3519
 8994TIP3    H248398   3.292   0.019   3.465  1.2309 -2.1836 -0.3805
 8995TIP3   OH248399   3.323   3.601   0.867  0.1401 -0.3281 -0.5051
 8995TIP3    H148400   3.316   3.526   0.926 -0.3935 -1.2407 -1.7016
 8995TIP3    H248401   3.399   3.650   0.900 -0.1637 -0.7951  0.9465
 8996TIP3   OH248402   4.584   3.615   5.324 -0.0612 -0.4629  0.3026
 8996TIP3    H148403   4.575   3.706   5.351  1.7397 -0.0954 -0.2492
 8996TIP3    H248404   4.546   3.612   5.236  3.2274  0.6306 -1.2275
 8997TIP3   OH248405   0.054   3.863   2.407  0.1646 -0.6202 -0.3865
 8997TIP3    H148406   0.018   3.873   2.319 -1.2864  0.5384  0.3165
 8997TIP3    H248407   0.125   3.927   2.412 -0.6932  0.3298 -0.2433
 8998TIP3   OH248408   5.261   3.824  11.831  0.1389 -0.3706 -0.0173
 8998TIP3    H148409   5.348   3.803  11.796  0.2353  2.6327 -1.7301
 8998TIP3    H248410   5.208   3.841  11.753 -0.8692  1.9050  1.1443
 8999TIP3   OH248411   6.680   5.630   4.888  0.2894  0.2631 -0.3526
 8999TIP3    H148412   6.713   5.682   4.815  1.9492  0.6953  0.6723
 8999TIP3    H248413   6.704   5.681   4.966  2.0544 -2.0745  0.6919
 9000TIP3   OH248414   0.624   4.544  13.988 -0.8631 -0.1164 -0.2692
 9000TIP3    H148415   0.583   4.507  13.910 -1.5839  0.7462 -0.3063
 9000TIP3    H248416   0.551   4.565  14.046 -0.2967 -1.4711  0.9707
 9001TIP3   OH248417   3.029   3.793  12.925 -0.0365 -0.4931 -0.2448
 9001TIP3    H148418   3.053   3.710  12.966  0.3598  0.6143  1.8193
 9001TIP3    H248419   2.934   3.795  12.930  0.0920  0.5611  2.5675
 9002TIP3   OH248420   2.620   0.934   0.841  0.3545 -0.3373 -0.1507
 9002TIP3    H148421   2.618   0.980   0.757 -0.9307  1.4161  0.8112
 9002TIP3    H248422   2.613   1.004   0.906  2.5219 -1.5728  1.4566
 9003TIP3   OH248423   2.408   6.004   0.912 -0.0968  0.7495  0.6016
 9003TIP3    H148424   2.438   6.049   0.991 -2.1197  2.1059  0.6496
 9003TIP3    H248425   2.327   5.960   0.938 -1.2021  1.8320 -0.8699
 9004TIP3   OH248426   4.731   0.615   5.588  0.1168  0.1676  0.5810
 9004TIP3    H148427   4.718   0.593   5.680 -1.4812 -1.1822  0.0688
 9004TIP3    H248428   4.669   0.687   5.572 -0.5519 -0.4673  0.2616
 9005TIP3   OH248429   4.378   4.241   5.567  0.1641 -0.0447 -0.1558
 9005TIP3    H148430   4.394   4.218   5.475  1.4676  0.1629  0.0189
 9005TIP3    H248431   4.463   4.231   5.610 -0.4300 -0.1135  1.0271
 9006TIP3   OH248432   2.103   4.853   5.162 -0.7803 -0.1347  0.0980
 9006TIP3    H148433   2.091   4.890   5.250  0.6883 -1.5022  0.8936
 9006TIP3    H248434   2.118   4.760   5.177 -1.6199 -0.5843 -1.6940
 9007TIP3   OH248435   3.419   5.725  11.789 -0.3681  0.3956  0.0690
 9007TIP3    H148436   3.399   5.713  11.696  1.0936  0.6139 -0.2945
 9007TIP3    H248437   3.507   5.763  11.790 -0.0471 -0.3221  1.5649
 9008TIP3   OH248438   6.394   3.646   3.795 -0.0757  0.6771 -0.3680
 9008TIP3    H148439   6.473   3.628   3.847 -0.6110 -0.9808 -0.0938
 9008TIP3    H248440   6.330   3.675   3.859 -0.5450 -0.7664 -0.1517
 9009TIP3   OH248441   2.385   4.099   2.098  0.1679 -0.2576  0.7850
 9009TIP3    H148442   2.461   4.136   2.144  0.7352 -0.1287 -0.2542
 9009TIP3    H248443   2.420   4.026   2.047 -0.6406 -1.0613  1.3586
 9010TIP3   OH248444   2.569   5.796   4.944 -0.0209  0.0869 -0.2164
 9010TIP3    H148445   2.506   5.839   5.002 -0.8598 -1.8241  0.3267
 9010TIP3    H248446   2.654   5.834   4.967 -0.7548  1.4857  0.1946
 9011TIP3   OH248447   4.070   5.190  14.533  0.0907  0.2568 -0.7513
 9011TIP3    H148448   4.037   5.194  14.443 -2.0929 -1.7259 -0.0770
 9011TIP3    H248449   4.161   5.164  14.523 -0.4430 -1.0853 -2.3558
 9012TIP3   OH248450   3.135   4.992  14.769  0.1194  0.7391 -0.5657
 9012TIP3    H148451   3.140   4.908  14.814  1.0476  1.7876  1.3568
 9012TIP3    H248452   3.044   4.998  14.739  0.0168 -0.8652 -0.5961
 9013TIP3   OH248453   6.355   0.620  11.443  0.0841 -0.4625  0.2277
 9013TIP3    H148454   6.307   0.698  11.471  2.1697  1.0957 -0.4823
 9013TIP3    H248455   6.438   0.624  11.490  1.5001 -0.5555 -2.2026
 9014TIP3   OH248456   0.571   2.175  10.716  0.0385 -0.0960  0.1005
 9014TIP3    H148457   0.492   2.205  10.670 -0.6207 -2.6690 -0.4953
 9014TIP3    H248458   0.547   2.179  10.809 -0.6638 -0.5159 -0.0561
 9015TIP3   OH248459   5.548   4.929   1.598 -0.1980  0.1844 -0.4946
 9015TIP3    H148460   5.590   5.015   1.599  2.1675 -0.9156 -0.5697
 9015TIP3    H248461   5.523   4.912   1.689  1.5744 -0.0673 -0.0316
 9016TIP3   OH248462   5.245   3.633   5.409 -0.3280 -0.3271  0.6063
 9016TIP3    H148463   5.310   3.610   5.475  0.7400  1.6932  0.3025
 9016TIP3    H248464   5.286   3.609   5.325 -0.4230 -0.0717  0.4856
 9017TIP3   OH248465   6.680   6.327   5.641  0.2429 -0.5297  0.4274
 9017TIP3    H148466   6.747   6.270   5.604  0.2300 -0.4159  0.2304
 9017TIP3    H248467   6.723   6.411   5.653  0.1356 -0.4579  0.3053
 9018TIP3   OH248468   3.277   3.389  14.642  0.3134 -0.2355 -0.2273
 9018TIP3    H148469   3.320   3.473  14.628 -0.1603  0.2020  0.8609
 9018TIP3    H248470   3.339   3.324  14.609  0.4395  0.5749 -1.5829
 9019TIP3   OH248471   2.667   0.209   6.175 -0.1411  0.1231  0.0856
 9019TIP3    H148472   2.709   0.129   6.142 -1.5263 -0.3513 -0.5774
 9019TIP3    H248473   2.656   0.264   6.098  0.7048  0.9236  0.5240
 9020TIP3   OH248474   6.327   3.681  10.693  0.3300  0.0296  0.9702
 9020TIP3    H148475   6.422   3.691  10.699  0.2782  1.1649 -0.1043
 9020TIP3    H248476   6.314   3.586  10.682  1.5917  0.2786 -3.4747
 9021TIP3   OH248477   3.870   1.876  10.628  0.2747 -0.2492  0.1607
 9021TIP3    H148478   3.941   1.934  10.601  1.4699 -0.7208  2.1609
 9021TIP3    H248479   3.904   1.788  10.611  0.1715 -0.4735  1.0878
 9022TIP3   OH248480   1.419   4.647   1.915  0.3446  0.3731  0.1348
 9022TIP3    H148481   1.461   4.620   1.997  0.1692 -1.4823 -0.3723
 9022TIP3    H248482   1.362   4.574   1.891  0.7644  0.6729 -1.9024
 9023TIP3   OH248483   0.537   4.200  12.278  0.3815 -0.0727  0.3385
 9023TIP3    H148484   0.505   4.261  12.345 -1.4110  0.7423 -1.2114
 9023TIP3    H248485   0.626   4.229  12.259  0.7199  0.0264  1.9351
 9024TIP3   OH248486   3.294   2.938   3.142  0.0402 -0.2993 -0.0168
 9024TIP3    H148487   3.367   2.906   3.195  0.8941 -0.4820 -1.2885
 9024TIP3    H248488   3.334   2.961   3.058 -1.0207  1.5178 -0.0503
 9025TIP3   OH248489   5.830   1.363  15.235  0.1843 -0.4303  0.0373
 9025TIP3    H148490   5.787   1.379  15.319 -0.1113 -1.0332  0.0030
 9025TIP3    H248491   5.922   1.348  15.257  0.4161  1.0088  0.0965
 9026TIP3   OH248492   3.267   6.660  10.734 -0.0212  0.2545 -0.0994
 9026TIP3    H148493   3.212   6.694  10.804 -1.3211 -2.0281  0.0277
 9026TIP3    H248494   3.310   6.738  10.698 -0.4120  1.6299  2.2720
 9027TIP3   OH248495   5.927   0.289  15.043  0.3587 -0.4641 -0.5493
 9027TIP3    H148496   5.950   0.214  15.097  1.0030 -0.1356 -0.3629
 9027TIP3    H248497   5.836   0.307  15.064  0.3491 -0.8867 -0.2296
 9028TIP3   OH248498   5.192   3.247   5.357 -0.5648 -0.2027 -0.2834
 9028TIP3    H148499   5.273   3.292   5.333  1.0247 -2.9968 -0.4899
 9028TIP3    H248500   5.187   3.253   5.452  0.4673 -0.8858 -0.1766
 9029TIP3   OH248501   1.952   5.860  11.007 -0.4062  0.2617 -0.3678
 9029TIP3    H148502   1.996   5.780  11.035 -1.1685 -0.5425 -1.4196
 9029TIP3    H248503   1.977   5.871  10.915 -0.7743  0.9120 -0.4006
 9030TIP3   OH248504   4.338   6.024  13.926 -0.8431  0.0794 -0.2785
 9030TIP3    H148505   4.428   6.009  13.899 -0.2989 -0.5463  1.7476
 9030TIP3    H248506   4.341   6.105  13.977 -1.9414  1.5660 -2.4931
 9031TIP3   OH248507   1.255   3.497  13.059  0.8412  0.1703  0.0385
 9031TIP3    H148508   1.334   3.540  13.090  1.4556 -2.3810  2.2006
 9031TIP3    H248509   1.285   3.435  12.993  0.2330  1.3040 -1.3500
 9032TIP3   OH248510   5.009   1.440   5.525  0.7518 -0.2606  0.5894
 9032TIP3    H148511   5.042   1.444   5.615 -0.5245 -1.5559  1.1428
 9032TIP3    H248512   5.075   1.389   5.478  1.3878  0.3552  0.8127
 9033TIP3   OH248513   5.814   1.029  11.828  0.3122 -0.3130  0.0627
 9033TIP3    H148514   5.748   0.968  11.859  0.3390  0.0433  0.8283
 9033TIP3    H248515   5.877   0.975  11.781  0.4142 -0.8850  0.8605
 9034TIP3   OH248516   6.374   3.138   3.173  0.8293 -0.3157 -0.4525
 9034TIP3    H148517   6.378   3.143   3.269  4.2107 -0.9917 -0.4952
 9034TIP3    H248518   6.280   3.129   3.154  0.1551 -1.1126  2.8189
 9035TIP3   OH248519   2.706   5.383  14.935 -0.0419  0.1970  0.1917
 9035TIP3    H148520   2.660   5.305  14.905  1.7766 -1.2781  1.1055
 9035TIP3    H248521   2.680   5.394  15.026 -0.0552  0.4766  0.1557
 9036TIP3   OH248522   4.606   4.736   1.017 -0.3594 -0.3386 -0.0920
 9036TIP3    H148523   4.696   4.768   1.016 -0.3999 -0.2717 -1.7495
 9036TIP3    H248524   4.601   4.683   1.097  0.9593  0.1732  0.3446
 9037TIP3   OH248525   1.219   1.546   3.444  0.2331 -0.1773 -0.5008
 9037TIP3    H148526   1.264   1.513   3.522  1.5858 -0.8275 -1.5208
 9037TIP3    H248527   1.250   1.636   3.434 -0.1206 -0.0178 -0.1532
 9038TIP3   OH248528   2.510   0.881   0.359 -0.2561 -0.4099 -0.0448
 9038TIP3    H148529   2.442   0.876   0.291 -0.9234 -1.6735  0.6836
 9038TIP3    H248530   2.582   0.929   0.318 -0.6829 -1.0737 -1.6159
 9039TIP3   OH248531   3.340   6.404  12.346 -0.3330 -0.2228 -0.1608
 9039TIP3    H148532   3.250   6.422  12.373 -0.1268 -0.3399  0.6139
 9039TIP3    H248533   3.368   6.332  12.402  1.2783  1.8119  1.7521
 9040TIP3   OH248534   5.009   4.803  14.573  0.1032 -0.0902 -0.1786
 9040TIP3    H148535   5.002   4.739  14.644 -3.6612 -2.2560 -2.3811
 9040TIP3    H248536   5.098   4.792  14.540  0.6217 -1.7880  1.6879
 9041TIP3   OH248537   6.069   6.619   6.504  0.3208  0.3961 -0.1544
 9041TIP3    H148538   5.994   6.574   6.464  0.2310 -0.2145  0.6865
 9041TIP3    H248539   6.144   6.564   6.482  0.6525  1.4392 -1.6976
 9042TIP3   OH248540   5.911   4.664   4.277 -0.6425 -0.3483  0.1963
 9042TIP3    H148541   5.970   4.721   4.326  1.0853 -3.4511  1.8217
 9042TIP3    H248542   5.957   4.647   4.195 -1.2754  0.7147 -0.4032
 9043TIP3   OH248543   4.664   0.169  15.826  0.1641 -0.5823 -0.1610
 9043TIP3    H148544   4.607   0.164  15.903  0.7318 -0.1124  0.2964
 9043TIP3    H248545   4.682   0.078  15.804  1.9620 -0.7445  1.7441
 9044TIP3   OH248546   6.758   0.220   0.989  0.9160  0.2083  0.3057
 9044TIP3    H148547   6.685   0.277   0.967  1.2976  0.3367 -0.6415
 9044TIP3    H248548   6.730   0.133   0.960  0.8664  0.1372  0.5622
 9045TIP3   OH248549   6.515   1.049   4.890  0.0541 -0.3700  0.2548
 9045TIP3    H148550   6.450   0.999   4.940 -1.4317 -0.3331 -1.5826
 9045TIP3    H248551   6.539   0.992   4.817  0.2176  0.6107 -0.4684
 9046TIP3   OH248552   3.298   4.890  11.354  0.3308 -0.0870  0.4933
 9046TIP3    H148553   3.376   4.899  11.409  0.0060  0.1481  0.9159
 9046TIP3    H248554   3.289   4.796  11.340  2.5978  0.0524 -2.3095
 9047TIP3   OH248555   1.175   2.161  11.689  0.6368  0.0527 -0.2823
 9047TIP3    H148556   1.117   2.149  11.614  0.5967 -0.2161 -0.2085
 9047TIP3    H248557   1.207   2.072  11.709  0.6385  0.1224  0.0251
 9048TIP3   OH248558   5.811   3.187   1.586 -0.1672  0.1108  0.6385
 9048TIP3    H148559   5.861   3.266   1.602 -1.1212  0.8123  0.2020
 9048TIP3    H248560   5.784   3.157   1.673  1.5679 -0.6678  0.9391
 9049TIP3   OH248561   1.446   2.865  11.661  0.7196 -0.2680  0.2315
 9049TIP3    H148562   1.358   2.893  11.688 -0.4359 -2.4285 -1.1670
 9049TIP3    H248563   1.490   2.946  11.637 -0.5086  0.9709  1.9872
 9050TIP3   OH248564   3.058   2.042   5.674 -0.4957  0.2575 -0.0643
 9050TIP3    H148565   3.022   2.036   5.762 -1.2480 -0.9074 -0.4432
 9050TIP3    H248566   3.056   2.135   5.653  0.5637  0.6511  1.5034
 9051TIP3   OH248567   5.124   1.798  11.373  0.4772  0.3288 -0.1195
 9051TIP3    H148568   5.063   1.730  11.401 -0.2035  0.8306 -0.3911
 9051TIP3    H248569   5.172   1.759  11.300  0.8377 -0.2461  0.4183
 9052TIP3   OH248570   1.315   0.611   2.075 -0.4478 -0.4563 -0.2197
 9052TIP3    H148571   1.244   0.584   2.133 -0.6089  0.7952  0.1764
 9052TIP3    H248572   1.296   0.703   2.055  2.4981  0.7319  2.0679
 9053TIP3   OH248573   0.437   6.019   0.910  0.6378 -0.1464 -0.1426
 9053TIP3    H148574   0.522   5.984   0.883  0.5918 -0.2271 -0.1809
 9053TIP3    H248575   0.387   5.943   0.940  0.2021 -0.2478 -1.1008
 9054TIP3   OH248576   2.572   4.199  15.055 -0.4936 -0.1551  0.0020
 9054TIP3    H148577   2.521   4.221  15.133 -3.5224  0.8741 -2.1744
 9054TIP3    H248578   2.594   4.106  15.066 -3.8014 -0.9350  0.5395
 9055TIP3   OH248579   6.024   5.501  13.139  0.7610 -0.2044 -0.5924
 9055TIP3    H148580   5.977   5.527  13.060  2.1209  1.7755 -0.7893
 9055TIP3    H248581   6.115   5.524  13.121  1.1963 -0.4269  1.2590
 9056TIP3   OH248582   5.072   0.168   4.347  0.1244 -0.0742  0.0460
 9056TIP3    H148583   5.137   0.136   4.285  0.0522 -0.1815  0.0283
 9056TIP3    H248584   4.995   0.189   4.295  0.4272  0.8355 -0.0474
 9057TIP3   OH248585   6.571   6.167  17.063  0.1943  0.2860 -0.3426
 9057TIP3    H148586   6.659   6.181  17.099  0.0610 -1.5572  0.7803
 9057TIP3    H248587   6.553   6.075  17.081 -1.8941  0.6086 -0.7326
 9058TIP3   OH248588   1.781   3.505  16.381 -0.1378  0.2345 -0.1131
 9058TIP3    H148589   1.726   3.504  16.459  0.3172 -0.4048  0.2157
 9058TIP3    H248590   1.816   3.594  16.377  0.6047  0.0021  0.9741
 9059TIP3   OH248591   0.526   5.480  12.410 -1.0477 -0.5364 -0.3968
 9059TIP3    H148592   0.488   5.568  12.409  0.1960  0.0026 -2.6144
 9059TIP3    H248593   0.503   5.443  12.325  0.7183 -1.3446 -0.5427
 9060TIP3   OH248594   2.169   1.810   6.312  0.0596  0.1119 -0.6831
 9060TIP3    H148595   2.093   1.853   6.351 -0.8200 -1.1351 -0.9890
 9060TIP3    H248596   2.144   1.717   6.306  1.7645 -0.3833 -0.4046
 9061TIP3   OH248597   0.410   5.093   3.626 -0.1454  0.0648  0.3137
 9061TIP3    H148598   0.393   5.174   3.674  0.7260  1.4548 -1.6262
 9061TIP3    H248599   0.503   5.077   3.637 -0.2244 -0.3992  0.3041
 9062TIP3   OH248600   1.448   6.092  11.339 -0.1189 -0.1737  0.2382
 9062TIP3    H148601   1.476   6.056  11.255 -0.3038  2.9593 -1.2125
 9062TIP3    H248602   1.371   6.040  11.363 -0.5150 -0.6237 -1.9124
 9063TIP3   OH248603   4.660   6.126   1.194 -0.7009  0.3152  0.0039
 9063TIP3    H148604   4.734   6.118   1.253 -1.1574 -0.3897  0.4921
 9063TIP3    H248605   4.601   6.054   1.219 -1.4256  0.7074 -0.5410
 9064TIP3   OH248606   2.825   4.304  13.178 -0.0845  0.0734  0.1163
 9064TIP3    H148607   2.826   4.367  13.250 -0.2948  0.8773 -0.5710
 9064TIP3    H248608   2.735   4.304  13.147 -0.4037 -1.5854  0.9731
 9065TIP3   OH248609   5.273   6.078   0.876  0.2283  0.5082 -0.0154
 9065TIP3    H148610   5.238   6.158   0.835  2.0712  0.6885 -1.2666
 9065TIP3    H248611   5.301   6.107   0.963 -1.2717  0.6868  0.4394
 9066TIP3   OH248612   5.646   2.794  11.410 -0.2597  0.6351 -0.0216
 9066TIP3    H148613   5.682   2.742  11.482 -0.2923  2.0032  1.0090
 9066TIP3    H248614   5.679   2.752  11.331 -0.4962 -1.0826  0.7828
 9067TIP3   OH248615   4.545   0.846  13.746  0.5243 -0.4608  0.0232
 9067TIP3    H148616   4.564   0.799  13.665 -0.6987 -1.7365  0.4496
 9067TIP3    H248617   4.576   0.935  13.730 -1.2619 -0.2387 -2.4950
 9068TIP3   OH248618   4.415   6.680   4.158  0.5321  0.1325  0.1361
 9068TIP3    H148619   4.406   6.655   4.250  0.9207  1.7741  0.6288
 9068TIP3    H248620   4.367   6.763   4.151 -0.6845 -0.6664 -1.4583
 9069TIP3   OH248621   1.051   6.490   6.578 -0.4436  0.0528  0.3300
 9069TIP3    H148622   1.039   6.427   6.648  0.1979  1.4236  1.7008
 9069TIP3    H248623   1.079   6.570   6.622 -1.1304  1.2732 -1.3765
 9070TIP3   OH248624   3.593   5.684  15.723 -0.1888  0.3874 -0.0841
 9070TIP3    H148625   3.671   5.695  15.777 -0.6735 -1.7888  1.1364
 9070TIP3    H248626   3.524   5.730  15.770 -0.0206  0.8307 -0.2689
 9071TIP3   OH248627   2.339   6.549  14.065  0.3173 -0.1403 -0.6404
 9071TIP3    H148628   2.379   6.594  13.991  0.8799 -0.8677 -0.7862
 9071TIP3    H248629   2.391   6.469  14.076  1.6272  0.9843  1.9167
 9072TIP3   OH248630   4.700   3.073  12.041 -0.5390 -0.1772  0.3889
 9072TIP3    H148631   4.747   3.032  11.969  0.7404  0.8340  0.6242
 9072TIP3    H248632   4.768   3.094  12.105 -1.7022 -1.4050  2.0746
 9073TIP3   OH248633   2.324   4.524   0.074  0.3709 -0.1454 -0.7711
 9073TIP3    H148634   2.371   4.464   0.132  2.4342 -0.4701 -2.7328
 9073TIP3    H248635   2.263   4.570   0.132  1.0096 -1.8361  1.3081
 9074TIP3   OH248636   6.658   5.633  11.270 -1.2093 -0.2126  0.7528
 9074TIP3    H148637   6.609   5.687  11.208  0.5728  0.3927 -0.1834
 9074TIP3    H248638   6.660   5.546  11.230  1.2581  0.5325 -0.8724
 9075TIP3   OH248639   5.899   0.023   0.022 -0.1926 -0.5624  0.1859
 9075TIP3    H148640   5.874   0.035  -0.070  0.0835 -0.6343  0.0990
 9075TIP3    H248641   5.836   0.075   0.071  0.4230  0.4716 -0.1223
 9076TIP3   OH248642   0.005   2.876  17.181  0.4005  0.1450 -0.3486
 9076TIP3    H148643  -0.007   2.796  17.232 -3.1360  0.7320 -0.1682
 9076TIP3    H248644   0.017   2.945  17.246  0.4604  0.2145 -0.4342
 9077TIP3   OH248645   5.678   4.544  14.146  0.1475  0.3614  0.1191
 9077TIP3    H148646   5.671   4.484  14.072 -0.5246  1.5615 -0.8071
 9077TIP3    H248647   5.746   4.506  14.201 -1.9624 -2.6423  0.8495
 9078TIP3   OH248648   6.314   3.134  10.568 -0.5125  0.0739 -0.2440
 9078TIP3    H148649   6.285   3.099  10.652 -0.1195 -0.8739 -0.4999
 9078TIP3    H248650   6.344   3.057  10.519  2.1017  0.9614 -0.1174
 9079TIP3   OH248651   1.529   5.472  16.978  0.2206 -0.1753 -0.2383
 9079TIP3    H148652   1.495   5.553  17.016 -1.9108 -1.5426  0.8853
 9079TIP3    H248653   1.584   5.434  17.047 -0.2510 -0.5872 -0.0891
 9080TIP3   OH248654   4.804   6.484   2.413  0.2527 -0.0962 -0.6106
 9080TIP3    H148655   4.900   6.486   2.414  0.2278  1.9118 -0.5586
 9080TIP3    H248656   4.779   6.568   2.375 -1.5176 -0.1290  0.4376
 9081TIP3   OH248657   3.362   4.414  16.860  0.0746 -0.3948 -0.0243
 9081TIP3    H148658   3.321   4.484  16.809  0.9032 -0.1158 -0.3147
 9081TIP3    H248659   3.453   4.444  16.872  0.0269 -0.7142  1.1395
 9082TIP3   OH248660   1.860   0.755  16.320  0.1532 -0.1891 -0.0996
 9082TIP3    H148661   1.882   0.663  16.304  1.9297  0.3341 -0.7687
 9082TIP3    H248662   1.879   0.798  16.237  1.8751  1.2260  1.0089
 9083TIP3   OH248663   5.519   4.495   2.883  0.0863 -0.3487  0.0673
 9083TIP3    H148664   5.553   4.437   2.815  0.2455 -1.6395  1.2165
 9083TIP3    H248665   5.439   4.452   2.913 -0.1943  0.4093  0.4138
 9084TIP3   OH248666   0.864   3.667   2.273 -0.4320 -0.1592  0.0158
 9084TIP3    H148667   0.809   3.601   2.231 -0.0907 -0.3432 -0.1426
 9084TIP3    H248668   0.954   3.638   2.257 -0.2909 -0.1200  0.6891
 9085TIP3   OH248669   0.858   6.576  13.833  0.3441 -0.0608  0.3354
 9085TIP3    H148670   0.800   6.552  13.760  0.3708  2.3638 -0.5320
 9085TIP3    H248671   0.941   6.597  13.791  0.5507  0.7101  1.1246
 9086TIP3   OH248672   4.661   2.395   2.581 -0.0555  0.3921 -0.0181
 9086TIP3    H148673   4.694   2.320   2.630  0.9860  1.4904  1.0080
 9086TIP3    H248674   4.604   2.441   2.642 -1.7785 -0.2799 -1.0795
 9087TIP3   OH248675   0.441   3.259  16.808 -0.1345  0.6400  0.3360
 9087TIP3    H148676   0.455   3.227  16.897 -1.1795 -0.4789  0.1222
 9087TIP3    H248677   0.411   3.181  16.760  0.2949  1.2657 -0.9546
 9088TIP3   OH248678   6.586   6.676  13.605  0.5341  0.8717 -0.1853
 9088TIP3    H148679   6.587   6.671  13.510  1.3348  1.0302 -0.1888
 9088TIP3    H248680   6.532   6.752  13.625 -0.1319  0.4798 -0.4973
 9089TIP3   OH248681   3.015   4.126  16.442 -0.0531  0.1137 -0.3375
 9089TIP3    H148682   2.983   4.040  16.467  0.6424 -0.6255 -1.9359
 9089TIP3    H248683   3.044   4.166  16.524  0.7421 -1.6390  0.2343
 9090TIP3   OH248684   3.563   2.732  15.405  0.1170 -0.3110  0.1111
 9090TIP3    H148685   3.611   2.719  15.487 -1.6132  0.3760  1.2698
 9090TIP3    H248686   3.561   2.645  15.364 -0.4785 -1.0392  1.6454
 9091TIP3   OH248687   5.193   4.684   3.084 -0.0283 -0.1132 -0.1909
 9091TIP3    H148688   5.103   4.712   3.096 -0.0736 -0.9061  1.4996
 9091TIP3    H248689   5.214   4.636   3.164  1.6029 -0.7047 -0.9446
 9092TIP3   OH248690   6.518   2.882   4.064  0.1732 -0.8783 -0.8038
 9092TIP3    H148691   6.602   2.926   4.050  1.2718 -2.7882 -0.3794
 9092TIP3    H248692   6.499   2.897   4.157 -0.4503  0.3601 -1.1161
 9093TIP3   OH248693   1.231   6.668  16.833 -0.5195 -0.5898 -0.4621
 9093TIP3    H148694   1.252   6.745  16.781  1.0961 -0.5843  0.1719
 9093TIP3    H248695   1.190   6.702  16.912  2.6191 -0.1157  1.0697
 9094TIP3   OH248696   6.118   1.420   0.252  0.0238 -0.3834  0.7562
 9094TIP3    H148697   6.111   1.504   0.206 -0.1171 -0.6567  0.2814
 9094TIP3    H248698   6.098   1.442   0.343 -1.7390 -0.1917  0.3516
 9095TIP3   OH248699   4.338   4.354  15.563  0.3262  0.0285 -0.1267
 9095TIP3    H148700   4.302   4.425  15.615 -3.4312 -2.9474  1.5628
 9095TIP3    H248701   4.336   4.386  15.473 -0.9905  2.1581  0.6438
 9096TIP3   OH248702   3.407   4.505  14.674 -0.2644  0.4345  0.7251
 9096TIP3    H148703   3.416   4.534  14.583  1.4495 -0.6380  0.5326
 9096TIP3    H248704   3.355   4.425  14.669  0.9463 -0.3590  0.5281
 9097TIP3   OH248705   4.395   0.602   3.714  0.3256 -0.2909 -0.0842
 9097TIP3    H148706   4.366   0.657   3.787  1.5822  1.3969 -0.8272
 9097TIP3    H248707   4.392   0.513   3.749  2.0196  0.5817  2.4205
 9098TIP3   OH248708   5.815   4.993   4.920  0.6517 -0.9244  0.9876
 9098TIP3    H148709   5.819   4.976   4.826  0.7886  0.7597  0.6754
 9098TIP3    H248710   5.790   4.908   4.958  1.8548 -1.9445 -0.4284
 9099TIP3   OH248711   0.079   5.476   5.033 -0.0279  0.0941  0.7771
 9099TIP3    H148712   0.000   5.439   4.993  1.1912 -0.4993 -1.1513
 9099TIP3    H248713   0.071   5.570   5.017 -0.3992  0.0473  0.6755
 9100TIP3   OH248714   1.387   5.605   4.539  0.1952  0.7657 -0.0353
 9100TIP3    H148715   1.313   5.658   4.511 -0.2521  1.0135  1.5505
 9100TIP3    H248716   1.442   5.596   4.461 -1.4484  0.6631 -1.1886
 9101TIP3   OH248717   1.228   5.467   3.322 -0.5260  0.5832 -0.1656
 9101TIP3    H148718   1.221   5.529   3.250 -0.8412 -0.8090 -1.3669
 9101TIP3    H248719   1.301   5.499   3.375 -1.1718  2.3792 -0.3312
 9102TIP3   OH248720   6.067   5.202  13.022 -0.2454  0.3051 -0.5363
 9102TIP3    H148721   6.013   5.281  13.028  0.1805  0.6759 -1.4667
 9102TIP3    H248722   6.155   5.231  13.044 -0.6928 -0.6632  2.8053
 9103TIP3   OH248723   3.591   1.213  13.670  0.0487 -0.0016 -0.2511
 9103TIP3    H148724   3.540   1.167  13.737  0.5032 -0.5834 -0.3101
 9103TIP3    H248725   3.650   1.147  13.634  1.9587  1.0054  0.9193
 9104TIP3   OH248726   2.789   3.282   5.665  0.1361 -0.5629  0.0789
 9104TIP3    H148727   2.726   3.225   5.621  0.2099  0.3957 -1.3010
 9104TIP3    H248728   2.827   3.334   5.595 -0.2398  1.4774  1.3492
 9105TIP3   OH248729   1.931   1.076  13.388 -0.6234 -0.6187 -0.8106
 9105TIP3    H148730   2.017   1.106  13.359 -0.2204 -2.6599 -1.8111
 9105TIP3    H248731   1.876   1.154  13.383  1.2095  0.7897  0.0957
 9106TIP3   OH248732   3.561   0.669   3.507  0.4682 -0.2361 -0.2179
 9106TIP3    H148733   3.580   0.593   3.452 -0.1373 -0.6638  0.1695
 9106TIP3    H248734   3.509   0.726   3.451 -1.0791 -1.1582  0.2581
 9107TIP3   OH248735   6.300   1.317   3.131 -0.4608  0.5185  0.3456
 9107TIP3    H148736   6.377   1.261   3.119 -0.4054  0.2324  1.8900
 9107TIP3    H248737   6.238   1.287   3.065  0.6056  0.4999 -0.6684
 9108TIP3   OH248738   0.804   3.020  15.741  0.1526 -0.2576  0.6160
 9108TIP3    H148739   0.739   3.088  15.723 -0.2984 -0.2026  2.3705
 9108TIP3    H248740   0.754   2.939  15.744  0.4235 -0.4352  0.2247
 9109TIP3   OH248741   0.974   1.030   1.833  0.2935  0.5234  0.3590
 9109TIP3    H148742   1.038   1.100   1.820  0.2542  0.2106 -1.6999
 9109TIP3    H248743   0.915   1.038   1.758 -0.2146 -1.1703  0.5740
 9110TIP3   OH248744   6.161   5.480  15.883  0.3260 -0.2152  0.3511
 9110TIP3    H148745   6.141   5.565  15.923 -1.0547 -0.8687  1.0611
 9110TIP3    H248746   6.247   5.493  15.842 -0.6231  2.0255 -1.0014
 9111TIP3   OH248747   4.955   0.354  13.792 -0.0890 -0.4584  0.3607
 9111TIP3    H148748   5.048   0.369  13.813 -0.0443  0.9786 -0.7492
 9111TIP3    H248749   4.908   0.417  13.847 -0.3138 -0.3691  0.0687
 9112TIP3   OH248750   0.737   1.213  10.465 -0.0010  0.1254 -0.3625
 9112TIP3    H148751   0.662   1.254  10.421 -1.5786 -1.2336  1.0364
 9112TIP3    H248752   0.755   1.134  10.414  0.4048  0.3773 -0.6140
 9113TIP3   OH248753   0.227   4.721  14.438  0.6589 -0.0554  0.6083
 9113TIP3    H148754   0.221   4.628  14.459 -1.4880  0.1601  1.0345
 9113TIP3    H248755   0.321   4.736  14.426  1.0235 -2.2950  0.3638
 9114TIP3   OH248756   4.043   6.727   0.047  0.3681 -0.2429 -0.1424
 9114TIP3    H148757   4.009   6.665   0.111 -0.4068 -0.7561 -1.0244
 9114TIP3    H248758   4.092   6.791   0.098 -0.4910 -0.4681  0.9841
 9115TIP3   OH248759   2.663   6.572  12.658  0.1964 -0.7446  0.3108
 9115TIP3    H148760   2.617   6.566  12.575 -0.3521  0.7172  0.4868
 9115TIP3    H248761   2.609   6.523  12.720  1.3604 -3.0938 -0.4710
 9116TIP3   OH248762   3.651   2.490   3.670 -0.3989  0.8897 -0.5742
 9116TIP3    H148763   3.747   2.489   3.680 -0.5405  1.3204  1.0183
 9116TIP3    H248764   3.619   2.455   3.753 -1.6245  0.7322 -1.1173
 9117TIP3   OH248765   5.045   3.900  15.000 -0.2162 -0.3290  0.0976
 9117TIP3    H148766   5.071   3.815  15.036  1.5150 -0.1906 -0.7697
 9117TIP3    H248767   4.953   3.889  14.977 -0.9255 -0.9376  2.9756
 9118TIP3   OH248768   6.754   6.682   6.100  0.0422  0.0833  0.6265
 9118TIP3    H148769   6.790   6.593   6.099  2.5544  1.0686 -1.0674
 9118TIP3    H248770   6.684   6.678   6.165 -1.1851 -3.6205 -0.7338
 9119TIP3   OH248771   2.306   3.889  15.223 -0.5424 -0.1570 -0.2662
 9119TIP3    H148772   2.254   3.911  15.300 -1.8909 -1.3067 -0.8335
 9119TIP3    H248773   2.360   3.815  15.252 -1.2599 -0.7767 -0.5157
 9120TIP3   OH248774   1.096   6.763   6.675  0.0247 -0.0629 -0.4512
 9120TIP3    H148775   1.034   6.824   6.716 -1.4453 -0.6677 -1.6851
 9120TIP3    H248776   1.177   6.813   6.665 -1.4337  2.0512 -2.3201
 9121TIP3   OH248777   6.257   0.350  15.735  0.8314  0.3284 -0.1010
 9121TIP3    H148778   6.210   0.395  15.805 -0.1711 -0.0384 -0.5225
 9121TIP3    H248779   6.241   0.403  15.657 -0.6577 -0.9114 -0.6703
 9122TIP3   OH248780   0.321   1.124   4.129  0.1629 -0.2838  0.6422
 9122TIP3    H148781   0.317   1.203   4.076  0.5053  0.2500  1.4085
 9122TIP3    H248782   0.356   1.153   4.213 -1.4219 -0.9149  1.5488
 9123TIP3   OH248783   0.210   5.685   5.749 -0.4992 -0.2852 -0.3137
 9123TIP3    H148784   0.146   5.685   5.820 -1.3415  0.5158 -1.0735
 9123TIP3    H248785   0.160   5.665   5.670  0.4222 -1.0996 -0.7114
 9124TIP3   OH248786   2.550   3.397  13.138  0.3893  0.4454 -0.2370
 9124TIP3    H148787   2.598   3.315  13.127 -0.9910 -0.4493  0.2391
 9124TIP3    H248788   2.594   3.441  13.209  0.6992 -0.2371  0.0007
 9125TIP3   OH248789   4.950   0.621   3.149  0.3709  0.4731  0.2353
 9125TIP3    H148790   4.916   0.559   3.085  0.8234  0.7100 -0.2349
 9125TIP3    H248791   4.873   0.665   3.184  0.2487  1.5342 -1.3512
 9126TIP3   OH248792   2.901   2.401  13.896  0.0616  0.3354 -1.1227
 9126TIP3    H148793   2.819   2.448  13.882 -0.4679 -0.3889 -0.5220
 9126TIP3    H248794   2.874   2.316  13.931  1.1507  0.6288  0.4471
 9127TIP3   OH248795   4.932   5.772   1.500  0.5989 -0.0467  0.4557
 9127TIP3    H148796   4.951   5.710   1.571  2.3051  0.4191  0.4185
 9127TIP3    H248797   4.991   5.746   1.430 -0.7069 -0.1668 -0.6234
 9128TIP3   OH248798   5.371   4.188  15.050  0.4940 -0.1521  0.8019
 9128TIP3    H148799   5.418   4.194  15.133  2.4334 -0.9849 -0.1928
 9128TIP3    H248800   5.414   4.254  14.995  0.5164 -0.9335 -0.1270
 9129TIP3   OH248801   5.978   6.360   1.195  0.2729 -0.5796  0.4393
 9129TIP3    H148802   5.997   6.317   1.111  1.1738  0.7647 -0.0667
 9129TIP3    H248803   5.947   6.289   1.252  4.4276 -2.5042  0.5022
 9130TIP3   OH248804   4.145   1.887   5.555 -0.0445  0.2789  0.2620
 9130TIP3    H148805   4.216   1.926   5.606 -0.6910  2.2241 -0.2926
 9130TIP3    H248806   4.185   1.869   5.470  0.1636  0.0273  0.4104
 9131TIP3   OH248807   6.001   6.552  16.535  0.5568  0.3811 -0.5337
 9131TIP3    H148808   6.093   6.567  16.514  0.3457 -0.2728 -2.0003
 9131TIP3    H248809   5.956   6.631  16.503  0.5765  0.5799 -0.0683
 9132TIP3   OH248810   1.671   2.999   3.875 -0.6127 -0.3095  0.0012
 9132TIP3    H148811   1.660   3.093   3.890 -0.1376 -0.2900  0.2478
 9132TIP3    H248812   1.607   2.978   3.808  0.4707  0.5571 -1.3513
 9133TIP3   OH248813   3.956   2.402   2.822  0.0127 -0.3449 -0.3435
 9133TIP3    H148814   4.038   2.442   2.796 -1.6065  1.1951 -3.3781
 9133TIP3    H248815   3.931   2.347   2.747 -3.3180  1.8086 -0.9032
 9134TIP3   OH248816   4.150   4.043   5.399 -0.6414 -0.1665  0.0979
 9134TIP3    H148817   4.106   4.050   5.315 -0.3076 -0.0719 -0.0688
 9134TIP3    H248818   4.193   3.958   5.397  0.9403  0.6050 -0.5935
 9135TIP3   OH248819   4.066   2.329  16.331 -0.6476  0.1291 -0.3983
 9135TIP3    H148820   4.026   2.261  16.277 -2.4564 -1.6685  2.9889
 9135TIP3    H248821   3.992   2.383  16.360  0.0919  0.2678  1.3047
 9136TIP3   OH248822   0.321   4.969   6.367 -0.6388  0.3129 -0.2882
 9136TIP3    H148823   0.386   5.028   6.405  2.1712 -1.8619 -1.5271
 9136TIP3    H248824   0.252   5.026   6.335  0.1121  2.6285  2.0624
 9137TIP3   OH248825   2.474   1.784   0.225 -0.0861  0.1697  0.4025
 9137TIP3    H148826   2.420   1.849   0.180 -0.5725  0.7910  1.8480
 9137TIP3    H248827   2.524   1.741   0.156 -0.9977  0.9416 -0.7412
 9138TIP3   OH248828   5.761   4.097  13.737  0.2191 -0.2823 -0.1952
 9138TIP3    H148829   5.775   4.034  13.666  0.2932  1.4174 -1.7054
 9138TIP3    H248830   5.669   4.122  13.729  0.6576  1.1795 -0.7513
 9139TIP3   OH248831   4.333   4.289   3.980 -0.0915 -0.0594 -0.3780
 9139TIP3    H148832   4.378   4.325   4.056 -0.6624 -1.1274  0.4901
 9139TIP3    H248833   4.283   4.363   3.944  0.9435  0.6832 -0.3017
 9140TIP3   OH248834   0.773   4.916  17.020  0.1628  0.0739  0.0797
 9140TIP3    H148835   0.704   4.858  16.989  0.2393 -0.8242  1.5110
 9140TIP3    H248836   0.777   4.985  16.955 -0.6746 -0.9550 -1.1063
 9141TIP3   OH248837   0.189   6.685  11.081 -0.5016  0.0041  0.2750
 9141TIP3    H148838   0.192   6.708  10.988  2.2846 -0.8259  0.0990
 9141TIP3    H248839   0.164   6.766  11.125 -3.2423  0.0543 -1.2733
 9142TIP3   OH248840   4.030   0.657   4.824 -0.2544 -0.3158  0.4446
 9142TIP3    H148841   4.105   0.602   4.843 -0.5108 -0.5239  0.8651
 9142TIP3    H248842   3.962   0.626   4.884 -1.0453 -0.9177 -0.7457
 9143TIP3   OH248843   0.804   3.921   0.337  0.2098  0.1896  0.3083
 9143TIP3    H148844   0.881   3.977   0.328 -0.7975  1.5266 -0.2292
 9143TIP3    H248845   0.738   3.977   0.377 -0.5467 -0.8816  0.5892
 9144TIP3   OH248846   6.000   2.966  11.538 -0.0726  0.1940 -0.0186
 9144TIP3    H148847   5.959   3.045  11.574 -1.4534 -0.3967 -0.2629
 9144TIP3    H248848   6.068   2.999  11.479 -0.5227  1.1924  0.0105
 9145TIP3   OH248849   0.798   2.144  11.948 -0.1384 -0.0712 -0.2605
 9145TIP3    H148850   0.815   2.179  12.035  1.5760 -0.3591 -0.4550
 9145TIP3    H248851   0.768   2.054  11.963 -1.8478  0.5448  0.1098
 9146TIP3   OH248852   4.517   2.666   3.674  0.6620  0.0988  0.7035
 9146TIP3    H148853   4.481   2.743   3.717 -1.3278 -0.6898  0.4890
 9146TIP3    H248854   4.443   2.627   3.628  1.7823 -1.5906  0.2843
 9147TIP3   OH248855   4.132   3.834  15.270 -0.8401 -0.1628  0.2270
 9147TIP3    H148856   4.076   3.881  15.208 -0.9756 -0.2089  0.3145
 9147TIP3    H248857   4.206   3.803  15.217  0.5967  2.4029  0.6629
 9148TIP3   OH248858   0.684   0.507   1.068  0.1994 -0.0270  0.4112
 9148TIP3    H148859   0.701   0.418   1.099  0.2964  0.3599  1.4837
 9148TIP3    H248860   0.706   0.504   0.975  1.2274 -0.8571  0.6651
 9149TIP3   OH248861   6.272   0.923   1.800 -0.0077  0.0017  0.0099
 9149TIP3    H148862   6.194   0.910   1.747 -0.8247  1.5190  0.7924
 9149TIP3    H248863   6.319   0.840   1.796 -0.9486 -0.4627 -1.6139
 9150TIP3   OH248864   4.677   5.459   5.192 -0.5386  0.2704  0.0206
 9150TIP3    H148865   4.672   5.554   5.182  2.2488  0.3846 -0.8372
 9150TIP3    H248866   4.647   5.443   5.281  1.0922  2.2166  0.9785
 9151TIP3   OH248867   4.112   3.492   2.310 -0.1510 -0.2564 -0.4440
 9151TIP3    H148868   4.057   3.432   2.361 -0.8150 -0.9307 -1.9094
 9151TIP3    H248869   4.196   3.446   2.301 -0.1551 -0.2976 -0.2785
 9152TIP3   OH248870   3.277   0.377   0.237 -0.1810  0.1303  0.5257
 9152TIP3    H148871   3.287   0.469   0.262  2.0123 -0.4933  2.0743
 9152TIP3    H248872   3.359   0.355   0.193 -0.6052 -1.1525  0.3546
 9153TIP3   OH248873   0.683   3.180  14.356 -0.0917 -0.3866 -0.1654
 9153TIP3    H148874   0.679   3.220  14.269 -0.0916  0.6124  0.2830
 9153TIP3    H248875   0.666   3.087  14.340  2.8550 -0.7389 -1.5729
 9154TIP3   OH248876   5.293   6.345   2.135 -0.2237  0.3851  0.2083
 9154TIP3    H148877   5.296   6.286   2.211  1.0652 -1.1842 -1.0131
 9154TIP3    H248878   5.329   6.427   2.167  1.4786 -0.6387  0.9918
 9155TIP3   OH248879   1.494   6.040  11.043  0.4526 -0.4232 -0.0050
 9155TIP3    H148880   1.451   5.962  11.008 -1.2740  1.4827 -2.2682
 9155TIP3    H248881   1.566   6.058  10.982  0.9375 -0.3069  0.5904
 9156TIP3   OH248882   3.261   5.259   2.226 -0.2382  0.3494  1.0792
 9156TIP3    H148883   3.305   5.269   2.142  0.2105  0.9637  1.3819
 9156TIP3    H248884   3.185   5.204   2.207  0.3033 -0.1927  0.4308
 9157TIP3   OH248885   4.156   2.437   0.540 -0.0466 -0.3031  0.4692
 9157TIP3    H148886   4.100   2.396   0.605 -0.9548 -0.5768 -0.4656
 9157TIP3    H248887   4.218   2.368   0.515  2.5550  0.8069  3.5220
 9158TIP3   OH248888   0.415   0.973   2.047 -0.3405 -0.4534 -0.1600
 9158TIP3    H148889   0.483   1.019   1.997  0.3200 -0.5106  0.6636
 9158TIP3    H248890   0.460   0.945   2.127 -1.7996  1.0209  1.1899
 9159TIP3   OH248891   4.291   1.289  13.364  0.2079  0.6656 -0.5877
 9159TIP3    H148892   4.286   1.255  13.275  1.0193 -2.2523  0.4155
 9159TIP3    H248893   4.349   1.365  13.357  2.9013 -1.4349 -2.0561
 9160TIP3   OH248894   5.810   6.321   3.897  0.4590  0.2338 -0.2581
 9160TIP3    H148895   5.880   6.336   3.834 -1.3662  0.9721 -2.1519
 9160TIP3    H248896   5.784   6.230   3.882  1.3649 -0.2095  0.8200
 9161TIP3   OH248897   2.321   1.529   5.255  0.0930 -0.7231  0.2107
 9161TIP3    H148898   2.253   1.534   5.187 -0.4419  0.0777  0.8055
 9161TIP3    H248899   2.396   1.490   5.210 -0.2268 -0.1159 -0.8649
 9162TIP3   OH248900   4.663   5.860  15.002 -0.2280 -0.6035  0.2811
 9162TIP3    H148901   4.754   5.847  15.028 -0.8874 -2.7925  1.6139
 9162TIP3    H248902   4.665   5.857  14.906  0.8983 -2.2900  0.3419
 9163TIP3   OH248903   3.589   2.072  12.001  0.3242  0.0735 -0.3182
 9163TIP3    H148904   3.504   2.092  12.040  1.1240  2.3214  0.3172
 9163TIP3    H248905   3.569   2.054  11.909 -0.8876  0.1544 -0.0804
 9164TIP3   OH248906   2.099   3.408  12.658  0.0252  0.0945  0.1314
 9164TIP3    H148907   2.160   3.412  12.732 -0.5771  0.5266  0.5996
 9164TIP3    H248908   2.150   3.442  12.584  0.7367 -0.6479  0.2640
 9165TIP3   OH248909   0.245   6.389   5.824 -0.4457  0.0907 -0.0271
 9165TIP3    H148910   0.201   6.447   5.762  3.3817  1.2044 -1.8394
 9165TIP3    H248911   0.254   6.441   5.904 -0.8099  0.4501 -0.2168
 9166TIP3   OH248912   5.503   4.226  10.889 -0.4319  0.3026 -0.2368
 9166TIP3    H148913   5.493   4.214  10.794 -2.3341  0.7003 -0.0997
 9166TIP3    H248914   5.586   4.274  10.898 -0.4267  0.6130 -1.7247
 9167TIP3   OH248915   3.190   5.809  16.722  0.6584  0.7821 -0.5188
 9167TIP3    H148916   3.251   5.827  16.793 -0.1793  0.0328  0.4003
 9167TIP3    H248917   3.240   5.828  16.642  1.7638  1.1233  0.2464
 9168TIP3   OH248918   1.609   3.137  16.930 -0.5059 -0.3839  0.1915
 9168TIP3    H148919   1.605   3.224  16.969 -0.7705  0.1396 -0.9823
 9168TIP3    H248920   1.580   3.149  16.840  0.5889 -1.4895 -0.3272
 9169TIP3   OH248921   1.180   5.861  13.026 -0.0604  0.4152  0.4605
 9169TIP3    H148922   1.108   5.863  12.963  0.3566 -0.6120 -0.0537
 9169TIP3    H248923   1.188   5.769  13.050  1.3325  0.4758  0.2376
 9170TIP3   OH248924   6.028   6.503   0.283  0.1462  0.4431  0.1255
 9170TIP3    H148925   6.099   6.553   0.243  0.1934 -0.3053 -0.7356
 9170TIP3    H248926   5.953   6.517   0.225 -0.2309  0.6879  0.6680
 9171TIP3   OH248927   4.502   1.354  13.660 -0.3336  0.0923  0.0037
 9171TIP3    H148928   4.410   1.371  13.643 -0.4511 -0.1819  0.3483
 9171TIP3    H248929   4.532   1.432  13.707  0.1920  1.1939 -2.1337
 9172TIP3   OH248930   2.169   3.756  15.905 -0.4221  0.2135 -0.5734
 9172TIP3    H148931   2.128   3.797  15.829  1.5584  1.0622 -1.2055
 9172TIP3    H248932   2.240   3.815  15.929  0.8911 -1.5976  0.0657
 9173TIP3   OH248933   0.536   6.569   1.409  0.2472  0.0030  0.7399
 9173TIP3    H148934   0.540   6.496   1.471  2.5642  0.1333  0.7760
 9173TIP3    H248935   0.623   6.609   1.413 -0.5399  1.8897 -0.3482
 9174TIP3   OH248936   0.486   4.796   3.371  0.2953  0.2234 -0.0816
 9174TIP3    H148937   0.442   4.725   3.419  0.9428  0.3152  0.6486
 9174TIP3    H248938   0.487   4.765   3.280 -0.8287 -0.0010 -0.0288
 9175TIP3   OH248939   0.251   6.132   2.097  0.2635 -0.5773 -1.0677
 9175TIP3    H148940   0.173   6.125   2.153  0.9544  1.3947  0.2136
 9175TIP3    H248941   0.325   6.121   2.158  1.0169  0.7836 -1.7141
 9176TIP3   OH248942   4.493   0.882  16.223 -0.4515  0.0560 -0.5332
 9176TIP3    H148943   4.511   0.831  16.144 -0.0076 -1.1656  0.3372
 9176TIP3    H248944   4.578   0.895  16.264 -0.6936  0.5720 -0.1809
 9177TIP3   OH248945   5.361   0.325   1.306  0.1035  0.6732 -0.4921
 9177TIP3    H148946   5.404   0.279   1.234 -1.2318 -0.2945 -0.6947
 9177TIP3    H248947   5.293   0.377   1.265  1.0131  2.1389 -0.1644
 9178TIP3   OH248948   2.993   1.817   5.974 -0.3457  0.1324  0.7287
 9178TIP3    H148949   3.009   1.909   5.994 -0.7901  0.4092 -0.1842
 9178TIP3    H248950   2.899   1.806   5.984 -0.4027 -0.0246  0.0005
 9179TIP3   OH248951   6.215   4.220   2.008 -0.3105 -0.0362 -0.3978
 9179TIP3    H148952   6.140   4.177   2.048  0.3878  0.2915  1.3252
 9179TIP3    H248953   6.276   4.234   2.081  2.0978 -1.7103 -2.0275
 9180TIP3   OH248954   2.747   1.057  14.673  0.0831 -0.6952  0.4294
 9180TIP3    H148955   2.714   0.975  14.710  0.0669 -0.8493  0.0677
 9180TIP3    H248956   2.670   1.100  14.636  0.3206 -1.1677 -0.6356
 9181TIP3   OH248957   4.946   1.741  13.405 -0.2955  0.2762  0.1523
 9181TIP3    H148958   4.949   1.694  13.322 -2.2362  0.3765 -0.0043
 9181TIP3    H248959   5.031   1.724  13.446  0.0186 -1.1799 -1.0794
 9182TIP3   OH248960   2.867   4.325  10.629  0.1593  0.5193 -0.4305
 9182TIP3    H148961   2.818   4.391  10.579  0.9251  3.1738  2.1542
 9182TIP3    H248962   2.801   4.261  10.655 -0.3673 -0.5257 -4.1572
 9183TIP3   OH248963   3.400   0.589  16.994 -0.1331 -0.4056 -0.0309
 9183TIP3    H148964   3.449   0.509  16.976 -1.6987 -1.3033 -0.3876
 9183TIP3    H248965   3.308   0.564  16.983 -0.7565  0.9024  1.8973
 9184TIP3   OH248966   4.209   3.890   4.920  0.4343  0.0897 -0.6655
 9184TIP3    H148967   4.237   3.824   4.856 -0.7708  0.2943 -1.4147
 9184TIP3    H248968   4.114   3.881   4.924  0.5518 -0.6244  1.8634
 9185TIP3   OH248969   5.719   4.805   0.153  0.3412  0.2650 -0.0676
 9185TIP3    H148970   5.687   4.718   0.175  0.6578 -0.1059 -1.0418
 9185TIP3    H248971   5.801   4.813   0.202  1.2329 -0.6982 -1.3548
 9186TIP3   OH248972   5.016   0.403   2.273  0.2907  0.1886 -0.0349
 9186TIP3    H148973   5.016   0.309   2.296 -1.1655  0.0667 -0.5039
 9186TIP3    H248974   5.089   0.412   2.213 -0.2375 -0.8755 -0.8574
 9187TIP3   OH248975   4.141   4.402  16.545 -0.2880  0.1183 -0.3789
 9187TIP3    H148976   4.155   4.364  16.458 -0.1998  0.5608 -0.5615
 9187TIP3    H248977   4.208   4.361  16.600 -0.7410 -0.6243 -0.3771
 9188TIP3   OH248978   1.491   3.505  10.800 -0.2987  0.6191 -0.0715
 9188TIP3    H148979   1.568   3.558  10.779  0.0580  0.7472  1.4601
 9188TIP3    H248980   1.468   3.462  10.718  1.1755  0.8851 -0.6427
 9189TIP3   OH248981   1.855   0.433   0.233 -0.1867 -0.6309 -0.3184
 9189TIP3    H148982   1.950   0.432   0.246 -0.3400 -0.8840  0.7842
 9189TIP3    H248983   1.828   0.342   0.247 -0.6088 -0.5432 -0.5489
 9190TIP3   OH248984   4.552   2.087  16.033  0.3379  0.3016  0.4570
 9190TIP3    H148985   4.577   2.073  15.942  2.4204  1.3428  0.8192
 9190TIP3    H248986   4.567   2.003  16.075 -1.9756 -0.5745 -0.4158
 9191TIP3   OH248987   0.696   0.102  14.861 -0.0560 -0.2457 -0.5353
 9191TIP3    H148988   0.613   0.066  14.892 -0.5600 -0.7084 -2.3683
 9191TIP3    H248989   0.686   0.197  14.872 -0.0988 -0.4103  0.9594
 9192TIP3   OH248990   2.614   0.168  15.122 -0.1119  0.4211 -0.1056
 9192TIP3    H148991   2.638   0.106  15.053 -0.0583 -2.1792  2.1886
 9192TIP3    H248992   2.680   0.237  15.116  0.2634 -0.0863 -2.2132
 9193TIP3   OH248993   6.082   5.568  13.990 -0.4397  0.0518  0.0690
 9193TIP3    H148994   6.007   5.516  14.020 -1.1547  0.7568 -0.4585
 9193TIP3    H248995   6.133   5.584  14.069 -0.5091 -0.9848  0.3278
 9194TIP3   OH248996   1.982   5.822   1.720  0.2188 -0.1537  0.5032
 9194TIP3    H148997   1.916   5.785   1.661  1.0865 -2.0289  0.6651
 9194TIP3    H248998   2.053   5.849   1.663  0.1983 -0.0845  0.5102
 9195TIP3   OH248999   5.180   2.007   0.019 -0.7454  0.1682  0.0646
 9195TIP3    H149000   5.215   2.049  -0.059  0.3012 -1.0126 -0.1097
 9195TIP3    H249001   5.091   2.042   0.027 -0.0081  2.2012 -0.2265
 9196TIP3   OH249002   6.391   0.592  16.562  0.0974  0.1616  0.0502
 9196TIP3    H149003   6.382   0.670  16.616 -2.1405 -0.8707  1.2213
 9196TIP3    H249004   6.369   0.519  16.621  1.2921 -1.2904 -1.2476
 9197TIP3   OH249005   0.034   6.408   0.244 -0.5396  0.2110 -0.5472
 9197TIP3    H149006   0.124   6.375   0.246 -0.1524  1.3020  1.4064
 9197TIP3    H249007   0.027   6.463   0.321 -2.8579  0.2681 -0.7569
 9198TIP3   OH249008   6.531   4.120   0.122 -0.1670 -0.7699 -0.3790
 9198TIP3    H149009   6.611   4.116   0.174 -1.6565 -0.1275  2.0781
 9198TIP3    H249010   6.503   4.029   0.114  0.2554 -0.9068 -0.3181
 9199TIP3   OH249011   3.869   0.718   2.933 -0.3990 -0.5060  0.2429
 9199TIP3    H149012   3.819   0.636   2.933  1.5886 -1.7493  1.3521
 9199TIP3    H249013   3.959   0.691   2.915  0.1828  1.5111  0.0293
 9200TIP3   OH249014   2.724   2.963  11.223 -0.3815  0.0411 -0.2110
 9200TIP3    H149015   2.672   2.970  11.303  0.7543  1.3173  0.4363
 9200TIP3    H249016   2.679   2.897  11.171 -1.3173 -0.5830  1.3462
 9201TIP3   OH249017   3.482   6.146  13.964 -0.6081  0.1495 -0.1448
 9201TIP3    H149018   3.521   6.183  14.043  0.5018 -1.7117  0.2248
 9201TIP3    H249019   3.476   6.052  13.983 -3.2903  0.0885 -1.0457
 9202TIP3   OH249020   5.828   0.404  12.386 -0.3799  0.0878  0.0305
 9202TIP3    H149021   5.854   0.495  12.395  0.1793 -0.3133  2.7268
 9202TIP3    H249022   5.734   0.408  12.369 -0.3031  1.1732 -0.1885
 9203TIP3   OH249023   3.873   6.047   5.472 -0.3530  0.3367  0.2803
 9203TIP3    H149024   3.953   6.028   5.424  0.3105 -1.9475  2.1808
 9203TIP3    H249025   3.901   6.103   5.544 -0.5880  0.1971  0.4832
 9204TIP3   OH249026   5.083   0.051  11.627 -0.0934 -0.8557  0.3840
 9204TIP3    H149027   5.157   0.085  11.678 -0.3291  4.0847 -2.2142
 9204TIP3    H249028   5.006   0.084  11.672 -0.4686 -0.6124 -0.4309
 9205TIP3   OH249029   6.318   2.819  12.341  0.8039 -0.0029  0.1085
 9205TIP3    H149030   6.256   2.872  12.291  1.4522 -0.3318 -1.0589
 9205TIP3    H249031   6.400   2.826  12.292  1.4517 -0.3188  1.1346
 9206TIP3   OH249032   2.245   3.401   1.393 -0.0933 -0.0030 -0.1638
 9206TIP3    H149033   2.192   3.412   1.472 -1.3102 -0.4560 -0.9006
 9206TIP3    H249034   2.238   3.308   1.372  0.5499  0.0404 -0.5848
 9207TIP3   OH249035   2.751   2.446   4.904 -0.6284 -0.2416  0.2084
 9207TIP3    H149036   2.704   2.365   4.925  0.6541 -0.8906  0.6529
 9207TIP3    H249037   2.692   2.516   4.931 -0.8974 -1.0476  1.7522
 9208TIP3   OH249038   3.798   2.725   0.950  0.1655 -0.4343  0.2173
 9208TIP3    H149039   3.852   2.649   0.929 -1.0328 -2.5035  4.1607
 9208TIP3    H249040   3.708   2.693   0.944 -0.4390  1.2318 -0.0230
 9209TIP3   OH249041   0.317   6.225   5.461  0.0824  0.1959  0.2247
 9209TIP3    H149042   0.250   6.257   5.400  1.0712  1.0717 -0.4062
 9209TIP3    H249043   0.400   6.234   5.414  0.6734 -0.8191  1.0256
 9210TIP3   OH249044   4.125   3.635  11.988 -0.3538  0.5112  0.1565
 9210TIP3    H149045   4.185   3.622  12.062 -1.5713  0.7541  1.2086
 9210TIP3    H249046   4.121   3.730  11.978 -0.1660  0.4753 -0.2378
 9211TIP3   OH249047   3.570   4.857  14.745 -0.1878 -0.0502 -0.4389
 9211TIP3    H149048   3.517   4.853  14.665  0.3952 -3.0810 -0.7178
 9211TIP3    H249049   3.516   4.816  14.812  0.4637 -0.1137  0.0508
 9212TIP3   OH249050   6.238   0.834   2.551 -0.0443 -0.2065 -0.1749
 9212TIP3    H149051   6.272   0.747   2.531  0.8514  0.2207 -0.5051
 9212TIP3    H249052   6.309   0.894   2.528 -0.7036  0.6232 -0.0666
 9213TIP3   OH249053   1.096   4.564   4.332  0.0116 -0.2492  0.0783
 9213TIP3    H149054   1.191   4.553   4.341 -0.2902 -2.7262  0.4647
 9213TIP3    H249055   1.064   4.567   4.422 -0.5840 -2.3491 -0.0556
 9214TIP3   OH249056   3.382   0.082   1.827  0.3721  0.1144  0.0052
 9214TIP3    H149057   3.438   0.160   1.826  1.9302 -0.9380  1.6889
 9214TIP3    H249058   3.339   0.084   1.912  0.9182 -1.1677  0.3266
 9215TIP3   OH249059   6.033   2.827  16.190  0.4321  0.0649  0.0919
 9215TIP3    H149060   5.944   2.793  16.203  1.1793 -2.4542 -1.2894
 9215TIP3    H249061   6.063   2.848  16.278 -1.9914  2.2673  0.4884
 9216TIP3   OH249062   2.009   0.807   0.601 -0.0104 -0.3406 -0.5012
 9216TIP3    H149063   1.940   0.786   0.538 -1.1227  0.3832  0.4461
 9216TIP3    H249064   1.968   0.793   0.687  1.4443 -1.1899  0.0714
 9217TIP3   OH249065   1.690   6.443   5.203  0.2823 -0.0180 -0.3304
 9217TIP3    H149066   1.596   6.443   5.183 -0.1699  1.1078  1.6183
 9217TIP3    H249067   1.721   6.528   5.170  0.2727  0.2971  0.4569
 9218TIP3   OH249068   4.110   5.371  16.043  0.0184  0.3723  0.3907
 9218TIP3    H149069   4.060   5.292  16.022 -0.0516  0.2247  1.0863
 9218TIP3    H249070   4.163   5.388  15.966  1.5737 -1.5326  1.0080
 9219TIP3   OH249071   1.962   5.542   1.995  0.2634 -0.0424 -0.7725
 9219TIP3    H149072   2.000   5.455   2.004  0.6171  0.3324  1.9182
 9219TIP3    H249073   1.869   5.529   2.014  0.0202 -0.0930 -1.9895
 9220TIP3   OH249074   1.175   5.104  11.266  0.4063 -0.0416  0.2539
 9220TIP3    H149075   1.119   5.041  11.220 -0.6968  0.6605  0.6116
 9220TIP3    H249076   1.264   5.073  11.249 -0.0790 -1.1782 -0.3278
 9221TIP3   OH249077   4.889   5.040   0.351 -0.6653 -0.5976  0.3224
 9221TIP3    H149078   4.882   5.042   0.256  0.5520 -0.0393  0.2404
 9221TIP3    H249079   4.883   4.947   0.374 -0.1212 -0.7979 -0.3522
 9222TIP3   OH249080   4.442   5.005   6.258 -0.6619  0.5484 -0.6397
 9222TIP3    H149081   4.367   4.991   6.316  0.0693 -1.4509 -0.1190
 9222TIP3    H249082   4.473   5.093   6.278 -0.7998  0.1156  1.5890
 9223TIP3   OH249083   3.527   4.026   3.594  0.1480  0.0737 -0.4582
 9223TIP3    H149084   3.533   4.013   3.688  0.5357 -2.0006 -0.7418
 9223TIP3    H249085   3.490   3.944   3.560  0.3540  0.6417 -2.1312
 9224TIP3   OH249086   4.169   2.588  11.191  0.1656  0.3063  0.5167
 9224TIP3    H149087   4.088   2.580  11.142  0.5069 -0.4814  0.0672
 9224TIP3    H249088   4.232   2.623  11.128  0.3663  0.2022  0.6572
 9225TIP3   OH249089   1.374   0.233  15.202  0.1613  0.2465 -0.1760
 9225TIP3    H149090   1.404   0.142  15.208  0.6146  0.2649 -1.9227
 9225TIP3    H249091   1.453   0.282  15.177 -0.2062  1.0323  0.2221
 9226TIP3   OH249092   1.024   6.735  13.653 -0.3949  0.9530  0.3870
 9226TIP3    H149093   1.120   6.730  13.656 -0.3931  0.4847 -0.2475
 9226TIP3    H249094   1.006   6.808  13.594 -0.4243  0.2534 -0.4799
 9227TIP3   OH249095   3.643   3.111   4.322  0.3963 -0.1730 -0.0090
 9227TIP3    H149096   3.566   3.055   4.320  0.0102  0.3519 -0.1140
 9227TIP3    H249097   3.685   3.098   4.237  0.2470 -0.2273 -0.0753
 9228TIP3   OH249098   1.028   4.239   1.977 -0.1077 -0.6019 -0.0823
 9228TIP3    H149099   0.948   4.230   1.927  1.7817 -1.3642 -3.0804
 9228TIP3    H249100   1.068   4.152   1.973  2.4528  0.6030 -1.4271
 9229TIP3   OH249101   3.557   6.462  14.027 -0.2340  0.7348  0.5187
 9229TIP3    H149102   3.522   6.451  13.939 -1.5879  1.7948  0.9063
 9229TIP3    H249103   3.621   6.532  14.018 -0.9338  1.3786  0.5228
 9230TIP3   OH249104   6.037   4.861   0.201  0.0655 -0.5302  0.0073
 9230TIP3    H149105   6.107   4.800   0.178  0.1312 -0.3459 -0.2936
 9230TIP3    H249106   6.056   4.887   0.291  0.9578  0.2927 -0.4150
 9231TIP3   OH249107   0.772   0.069   5.727 -0.2965 -0.3279 -0.0895
 9231TIP3    H149108   0.746   0.020   5.649 -0.2627  0.5882 -0.6759
 9231TIP3    H249109   0.757   0.008   5.799 -1.3937 -0.8044 -0.6990
 9232TIP3   OH249110   4.935   1.605   2.157 -0.3284  0.5468 -0.6603
 9232TIP3    H149111   4.983   1.646   2.229  0.5464  0.7325 -1.3442
 9232TIP3    H249112   4.897   1.526   2.196  0.2938  0.5427 -0.0469
 9233TIP3   OH249113   3.869   3.627  12.348 -0.2930  1.0432 -0.1502
 9233TIP3    H149114   3.821   3.582  12.279 -0.2931  0.7436  0.0473
 9233TIP3    H249115   3.802   3.673  12.398 -0.5185 -0.4023  0.8996
 9234TIP3   OH249116   6.358   0.974  15.346  0.2260 -0.0018 -0.1742
 9234TIP3    H149117   6.373   0.906  15.411 -0.1097 -0.2294 -0.3344
 9234TIP3    H249118   6.379   1.055  15.391  4.7857 -0.4755 -1.2230
 9235TIP3   OH249119   4.871   2.919   5.904 -0.3487 -0.2534  0.1470
 9235TIP3    H149120   4.885   2.855   5.974  1.3655 -0.1058 -0.0349
 9235TIP3    H249121   4.917   2.882   5.829 -0.1605  0.7414 -0.2283
 9236TIP3   OH249122   1.081   1.977   6.237  0.4690 -0.3892  0.7250
 9236TIP3    H149123   1.075   2.065   6.275 -0.2003 -0.8364  1.6884
 9236TIP3    H249124   1.169   1.947   6.258  1.4248  0.8316 -1.3834
 9237TIP3   OH249125   0.438   5.812  16.421 -0.7214  0.1933  0.1349
 9237TIP3    H149126   0.387   5.735  16.397 -0.6306 -0.3705  1.6599
 9237TIP3    H249127   0.413   5.879  16.357 -3.4672 -0.0396  0.8780
 9238TIP3   OH249128   4.928   4.471   3.710  0.4562  0.1584  0.1592
 9238TIP3    H149129   4.909   4.409   3.780 -0.5464 -1.9977 -1.9348
 9238TIP3    H249130   4.847   4.475   3.659  1.3963  1.0959 -1.3024
 9239TIP3   OH249131   0.568   6.320  14.584  0.7325 -0.6108 -0.0348
 9239TIP3    H149132   0.491   6.270  14.557 -0.4144  1.5443 -0.8530
 9239TIP3    H249133   0.642   6.272  14.545 -0.0416 -3.2953  1.6568
 9240TIP3   OH249134   4.476   0.287  11.740 -0.4772 -0.1254 -0.1592
 9240TIP3    H149135   4.419   0.269  11.815 -0.7627 -3.7275 -1.1237
 9240TIP3    H249136   4.441   0.367  11.701 -2.6050 -0.2477  1.4018
 9241TIP3   OH249137   3.818   1.286  13.927 -0.0006 -0.0186  0.0079
 9241TIP3    H149138   3.910   1.272  13.949 -0.2532  0.9652  1.7223
 9241TIP3    H249139   3.803   1.379  13.942 -0.8173  0.1987 -2.0275
 9242TIP3   OH249140   5.527   3.452   2.986 -0.2814 -0.0267 -0.2471
 9242TIP3    H149141   5.531   3.423   3.077 -1.0987 -0.5556 -0.3738
 9242TIP3    H249142   5.511   3.373   2.935 -0.6932  0.3801 -0.7660
 9243TIP3   OH249143   0.703   0.575   4.071  0.1837 -0.8499  0.2586
 9243TIP3    H149144   0.618   0.537   4.092 -0.0247 -0.8278 -0.5311
 9243TIP3    H249145   0.694   0.608   3.982  0.4989  0.6754  0.7679
 9244TIP3   OH249146   5.713   1.570  11.656  0.1724 -0.0832  0.7550
 9244TIP3    H149147   5.644   1.540  11.597  0.8069 -1.0962  0.5097
 9244TIP3    H249148   5.697   1.664  11.665 -1.9315 -0.4848  1.6200
 9245TIP3   OH249149   5.682   6.282   3.522  0.7489 -0.5901  0.4986
 9245TIP3    H149150   5.629   6.216   3.478  1.1932 -0.2270 -0.5966
 9245TIP3    H249151   5.639   6.294   3.607 -0.6394 -0.6589 -0.1742
 9246TIP3   OH249152   2.118   1.540   6.230 -0.2322  0.4293 -0.0717
 9246TIP3    H149153   2.189   1.486   6.195 -1.7980 -0.2910 -2.3015
 9246TIP3    H249154   2.061   1.478   6.276  0.5760  1.0043  1.7337
 9247TIP3   OH249155   4.033   2.476  17.126 -1.4121  0.2775  0.3342
 9247TIP3    H149156   4.117   2.512  17.156 -1.8110 -0.5381  2.5372
 9247TIP3    H249157   4.043   2.469  17.031  0.3411  1.9042  0.3552
 9248TIP3   OH249158   5.323   3.846  14.655  0.3427  0.1620 -0.2232
 9248TIP3    H149159   5.388   3.882  14.595 -0.9566 -0.3712 -2.0086
 9248TIP3    H249160   5.323   3.905  14.730  1.5516  1.2051 -1.0293
 9249TIP3   OH249161   1.403   2.464   2.621 -0.2659 -0.2930  0.0818
 9249TIP3    H149162   1.485   2.467   2.572 -0.1890 -1.8904  0.0793
 9249TIP3    H249163   1.335   2.459   2.554 -0.4892  2.5381  0.0428
 9250TIP3   OH249164   6.457   6.407   2.445 -0.1878  0.1215 -0.4605
 9250TIP3    H149165   6.500   6.421   2.529  1.6321 -0.1014 -1.3340
 9250TIP3    H249166   6.435   6.495   2.414 -2.8712  0.1236  1.2103
 9251TIP3   OH249167   4.505   5.959   3.253 -0.3543  0.2155 -0.0319
 9251TIP3    H149168   4.467   6.046   3.259  0.0597  0.3807  0.2416
 9251TIP3    H249169   4.563   5.962   3.177  0.0784  0.3442  0.3023
 9252TIP3   OH249170   6.043   6.757  13.559  0.4705  0.0850  0.3291
 9252TIP3    H149171   6.056   6.811  13.481 -1.3201 -0.2850 -0.2500
 9252TIP3    H249172   6.049   6.819  13.632  1.0234  0.6261 -0.1663
 9253TIP3   OH249173   4.202   2.241  11.606 -0.0769  0.0549 -0.0945
 9253TIP3    H149174   4.223   2.148  11.616 -1.5927 -0.2318  0.4489
 9253TIP3    H249175   4.126   2.256  11.662 -1.1032  1.1644 -1.7357
 9254TIP3   OH249176   3.249   5.107   4.136  0.5136 -0.1440 -0.7056
 9254TIP3    H149177   3.238   5.054   4.058  2.0470 -0.7105 -0.5549
 9254TIP3    H249178   3.252   5.197   4.104 -3.1575 -0.0155 -0.8646
 9255TIP3   OH249179   3.987   3.429  14.234  0.2558 -0.2380 -0.1568
 9255TIP3    H149180   3.978   3.487  14.310  1.1389  1.3649 -1.2385
 9255TIP3    H249181   3.901   3.430  14.192  0.0223 -0.4060  0.3162
 9256TIP3   OH249182   2.036   3.748  12.198 -0.0047  0.1793 -0.1512
 9256TIP3    H149183   2.065   3.832  12.232 -2.0772  0.2154  1.6450
 9256TIP3    H249184   2.088   3.683  12.245  1.2038  0.4277 -1.1354
 9257TIP3   OH249185   4.226   0.405  15.811  0.3833  0.2298 -0.2322
 9257TIP3    H149186   4.241   0.330  15.754 -0.0123  0.9664 -1.3147
 9257TIP3    H249187   4.133   0.403  15.831  0.1241  1.1314 -1.2793
 9258TIP3   OH249188   1.244   4.730  15.094 -0.0949  0.1490  0.6523
 9258TIP3    H149189   1.329   4.727  15.049  0.4609  0.2109  1.6643
 9258TIP3    H249190   1.195   4.656  15.058  0.1984  0.4040 -0.3015
 9259TIP3   OH249191   1.553   3.356   0.108 -0.2306 -0.8100  0.4120
 9259TIP3    H149192   1.548   3.357   0.012  2.1670  1.5165  0.2612
 9259TIP3    H249193   1.467   3.384   0.137 -0.9805 -1.5237 -1.0375
 9260TIP3   OH249194   2.134   6.491   6.187 -0.5772  0.4574 -0.3397
 9260TIP3    H149195   2.048   6.466   6.154 -0.6617  1.8357 -1.1921
 9260TIP3    H249196   2.196   6.444   6.132 -0.7804 -0.4139  0.1733
 9261TIP3   OH249197   6.505   4.592  15.958 -0.5435 -0.1796  0.1689
 9261TIP3    H149198   6.580   4.651  15.969 -0.4768 -0.2526  0.1147
 9261TIP3    H249199   6.546   4.506  15.943 -0.6377 -0.1688 -0.1420
 9262TIP3   OH249200   3.715   4.549  14.700  0.0524  0.2845 -0.4295
 9262TIP3    H149201   3.773   4.575  14.628 -0.3526 -1.1157 -1.2721
 9262TIP3    H249202   3.630   4.536  14.658  0.2283 -2.2943 -0.0188
 9263TIP3   OH249203   6.274   6.572  15.719 -0.3902 -0.0986  0.6852
 9263TIP3    H149204   6.323   6.620  15.785  0.2802  0.4769 -0.2278
 9263TIP3    H249205   6.337   6.553  15.651 -1.0822 -0.6817  0.1954
 9264TIP3   OH249206   2.499   4.822  12.730 -0.3791  0.7402  0.6550
 9264TIP3    H149207   2.437   4.894  12.742 -0.0230  1.2320 -0.3654
 9264TIP3    H249208   2.548   4.818  12.813 -0.3873  1.6849  0.7090
 9265TIP3   OH249209   2.557   2.570  13.117 -0.3410  0.2760 -0.2572
 9265TIP3    H149210   2.606   2.545  13.039 -0.3882  1.3091 -0.6192
 9265TIP3    H249211   2.585   2.507  13.184  2.1116  1.3406 -0.2169
 9266TIP3   OH249212   1.280   5.540   2.625 -0.4195  0.1699 -0.1965
 9266TIP3    H149213   1.278   5.542   2.529 -1.7781 -1.9845 -0.2462
 9266TIP3    H249214   1.188   5.537   2.651 -0.0475  0.1751  1.1554
 9267TIP3   OH249215   4.257   1.377  12.818 -0.5012  0.2144 -0.0926
 9267TIP3    H149216   4.332   1.372  12.877 -0.9498 -1.0602  0.3840
 9267TIP3    H249217   4.224   1.466  12.829 -0.8114 -0.1292  1.8703
 9268TIP3   OH249218   4.506   2.618   4.575  0.6682 -0.2595  0.1548
 9268TIP3    H149219   4.557   2.660   4.506 -0.0659  1.4615  0.6198
 9268TIP3    H249220   4.457   2.690   4.615 -2.5778 -1.9235 -0.6677
 9269TIP3   OH249221   1.586   4.423   0.108 -1.1190 -0.3689 -0.3044
 9269TIP3    H149222   1.665   4.462   0.146 -0.5868 -0.7143 -1.0539
 9269TIP3    H249223   1.558   4.358   0.173  0.1398 -1.3889 -0.7664
 9270TIP3   OH249224   4.607   0.877   1.508 -0.0338 -0.0835 -0.4522
 9270TIP3    H149225   4.523   0.897   1.466 -0.1860 -1.3922 -0.7913
 9270TIP3    H249226   4.586   0.873   1.601 -0.1071  0.7492 -0.4274
 9271TIP3   OH249227   1.607   3.083   4.418  0.0911 -0.3303  0.0613
 9271TIP3    H149228   1.668   3.067   4.346 -0.4611  1.8885 -0.9336
 9271TIP3    H249229   1.520   3.070   4.379 -0.2671  2.1532 -0.0713
 9272TIP3   OH249230   0.214   0.561   0.936 -0.4343 -0.3038 -0.1506
 9272TIP3    H149231   0.272   0.581   1.010 -1.7353  2.0878  0.2757
 9272TIP3    H249232   0.221   0.466   0.924  0.7658 -0.5347  2.2115
 9273TIP3   OH249233   3.177   4.373   5.515 -0.3595 -0.5865  0.1737
 9273TIP3    H149234   3.139   4.460   5.517  0.0666 -0.4038  0.4397
 9273TIP3    H249235   3.228   4.370   5.434 -0.1525 -0.4893  0.2982
 9274TIP3   OH249236   4.820   3.067  13.714 -0.3114  0.2920  0.2514
 9274TIP3    H149237   4.754   3.017  13.763  0.9273 -2.8649 -1.1499
 9274TIP3    H249238   4.770   3.137  13.672 -2.3291 -0.4495  1.3155
 9275TIP3   OH249239   2.766   3.327   3.205 -0.5682  0.0210 -0.2616
 9275TIP3    H149240   2.855   3.360   3.208 -1.3586  2.0876  1.6259
 9275TIP3    H249241   2.749   3.311   3.112  1.0665  1.5022 -0.8332
 9276TIP3   OH249242   5.750   5.200   4.610  0.2816  0.2109  0.5147
 9276TIP3    H149243   5.793   5.115   4.620  1.3092  0.6218 -0.2954
 9276TIP3    H249244   5.813   5.263   4.644 -0.3127  0.6896  0.7362
 9277TIP3   OH249245   5.986   1.984  11.804  0.5052  0.0136  0.0215
 9277TIP3    H149246   6.045   1.911  11.786 -0.0810 -0.6321  0.6853
 9277TIP3    H249247   5.991   1.997  11.898 -1.0976 -0.6535  0.2178
 9278TIP3   OH249248   0.153   1.200  16.433  0.6356  0.4830 -0.1154
 9278TIP3    H149249   0.123   1.200  16.343 -0.8445 -0.1033  0.3613
 9278TIP3    H249250   0.231   1.144  16.433  1.0346  1.0162 -1.1260
 9279TIP3   OH249251   3.156   1.819   0.793 -0.0150  0.5494  0.1062
 9279TIP3    H149252   3.109   1.737   0.810  0.2407  0.4801  0.4782
 9279TIP3    H249253   3.243   1.791   0.766 -0.3245  0.6650 -1.0434
 9280TIP3   OH249254   5.475   4.723   3.040  0.0875  0.5495 -0.4451
 9280TIP3    H149255   5.504   4.635   3.016  1.4730 -0.3118  4.0950
 9280TIP3    H249256   5.380   4.715   3.050  0.3940 -0.8987  1.5908
 9281TIP3   OH249257   6.652   0.214  13.763 -0.1067  0.2210  0.3511
 9281TIP3    H149258   6.594   0.145  13.733 -1.4603  1.8244 -0.7986
 9281TIP3    H249259   6.720   0.220  13.696 -1.1147  1.3395 -0.6039
 9282TIP3   OH249260   1.720   1.704   2.023  0.1785 -0.0480  0.0101
 9282TIP3    H149261   1.711   1.613   1.994 -0.6387 -0.0525  0.2751
 9282TIP3    H249262   1.801   1.705   2.074 -0.0628 -0.7234  0.4065
 9283TIP3   OH249263   2.865   6.058   0.745  0.0788 -0.0226  0.7022
 9283TIP3    H149264   2.796   5.991   0.746 -1.4314  1.4537 -1.3654
 9283TIP3    H249265   2.943   6.011   0.715 -0.5066 -1.2496  1.0384
 9284TIP3   OH249266   1.511   0.278  12.227 -0.3798  0.5656 -0.2606
 9284TIP3    H149267   1.457   0.311  12.299 -0.9780  1.6102 -1.1818
 9284TIP3    H249268   1.472   0.315  12.148 -0.7196 -1.8696 -1.2904
 9285TIP3   OH249269   3.148   1.090  13.972  0.0839 -0.0228  0.3844
 9285TIP3    H149270   3.172   1.017  14.030 -0.2298 -0.3625  0.0881
 9285TIP3    H249271   3.053   1.087  13.969  0.0924  0.0974 -0.0173
 9286TIP3   OH249272   4.834   5.530  16.904 -0.2276 -0.2245 -0.1373
 9286TIP3    H149273   4.778   5.552  16.979 -1.5029  1.8700 -1.6641
 9286TIP3    H249274   4.787   5.459  16.860  0.1924 -1.0035  0.6457
 9287TIP3   OH249275   0.080   4.724  16.753  0.6555 -0.3921 -0.4722
 9287TIP3    H149276   0.091   4.807  16.707  4.6461  0.0480  1.0698
 9287TIP3    H249277   0.076   4.748  16.846  1.0162 -1.8307 -0.0620
 9288TIP3   OH249278   4.855   0.422  10.700 -0.0591  1.1344 -0.2280
 9288TIP3    H149279   4.769   0.447  10.734  0.2028  1.5220  0.1607
 9288TIP3    H249280   4.883   0.498  10.648  0.1774  1.1362 -0.1002
 9289TIP3   OH249281   2.579   2.248   5.046 -0.2811  0.2273  0.2663
 9289TIP3    H149282   2.485   2.253   5.065 -0.1823 -1.9235  1.5448
 9289TIP3    H249283   2.586   2.182   4.978  0.1838  1.6258 -1.0744
 9290TIP3   OH249284   6.767   1.153  15.523  0.6526 -0.4683  0.2509
 9290TIP3    H149285   6.830   1.121  15.459 -0.3472  0.5954 -1.3150
 9290TIP3    H249286   6.817   1.163  15.604  2.5331  0.5065 -1.0075
 9291TIP3   OH249287   1.658   1.741  14.705 -0.1022 -0.8243  0.3234
 9291TIP3    H149288   1.569   1.749  14.670  0.2901  1.0947 -0.2681
 9291TIP3    H249289   1.715   1.746  14.628  0.6117  0.0629  0.9064
 9292TIP3   OH249290   6.741   1.204   5.460 -0.3136  0.2633 -0.1875
 9292TIP3    H149291   6.778   1.140   5.400  0.3230  1.7578 -1.4342
 9292TIP3    H249292   6.679   1.253   5.406 -0.9427  0.5670  0.7986
 9293TIP3   OH249293   0.858   4.963  11.350 -0.0189  0.1872 -0.2443
 9293TIP3    H149294   0.872   5.040  11.404  0.7118  0.4957 -0.8575
 9293TIP3    H249295   0.806   4.995  11.276 -0.1683 -0.0173 -0.2267
 9294TIP3   OH249296   3.705   2.620  15.910  0.1676  0.1984  0.3882
 9294TIP3    H149297   3.630   2.624  15.969  0.6299  0.4909  0.9677
 9294TIP3    H249298   3.670   2.644  15.825 -0.7542 -1.4373  0.2902
 9295TIP3   OH249299   6.269   5.883  15.548 -0.2391 -0.2431  0.1357
 9295TIP3    H149300   6.345   5.894  15.491  1.1367  2.3219  2.2829
 9295TIP3    H249301   6.199   5.930  15.504  0.0578 -0.6065 -0.7354
 9296TIP3   OH249302   3.398   1.391  13.498 -0.3710  0.2020 -0.1071
 9296TIP3    H149303   3.449   1.353  13.570 -1.2170  1.4602  1.1958
 9296TIP3    H249304   3.462   1.402  13.427  0.7162 -0.1243  0.7951
 9297TIP3   OH249305   4.628   1.547  11.186 -0.4593  0.1063  0.3038
 9297TIP3    H149306   4.652   1.480  11.250  0.3038 -0.9550 -1.0582
 9297TIP3    H249307   4.534   1.536  11.174 -0.5010 -0.0850  0.8008
 9298TIP3   OH249308   6.008   2.719  13.599  0.2632 -0.2437  0.0145
 9298TIP3    H149309   6.090   2.764  13.622  0.1415  0.4100 -0.7896
 9298TIP3    H249310   5.942   2.789  13.601 -0.0454 -0.5166 -0.5988
 9299TIP3   OH249311   1.957   3.124  11.759  0.6545  0.6342  0.2187
 9299TIP3    H149312   2.036   3.071  11.750  0.2029 -0.1641  0.8595
 9299TIP3    H249313   1.953   3.176  11.679  1.1898 -0.1906 -0.3414
 9300TIP3   OH249314   6.564   6.275   2.225  0.2001  0.2292  0.2538
 9300TIP3    H149315   6.543   6.310   2.312 -0.2764  0.9903 -0.1624
 9300TIP3    H249316   6.584   6.352   2.172 -0.3965 -0.1630 -0.5511
 9301TIP3   OH249317   0.432   5.495  11.571  0.3008  0.4304 -0.1525
 9301TIP3    H149318   0.346   5.478  11.609 -0.2061  2.7033 -0.2188
 9301TIP3    H249319   0.449   5.419  11.515 -1.5151 -0.1750  0.0824
 9302TIP3   OH249320   3.107   0.768   2.304 -0.4612  0.0277 -0.2237
 9302TIP3    H149321   3.142   0.738   2.388  0.2821  0.5622 -0.3385
 9302TIP3    H249322   3.141   0.857   2.293  0.4968 -0.4907 -1.6794
 9303TIP3   OH249323   2.113   2.339   5.336  0.0938 -0.2772  0.0790
 9303TIP3    H149324   2.163   2.371   5.410 -0.0646 -0.3708  0.2277
 9303TIP3    H249325   2.154   2.255   5.313  0.5034  0.0223 -0.3052
 9304TIP3   OH249326   6.433   3.136  16.322 -0.1832 -0.1104  0.4266
 9304TIP3    H149327   6.418   3.231  16.316  2.6258  0.5122  2.0744
 9304TIP3    H249328   6.415   3.115  16.414  1.8201 -0.6257  0.7260
 9305TIP3   OH249329   5.146   0.695   2.127  0.2236  1.1782  0.5374
 9305TIP3    H149330   5.215   0.718   2.065  0.0341 -4.0705 -1.8444
 9305TIP3    H249331   5.187   0.633   2.187 -2.0173 -1.1114 -0.1947
 9306TIP3   OH249332   4.242   0.009  11.505  0.0621 -0.3576  0.6405
 9306TIP3    H149333   4.160  -0.022  11.467  0.1525 -1.4736  1.3255
 9306TIP3    H249334   4.259  -0.050  11.578  1.6693 -0.4024  0.2663
 9307TIP3   OH249335   1.106   5.520  12.387  0.6164 -0.0260 -0.0457
 9307TIP3    H149336   1.072   5.440  12.428  1.4287 -0.4926 -0.2762
 9307TIP3    H249337   1.052   5.531  12.309 -2.1765  1.8825  2.0609
 9308TIP3   OH249338   2.011   5.487   3.812 -0.0390  0.3009 -0.3191
 9308TIP3    H149339   1.926   5.530   3.821  1.3446  3.4890 -1.3242
 9308TIP3    H249340   2.063   5.522   3.884  1.1395  0.3379 -1.1751
 9309TIP3   OH249341   4.359   0.146  13.527  0.0344  0.4716  0.1219
 9309TIP3    H149342   4.310   0.175  13.450 -0.5575  1.6094  0.9153
 9309TIP3    H249343   4.292   0.112  13.587  0.1933  2.0470  1.2215
 9310TIP3   OH249344   3.657   3.725   4.011 -0.6285 -0.2996  0.1890
 9310TIP3    H149345   3.597   3.788   4.049 -0.5447 -0.1008 -0.0090
 9310TIP3    H249346   3.608   3.643   4.008 -0.0684 -0.7617  2.3700
 9311TIP3   OH249347   2.769   5.831  13.073 -0.6648  0.6008 -0.9012
 9311TIP3    H149348   2.729   5.807  13.157 -2.5894  0.0601 -1.9458
 9311TIP3    H249349   2.861   5.809  13.083 -1.2224 -1.2781  0.4098
 9312TIP3   OH249350   6.123   3.875  10.947 -0.2334 -0.0014 -0.1210
 9312TIP3    H149351   6.216   3.878  10.970 -0.1148 -1.5798 -0.2999
 9312TIP3    H249352   6.101   3.781  10.950 -1.1690  0.0937 -2.5527
 9313TIP3   OH249353   2.053   5.807   0.369 -0.1097 -0.1976  0.0697
 9313TIP3    H149354   2.077   5.816   0.461  0.7869  0.1444 -0.1867
 9313TIP3    H249355   2.077   5.891   0.329 -4.5278  1.3463  0.3392
 9314TIP3   OH249356   2.796   0.861   5.978 -0.0510  0.6448 -0.5692
 9314TIP3    H149357   2.757   0.891   5.896 -1.0265  1.7196  0.2717
 9314TIP3    H249358   2.743   0.785   6.003  2.0712 -1.5344 -2.4087
 9315TIP3   OH249359   1.924   1.263  14.794 -0.0867  0.3265  0.0508
 9315TIP3    H149360   1.905   1.221  14.710  0.6543 -0.4290  0.2532
 9315TIP3    H249361   1.868   1.340  14.795  0.2753  0.6348 -1.3841
 9316TIP3   OH249362   3.579   3.060  15.670 -0.0236 -0.1269 -0.3985
 9316TIP3    H149363   3.528   3.139  15.687 -0.6090  0.0942 -2.9853
 9316TIP3    H249364   3.522   2.988  15.697  0.0233  0.2688  0.7868
 9317TIP3   OH249365   0.730   2.047   3.539 -0.0862 -0.1492  0.3506
 9317TIP3    H149366   0.723   2.048   3.443  2.1503  0.4330  0.1637
 9317TIP3    H249367   0.732   2.139   3.564 -2.2192 -0.2723  1.1336
 9318TIP3   OH249368   5.637   4.367  13.907 -0.2401  0.1744  0.1648
 9318TIP3    H149369   5.726   4.391  13.883  0.2208  0.1874  1.8431
 9318TIP3    H249370   5.603   4.320  13.830  1.4262 -0.4174 -0.2222
 9319TIP3   OH249371   1.304   2.487  13.575  0.2310  0.2897  0.5187
 9319TIP3    H149372   1.309   2.392  13.562 -1.4180 -0.0333  2.0540
 9319TIP3    H249373   1.313   2.499  13.669 -1.0913  1.5133  0.5070
 9320TIP3   OH249374   6.271   1.927  15.697  0.0637  0.2017  0.2682
 9320TIP3    H149375   6.362   1.907  15.674 -0.1183 -1.4321  0.8482
 9320TIP3    H249376   6.268   1.914  15.792 -0.4641  1.5526  0.4419
 9321TIP3   OH249377   5.506   4.205   3.165 -1.0913 -0.1667 -0.4407
 9321TIP3    H149378   5.507   4.185   3.072 -0.6257 -1.3195 -0.1970
 9321TIP3    H249379   5.425   4.165   3.197 -2.1923  1.8074 -0.6721
 9322TIP3   OH249380   5.356   1.056   3.377 -1.1958  0.0812  0.1285
 9322TIP3    H149381   5.305   1.084   3.301  0.2530  0.2433 -0.8226
 9322TIP3    H249382   5.428   1.119   3.382 -1.6162  0.4332  2.0210
 9323TIP3   OH249383   4.826   6.721  15.156  0.3171 -0.1059 -0.0823
 9323TIP3    H149384   4.864   6.800  15.192  0.0597 -0.2249  0.4614
 9323TIP3    H249385   4.851   6.722  15.064  1.7113 -0.2389  0.2813
 9324TIP3   OH249386   2.350   3.178  15.175  0.5721 -0.2685 -0.4033
 9324TIP3    H149387   2.355   3.113  15.105 -1.6414  2.2776 -3.0706
 9324TIP3    H249388   2.416   3.243  15.151  0.2571  0.2822  0.2381
 9325TIP3   OH249389   3.848   5.001  10.716  0.2548  0.2601 -0.5643
 9325TIP3    H149390   3.773   4.946  10.691 -0.3673  0.3730  1.0242
 9325TIP3    H249391   3.878   4.966  10.799  0.5674  1.6137 -0.0892
 9326TIP3   OH249392   3.281   5.272  17.076 -0.0337  0.1677 -0.1835
 9326TIP3    H149393   3.369   5.271  17.114 -0.3583  1.5961  0.6131
 9326TIP3    H249394   3.294   5.239  16.987  0.9757 -1.6645  0.6013
 9327TIP3   OH249395   5.388   1.053   1.050 -0.0860  0.3343  0.8058
 9327TIP3    H149396   5.364   1.010   0.968 -0.3744  0.9524  0.5687
 9327TIP3    H249397   5.440   1.128   1.023 -0.9879  1.0867  1.1348
 9328TIP3   OH249398   1.219   4.973   1.873 -0.3397  0.3242 -0.4076
 9328TIP3    H149399   1.140   5.021   1.849 -0.1258  0.5314 -0.7144
 9328TIP3    H249400   1.258   5.024   1.944  0.2473  0.9847 -1.1947
 9329TIP3   OH249401   0.149   2.594  13.485 -0.4077  0.3031 -1.2440
 9329TIP3    H149402   0.109   2.656  13.547 -1.9826 -1.0260 -0.8785
 9329TIP3    H249403   0.218   2.644  13.441 -1.3945  2.1957 -0.6847
 9330TIP3   OH249404   4.184   5.661  16.642 -0.5864  0.3686  0.5319
 9330TIP3    H149405   4.269   5.678  16.682 -0.6952 -2.4935  2.0789
 9330TIP3    H249406   4.176   5.566  16.641 -2.1717  0.4486 -3.0675
 9331TIP3   OH249407   5.044   5.925  13.976 -0.0397 -0.5833 -0.6365
 9331TIP3    H149408   5.043   5.857  14.042 -0.4789  0.6402  0.6489
 9331TIP3    H249409   4.967   5.979  13.996 -1.0472 -1.0593 -3.0565
 9332TIP3   OH249410   5.891   4.126  16.083 -0.6381  0.0812  0.1276
 9332TIP3    H149411   5.795   4.121  16.085 -0.6263  0.2124  1.5351
 9332TIP3    H249412   5.910   4.205  16.033 -1.2824  0.4363  0.4388
 9333TIP3   OH249413   3.329   3.202   5.711 -0.8275  0.4634 -0.3729
 9333TIP3    H149414   3.412   3.156   5.695 -1.9944 -1.5736 -0.6624
 9333TIP3    H249415   3.315   3.196   5.805 -1.3636 -0.4495 -0.5096
 9334TIP3   OH249416   5.996   0.373   2.530 -0.2925  0.4112  0.2132
 9334TIP3    H149417   5.989   0.443   2.466 -2.2185 -0.8270 -0.9664
 9334TIP3    H249418   6.083   0.335   2.516 -0.2672  0.8759 -0.8801
 9335TIP3   OH249419   2.337   5.429   2.512 -0.2045  0.0071  0.0874
 9335TIP3    H149420   2.369   5.396   2.428 -0.8889  1.6918 -0.8470
 9335TIP3    H249421   2.244   5.407   2.512 -1.2173  3.8832 -1.5753
 9336TIP3   OH249422   3.803   2.918  16.124 -0.3032 -0.4584 -0.9675
 9336TIP3    H149423   3.886   2.869  16.121 -1.3382 -2.2862 -0.2458
 9336TIP3    H249424   3.798   2.962  16.039  1.9258  0.5637 -0.6105
 9337TIP3   OH249425   4.034   1.461   2.145 -0.6012 -0.0321  0.0494
 9337TIP3    H149426   4.087   1.467   2.065 -0.8395 -0.0900 -0.1130
 9337TIP3    H249427   4.081   1.399   2.200 -0.6036 -0.2320 -0.1737
 9338TIP3   OH249428   6.251   1.209   0.352  0.4140  0.9021 -0.2297
 9338TIP3    H149429   6.209   1.261   0.283  0.5634  0.7104 -0.4668
 9338TIP3    H249430   6.231   1.256   0.433 -0.9555  0.3736 -0.2494
 9339TIP3   OH249431   3.315   6.606   1.003  0.0708  0.2171  0.4340
 9339TIP3    H149432   3.285   6.591   0.913 -2.2675 -0.6262  1.3168
 9339TIP3    H249433   3.353   6.522   1.030  0.3359  0.3261  0.4006
 9340TIP3   OH249434   5.690   0.249  16.205  0.4409 -0.0969 -0.6465
 9340TIP3    H149435   5.656   0.159  16.210  2.1633 -0.6779  1.3852
 9340TIP3    H249436   5.633   0.299  16.263 -1.7180  0.5818 -3.2394
 9341TIP3   OH249437   5.453   2.293  11.890  0.8529  0.2065  0.0623
 9341TIP3    H149438   5.473   2.269  11.799  0.7287 -0.4320  0.2028
 9341TIP3    H249439   5.420   2.383  11.884  0.4392  0.0159 -0.5761
 9342TIP3   OH249440   5.814   3.862   4.477  0.3853  0.2845 -0.1990
 9342TIP3    H149441   5.853   3.783   4.513  1.2212  1.4990  1.6903
 9342TIP3    H249442   5.735   3.876   4.529  0.2171  0.6671 -0.5509
 9343TIP3   OH249443   2.463   5.020   5.591 -0.3130 -0.0308 -0.3968
 9343TIP3    H149444   2.400   5.091   5.602 -0.6252 -0.2357 -0.8209
 9343TIP3    H249445   2.534   5.040   5.652 -1.0606 -0.1088  0.5024
 9344TIP3   OH249446   2.591   0.555   0.130 -0.4834 -0.9291 -0.8391
 9344TIP3    H149447   2.585   0.472   0.177 -0.2617 -0.1234  0.6353
 9344TIP3    H249448   2.682   0.582   0.141 -1.2679  1.0142  1.3437
 9345TIP3   OH249449   5.274   6.268   6.312 -0.1089  0.0663  0.1315
 9345TIP3    H149450   5.326   6.303   6.384 -0.0403  1.1379 -0.4301
 9345TIP3    H249451   5.336   6.259   6.239 -0.1688 -1.0443  0.2057
 9346TIP3   OH249452   4.320   5.882  12.813 -0.1004 -0.1313 -0.0583
 9346TIP3    H149453   4.283   5.795  12.827  0.9357 -0.2967  1.6733
 9346TIP3    H249454   4.290   5.933  12.888  2.1337  0.0726  0.7150
 9347TIP3   OH249455   6.374   2.314  14.030 -0.0483 -0.5476  0.9452
 9347TIP3    H149456   6.391   2.285  13.941  0.4306  0.1692  0.8004
 9347TIP3    H249457   6.279   2.322  14.035 -0.2297 -2.5132  1.1092
 9348TIP3   OH249458   6.761   1.779   2.056 -0.4709  0.3176  0.1705
 9348TIP3    H149459   6.835   1.814   2.007  0.4191 -0.9261  0.5714
 9348TIP3    H249460   6.795   1.697   2.094 -2.2869 -0.6867 -0.3048
 9349TIP3   OH249461   1.563   2.996  11.321  0.4154 -0.2772  0.7673
 9349TIP3    H149462   1.487   2.942  11.301  0.4130 -0.4070  1.1228
 9349TIP3    H249463   1.629   2.969  11.257  0.2367 -0.3149  0.5976
 9350TIP3   OH249464   6.208   0.585   3.379  0.3921  0.0390 -0.2298
 9350TIP3    H149465   6.233   0.675   3.359  0.4051 -0.2213 -1.4266
 9350TIP3    H249466   6.190   0.585   3.473 -0.4964  1.5023 -0.3901
 9351TIP3   OH249467   3.948   5.728   1.733  0.1472  0.0252 -0.2153
 9351TIP3    H149468   3.870   5.699   1.780 -1.7144  0.3315 -3.0173
 9351TIP3    H249469   3.930   5.820   1.711  1.1840  0.0304 -1.0731
 9352TIP3   OH249470   1.126   4.188   3.340  0.1762 -0.4909  0.1425
 9352TIP3    H149471   1.092   4.245   3.409 -0.2453 -0.6707  0.0901
 9352TIP3    H249472   1.221   4.194   3.347  0.1415 -1.0801  1.2146
 9353TIP3   OH249473   5.993   4.230  13.101  0.0614 -0.3098  0.3352
 9353TIP3    H149474   5.971   4.303  13.158 -0.7770 -1.1381  1.0989
 9353TIP3    H249475   6.086   4.241  13.082 -0.5948  2.3213 -1.5601
 9354TIP3   OH249476   4.723   5.660   4.019 -0.3605 -0.4831 -0.0213
 9354TIP3    H149477   4.726   5.575   3.976 -1.3579 -0.9364  0.8065
 9354TIP3    H249478   4.637   5.696   3.996  0.0543  0.2943 -0.3664
 9355TIP3   OH249479   0.183   1.054  15.318 -0.0594  0.2281  0.0526
 9355TIP3    H149480   0.263   1.065  15.369 -0.8615  0.4518  1.3044
 9355TIP3    H249481   0.206   0.992  15.250  0.9691 -0.3219  0.8840
 9356TIP3   OH249482   6.470   4.550   2.898 -0.6421 -0.1982  0.1036
 9356TIP3    H149483   6.542   4.515   2.847 -0.3449  0.3912  0.1112
 9356TIP3    H249484   6.398   4.489   2.884 -0.0979 -0.8691  0.2172
 9357TIP3   OH249485   4.350   0.644  15.132  0.3967  0.5101 -0.3630
 9357TIP3    H149486   4.362   0.693  15.213 -1.5966 -0.6823  0.6913
 9357TIP3    H249487   4.345   0.712  15.064  1.2810  1.5602  0.6059
 9358TIP3   OH249488   1.909   3.147   0.418  0.2486  0.6636  0.0287
 9358TIP3    H149489   1.989   3.095   0.429 -1.1805 -2.0987 -2.0116
 9358TIP3    H249490   1.916   3.184   0.330 -0.5984  0.6104 -0.0673
 9359TIP3   OH249491   6.592   1.275   1.889  0.1586  0.1278 -0.3079
 9359TIP3    H149492   6.499   1.290   1.871  0.0285  0.3231  0.5087
 9359TIP3    H249493   6.601   1.294   1.982  0.9031 -0.4585 -0.2637
 9360TIP3   OH249494   2.555   3.883  15.104  0.3423  0.5040  0.4032
 9360TIP3    H149495   2.503   3.905  15.181  1.8912  1.1757  1.2975
 9360TIP3    H249496   2.592   3.797  15.124  0.2971  0.4288  0.1665
 9361TIP3   OH249497   0.557   2.576   2.444 -0.7233  0.1633 -0.0017
 9361TIP3    H149498   0.528   2.527   2.521 -0.7412 -0.2359 -0.2673
 9361TIP3    H249499   0.650   2.594   2.460 -0.7791  0.2699  0.2119
 9362TIP3   OH249500   5.849   1.369  12.293 -0.5849 -0.4465  0.0551
 9362TIP3    H149501   5.942   1.348  12.281 -0.6678 -1.5416  1.2692
 9362TIP3    H249502   5.827   1.335  12.379 -3.2938 -4.4379 -2.0312
 9363TIP3   OH249503   2.082   6.182   4.503  0.9254 -0.1730  0.5605
 9363TIP3    H149504   2.175   6.165   4.515  1.0517 -0.5377 -0.8275
 9363TIP3    H249505   2.068   6.268   4.542  2.2499  0.7359 -0.8988
 9364TIP3   OH249506   3.553   1.579  12.638  0.1050  0.8146  0.2272
 9364TIP3    H149507   3.576   1.488  12.616 -3.5075  0.2412 -1.5753
 9364TIP3    H249508   3.601   1.631  12.574  1.5774  0.1387  0.7567
 9365TIP3   OH249509   4.397   4.674  11.139  0.0364 -0.2483  0.0268
 9365TIP3    H149510   4.417   4.614  11.067 -1.7926 -1.9429  0.8958
 9365TIP3    H249511   4.416   4.624  11.218  0.4593  1.0364  0.7542
 9366TIP3   OH249512   0.068   1.970   1.307 -0.1294 -0.6159 -0.6396
 9366TIP3    H149513  -0.009   1.954   1.361  0.6090  0.8802  0.9220
 9366TIP3    H249514   0.072   1.895   1.248 -3.2237 -0.2880 -1.3195
 9367TIP3   OH249515   4.450   5.252  10.701  0.2422 -0.0684  0.0090
 9367TIP3    H149516   4.359   5.263  10.673  0.5515 -0.1287 -1.0049
 9367TIP3    H249517   4.483   5.341  10.713 -0.5376 -0.0378  2.3295
 9368TIP3   OH249518   6.076   6.493  15.941 -0.0363  0.1911  0.2148
 9368TIP3    H149519   6.124   6.539  15.872  0.8406 -1.2113 -0.1390
 9368TIP3    H249520   6.048   6.411  15.901 -3.1463  1.1345  0.2865
 9369TIP3   OH249521   1.867   5.546  11.011 -0.7544 -0.2163  0.5953
 9369TIP3    H149522   1.943   5.589  11.051 -0.7068 -0.4479  0.7521
 9369TIP3    H249523   1.897   5.521  10.923 -0.7251 -0.0908  0.5697
 9370TIP3   OH249524   3.942   0.508  14.683  0.0425 -0.5866 -0.2284
 9370TIP3    H149525   3.938   0.455  14.604  0.6340 -0.5455 -0.2910
 9370TIP3    H249526   3.931   0.446  14.755  2.0697 -1.0183 -0.2466
 9371TIP3   OH249527   0.792   3.734  15.612  0.0703 -0.4910  0.3328
 9371TIP3    H149528   0.801   3.643  15.584  0.9479 -0.7048  1.2877
 9371TIP3    H249529   0.880   3.760  15.638 -0.3474  0.3483  0.9322
 9372TIP3   OH249530   4.397   2.061   5.134 -0.0491 -0.2733  0.1906
 9372TIP3    H149531   4.360   1.984   5.178  1.3294  0.1383  2.1466
 9372TIP3    H249532   4.399   2.128   5.202 -1.1620  1.4927 -1.4815
 9373TIP3   OH249533   1.634   3.165  13.614 -0.0604  0.1517  0.0988
 9373TIP3    H149534   1.701   3.126  13.558 -0.2822  0.9040 -0.6914
 9373TIP3    H249535   1.613   3.096  13.677  0.6442 -0.4790 -0.3487
 9374TIP3   OH249536   0.097   6.385   4.859  0.0722  0.3075 -0.0312
 9374TIP3    H149537   0.120   6.450   4.925  0.0720  0.6841 -0.4058
 9374TIP3    H249538   0.162   6.315   4.871  0.6150  0.7761 -0.2185
 9375TIP3   OH249539   2.365   2.820  13.816 -0.1944  0.0846  0.3510
 9375TIP3    H149540   2.358   2.727  13.793  0.7131 -0.2133  1.2193
 9375TIP3    H249541   2.374   2.865  13.733  0.7513 -0.7468 -0.0043
 9376TIP3   OH249542   0.006   4.144   1.188  0.3064  0.5337  0.6252
 9376TIP3    H149543   0.038   4.064   1.146 -1.7048  0.2801 -0.5153
 9376TIP3    H249544   0.040   4.214   1.133 -0.6659  0.2907 -0.3076
 9377TIP3   OH249545   0.593   0.153   5.102  0.4021 -0.1929 -0.2141
 9377TIP3    H149546   0.541   0.232   5.113  0.8876  0.4214 -2.1392
 9377TIP3    H249547   0.682   0.185   5.087  0.8223 -1.1432  0.2185
 9378TIP3   OH249548   5.829   6.578   3.159  0.1429 -0.5878  0.1653
 9378TIP3    H149549   5.855   6.617   3.243  1.0699 -0.0786 -0.3486
 9378TIP3    H249550   5.735   6.594   3.154  0.5317  1.9019 -0.1657
 9379TIP3   OH249551   1.693   3.158   2.621  0.1080  0.1649 -0.0965
 9379TIP3    H149552   1.779   3.199   2.623  0.5018 -0.6624  0.5542
 9379TIP3    H249553   1.655   3.176   2.707 -0.0009 -0.2169 -0.0609
 9380TIP3   OH249554   1.775   2.848   4.560  0.0263 -0.2570  0.1213
 9380TIP3    H149555   1.803   2.758   4.545  0.6113  0.4435 -3.3733
 9380TIP3    H249556   1.846   2.902   4.527 -1.2777  1.4999  0.0931
 9381TIP3   OH249557   1.408   1.814   3.368  0.2643 -1.4193  0.2431
 9381TIP3    H149558   1.462   1.872   3.422  0.4802 -2.1188  0.7779
 9381TIP3    H249559   1.450   1.816   3.282 -0.5954  0.3944 -0.1521
 9382TIP3   OH249560   4.451   1.938  10.747  0.0169  0.3957 -0.0839
 9382TIP3    H149561   4.540   1.968  10.726  0.7266 -0.1589  2.0639
 9382TIP3    H249562   4.427   1.987  10.826 -0.1616 -2.1068  1.4665
 9383TIP3   OH249563   0.510   5.597  13.237  0.2979  0.0493  0.4576
 9383TIP3    H149564   0.504   5.614  13.331 -2.4277  0.3754  0.2709
 9383TIP3    H249565   0.603   5.581  13.222  0.7985  0.0286  3.1883
 9384TIP3   OH249566   0.475   2.226  15.641  0.5275 -0.1153 -0.3948
 9384TIP3    H149567   0.558   2.258  15.677  0.9239 -0.3637 -1.0943
 9384TIP3    H249568   0.499   2.152  15.586 -0.1765 -0.2736 -0.4937
 9385TIP3   OH249569   3.883   6.485   2.878  0.8768  0.1938  0.1261
 9385TIP3    H149570   3.869   6.399   2.919  0.8484 -0.1648 -0.6341
 9385TIP3    H249571   3.918   6.465   2.792  1.1960  0.9632  0.0787
 9386TIP3   OH249572   6.075   2.501  15.992  0.0684 -0.0322  0.0505
 9386TIP3    H149573   6.030   2.423  15.961  1.0113  0.3680 -2.3719
 9386TIP3    H249574   6.014   2.573  15.975 -0.1402 -0.0143  0.8138
 9387TIP3   OH249575   3.655   3.346   5.803  0.4817  0.0385 -0.1364
 9387TIP3    H149576   3.671   3.353   5.709  0.4101 -1.4343 -0.2727
 9387TIP3    H249577   3.692   3.261   5.827 -0.2226  0.0470  1.0092
 9388TIP3   OH249578   0.682   1.360  14.337  0.4238  0.5485  0.2643
 9388TIP3    H149579   0.760   1.307  14.353  0.8208  0.7580 -0.9110
 9388TIP3    H249580   0.667   1.354  14.242 -1.6377 -0.3770  0.6103
 9389TIP3   OH249581   5.609   0.161  12.599  0.1261  0.1690  0.1494
 9389TIP3    H149582   5.574   0.072  12.597  0.5170 -0.0188  1.3258
 9389TIP3    H249583   5.634   0.179  12.508 -0.1251 -0.8501 -0.1287
 9390TIP3   OH249584   2.893   0.890  16.031  0.0530  0.4438 -0.3061
 9390TIP3    H149585   2.909   0.795  16.030  0.9194  0.5881 -1.0216
 9390TIP3    H249586   2.875   0.912  15.940 -1.4355  0.7641  0.0626
 9391TIP3   OH249587   3.339   2.975  16.581 -0.2709  0.1378 -0.0697
 9391TIP3    H149588   3.299   2.900  16.625  2.3891 -0.7951  0.8903
 9391TIP3    H249589   3.342   3.043  16.648  3.0218 -1.0137  1.0749
 9392TIP3   OH249590   0.386   1.871  12.443  0.9477  1.0037  0.7468
 9392TIP3    H149591   0.453   1.829  12.498  2.7123  0.8366 -1.4815
 9392TIP3    H249592   0.402   1.965  12.454  0.0128  1.0266  2.0477
 9393TIP3   OH249593   6.659   4.246  14.798 -0.2931 -0.0321 -0.0177
 9393TIP3    H149594   6.569   4.221  14.820  0.4346 -2.1685  0.6708
 9393TIP3    H249595   6.687   4.180  14.735  1.1564 -0.0300  0.6064
 9394TIP3   OH249596   5.270   0.435   4.612 -0.3528 -0.0988  0.5646
 9394TIP3    H149597   5.230   0.521   4.600  2.0418  0.7121 -2.4010
 9394TIP3    H249598   5.343   0.450   4.672 -1.3198 -0.5629  1.8868
 9395TIP3   OH249599   4.398   4.739  14.985  0.3666  0.2171 -0.2070
 9395TIP3    H149600   4.396   4.805  14.916  0.1784 -0.2391 -0.6408
 9395TIP3    H249601   4.364   4.659  14.944  0.2338 -0.0542  0.4135
 9396TIP3   OH249602   3.099   4.463   6.569  0.1927 -0.5892  0.2269
 9396TIP3    H149603   3.105   4.372   6.600 -0.3275 -1.6491 -2.6758
 9396TIP3    H249604   3.006   4.483   6.571  0.3182 -0.0550  0.9938
 9397TIP3   OH249605   1.801   3.391  14.192 -0.8061  0.2097 -0.7270
 9397TIP3    H149606   1.756   3.405  14.275  1.4476  0.1677  0.5265
 9397TIP3    H249607   1.752   3.319  14.150  0.1001 -2.1706  2.1388
 9398TIP3   OH249608   3.348   3.449  16.170 -0.2322 -0.2183 -0.1646
 9398TIP3    H149609   3.402   3.370  16.166 -1.3324 -0.9781 -0.1677
 9398TIP3    H249610   3.331   3.462  16.263  0.2897  0.2634 -0.1337
 9399TIP3   OH249611   1.654   0.743   1.503 -0.1903 -0.1784 -0.1674
 9399TIP3    H149612   1.601   0.818   1.529 -1.4508 -0.4984 -1.7159
 9399TIP3    H249613   1.592   0.670   1.500  0.7618 -1.0055  0.0484
 9400TIP3   OH249614   3.713   5.836  13.782  0.1168 -0.5511  0.5529
 9400TIP3    H149615   3.620   5.815  13.783  0.0709 -0.9311 -2.8422
 9400TIP3    H249616   3.756   5.758  13.817 -0.7787 -1.0579  0.5444
 9401TIP3   OH249617   5.110   0.590  15.771 -0.2624 -0.3599  0.4658
 9401TIP3    H149618   5.100   0.497  15.791  3.4022 -0.8131  0.5687
 9401TIP3    H249619   5.151   0.592  15.685  1.4613  1.0854  1.2866
 9402TIP3   OH249620   3.354   6.058  14.298 -0.2343  0.4189 -0.0852
 9402TIP3    H149621   3.309   5.996  14.355  0.9652 -1.1895 -0.8429
 9402TIP3    H249622   3.369   6.009  14.217 -0.0513  1.9861 -1.0214
 9403TIP3   OH249623   5.729   1.443  13.121 -0.3801 -0.1536 -0.9718
 9403TIP3    H149624   5.792   1.426  13.050 -0.1875  1.5420 -1.2347
 9403TIP3    H249625   5.780   1.489  13.187 -0.5978 -1.6154  0.2186
 9404TIP3   OH249626   0.688   5.279  15.858 -0.1680  0.1008 -0.0711
 9404TIP3    H149627   0.649   5.353  15.905  0.5400  0.0519  0.6074
 9404TIP3    H249628   0.760   5.319  15.808 -0.0122 -0.0792  0.0122
 9405TIP3   OH249629   3.205   5.744   5.179 -0.7262  0.1019  0.0099
 9405TIP3    H149630   3.154   5.664   5.164 -1.0749  0.1202  1.1033
 9405TIP3    H249631   3.263   5.722   5.252 -3.6768  2.1180  3.0870
 9406TIP3   OH249632   6.401   0.266  12.479 -0.5719 -0.1323  0.0996
 9406TIP3    H149633   6.347   0.335  12.439 -2.2877 -1.4133  0.1296
 9406TIP3    H249634   6.389   0.277  12.573 -0.7383 -0.3676  0.1073
 9407TIP3   OH249635   1.157   6.142  12.971  0.1861 -0.0640  0.6878
 9407TIP3    H149636   1.148   6.125  12.877 -0.9116 -0.8225  0.9216
 9407TIP3    H249637   1.169   6.055  13.010  0.5163  0.2369  1.2686
 9408TIP3   OH249638   0.670   0.718   4.747  0.2518 -0.2400 -0.2349
 9408TIP3    H149639   0.632   0.805   4.746  0.3877 -0.1832 -0.4881
 9408TIP3    H249640   0.628   0.672   4.674 -0.4628 -0.6631  0.4346
 9409TIP3   OH249641   1.284   6.466   6.337 -0.3706  0.2122 -0.1909
 9409TIP3    H149642   1.333   6.447   6.417  1.6247 -0.0108 -1.4240
 9409TIP3    H249643   1.350   6.460   6.267 -2.6788 -2.8354 -2.2285
 9410TIP3   OH249644   3.894   4.299  16.001  0.0240  0.1128  0.0827
 9410TIP3    H149645   3.943   4.239  15.945  0.1850 -0.1561  0.5094
 9410TIP3    H249646   3.803   4.289  15.972  0.3698  1.5524 -1.5707
 9411TIP3   OH249647   3.024   0.520  15.250 -0.2187  0.0828  0.3104
 9411TIP3    H149648   2.952   0.471  15.210 -1.0169  1.3134  0.2190
 9411TIP3    H249649   3.040   0.475  15.333 -0.6713 -0.5756  0.0504
 9412TIP3   OH249650   3.389   0.981   3.848 -0.3203 -0.7211 -0.5291
 9412TIP3    H149651   3.398   1.060   3.902 -0.2546 -0.7884 -0.4422
 9412TIP3    H249652   3.356   0.914   3.908  1.0396 -1.1574 -0.2512
 9413TIP3   OH249653   2.347   2.193  12.080 -0.4035  0.2265 -0.5074
 9413TIP3    H149654   2.412   2.123  12.090  0.7936  1.5677  1.2296
 9413TIP3    H249655   2.302   2.171  11.998 -0.2662 -2.7369  0.1648
 9414TIP3   OH249656   6.515   3.246  11.982 -0.3756  0.6247 -0.1743
 9414TIP3    H149657   6.552   3.186  11.916 -0.6257 -0.3885  0.5892
 9414TIP3    H249658   6.426   3.263  11.951 -0.4900  0.1604 -0.1048
 9415TIP3   OH249659   6.756   0.047   0.361  0.8348  0.0664  0.5310
 9415TIP3    H149660   6.792   0.060   0.449  0.4380  1.2981  0.5297
 9415TIP3    H249661   6.830   0.018   0.309  1.7771  2.1871  0.6181
 9416TIP3   OH249662   4.800   5.434   3.863  0.0796 -0.1147 -0.2859
 9416TIP3    H149663   4.885   5.463   3.897 -0.4008  0.3416  0.5475
 9416TIP3    H249664   4.822   5.364   3.802  1.0515 -0.1076  0.0361
 9417TIP3   OH249665   5.359   2.404  11.326 -0.3664 -0.2762 -0.0830
 9417TIP3    H149666   5.336   2.422  11.235  1.0640 -0.2797 -0.4608
 9417TIP3    H249667   5.284   2.357  11.361 -0.6583 -0.8577 -1.4585
 9418TIP3   OH249668   2.899   4.470  12.540 -0.2072 -0.4794  0.1889
 9418TIP3    H149669   2.976   4.420  12.514  0.4623  0.3377  0.5568
 9418TIP3    H249670   2.876   4.522  12.463  0.5719  0.4604  0.5908
 9419TIP3   OH249671   0.795   5.781  13.258  0.7854 -0.4744 -0.7088
 9419TIP3    H149672   0.837   5.711  13.308 -0.4106 -0.1501  0.8071
 9419TIP3    H249673   0.725   5.812  13.315 -0.9281 -0.3906 -2.8130
 9420TIP3   OH249674   0.033   2.989  13.514 -0.1806  0.4120  0.0801
 9420TIP3    H149675   0.104   3.053  13.512  1.1679 -1.0057  1.0077
 9420TIP3    H249676   0.011   2.974  13.422  2.1092 -0.5859 -0.3505
 9421TIP3   OH249677   2.253   4.427  14.560  0.3006  0.7872 -0.3431
 9421TIP3    H149678   2.199   4.505  14.573 -2.0603 -0.5821 -1.6959
 9421TIP3    H249679   2.274   4.397  14.649 -1.0964  1.3597  0.1895
 9422TIP3   OH249680   5.487   4.558   2.608  0.9426 -0.0148 -0.0190
 9422TIP3    H149681   5.464   4.562   2.701 -2.2056  0.0376 -0.7213
 9422TIP3    H249682   5.556   4.622   2.597  2.0910 -0.7678  2.4764
 9423TIP3   OH249683   3.175   3.722   4.050 -0.4405 -0.2817  0.4708
 9423TIP3    H149684   3.268   3.732   4.068 -0.1359  0.4816 -1.3851
 9423TIP3    H249685   3.165   3.633   4.017 -0.5213 -0.6785  1.5648
 9424TIP3   OH249686   6.272   0.102   1.997  0.6169 -0.6113 -0.1451
 9424TIP3    H149687   6.321   0.183   1.983  1.4094 -1.2340 -1.0782
 9424TIP3    H249688   6.321   0.036   1.948 -0.3305 -1.5468  0.1459
 9425TIP3   OH249689   4.947   4.279  12.450  0.0419  0.0130  0.5278
 9425TIP3    H149690   4.897   4.235  12.381 -1.1966  0.2797  1.2288
 9425TIP3    H249691   4.997   4.209  12.492 -1.2403 -0.6120  1.0564
 9426TIP3   OH249692   0.187   0.300  16.649  0.2356 -0.0790  0.3994
 9426TIP3    H149693   0.096   0.305  16.679  0.5415 -0.6776  1.4560
 9426TIP3    H249694   0.238   0.335  16.722  0.8123  0.8227 -0.4273
 9427TIP3   OH249695   3.290   5.148  13.163  0.5218  0.4611 -0.7036
 9427TIP3    H149696   3.333   5.206  13.225  1.1883 -0.3669 -0.3805
 9427TIP3    H249697   3.213   5.114  13.209 -0.5089  1.9622 -1.2889
 9428TIP3   OH249698   3.678   4.794  11.268 -0.9780  0.4236 -0.2249
 9428TIP3    H149699   3.628   4.719  11.300 -1.1262  1.1767  1.3532
 9428TIP3    H249700   3.767   4.761  11.258 -0.8335  0.2461  1.3903
 9429TIP3   OH249701   6.602   1.544  12.247 -0.0349 -0.0310 -0.1595
 9429TIP3    H149702   6.547   1.563  12.323  0.9051 -2.3720  1.1517
 9429TIP3    H249703   6.605   1.448  12.242  1.9875  0.0621 -1.6127
 9430TIP3   OH249704   2.008   5.569  15.885 -0.0205  0.4931 -0.1360
 9430TIP3    H149705   2.083   5.512  15.867 -0.7206  0.0872 -1.8993
 9430TIP3    H249706   2.005   5.576  15.981  1.9056  0.0459 -0.0288
 9431TIP3   OH249707   2.786   2.736   4.456  0.1764  0.1447  0.7326
 9431TIP3    H149708   2.808   2.650   4.491 -0.4817  0.1413  1.1530
 9431TIP3    H249709   2.803   2.796   4.529  2.4931  0.6127 -0.1742
 9432TIP3   OH249710   2.377   2.589  11.389  0.8412  0.0639  0.4092
 9432TIP3    H149711   2.439   2.574  11.318 -0.3871 -1.3035 -0.3831
 9432TIP3    H249712   2.292   2.592  11.347  0.1005 -0.7495  1.8146
 9433TIP3   OH249713   2.245   4.937  11.349  0.0605  0.0353  0.2061
 9433TIP3    H149714   2.262   4.875  11.277 -1.6900  0.5508 -0.6699
 9433TIP3    H249715   2.264   5.023  11.311  0.8562  0.1715  0.9095
 9434TIP3   OH249716   3.632   4.285   5.793 -0.2558  0.0650  0.2225
 9434TIP3    H149717   3.707   4.227   5.785 -0.9188 -0.7333 -0.2094
 9434TIP3    H249718   3.627   4.330   5.708  0.7059  1.3280  0.8044
 9435TIP3   OH249719   3.573   5.516  12.721 -0.0427 -0.0645  0.4826
 9435TIP3    H149720   3.580   5.520  12.816  2.7995  1.4902  0.2476
 9435TIP3    H249721   3.567   5.607  12.694  1.5820 -0.3712 -0.9800
 9436TIP3   OH249722   0.833   6.606   2.702  0.0925  0.0414  1.0120
 9436TIP3    H149723   0.745   6.581   2.730  0.1713 -2.4162 -0.7243
 9436TIP3    H249724   0.891   6.542   2.742  0.8967  0.5371  0.6696
 9437TIP3   OH249725   4.060   0.069  14.879 -0.1345  0.4987  0.3533
 9437TIP3    H149726   3.971   0.038  14.865 -0.1454  1.0576 -0.8417
 9437TIP3    H249727   4.079   0.049  14.971 -0.0522 -3.2354 -0.4316
 9438TIP3   OH249728   4.206   5.917   2.688  0.0592  0.7715 -0.4074
 9438TIP3    H149729   4.192   6.008   2.662  1.3020  0.2897 -2.9228
 9438TIP3    H249730   4.301   5.909   2.697  0.0716 -0.6051 -1.5806
 9439TIP3   OH249731   2.090   2.890  15.832 -0.1356 -0.3880 -0.1070
 9439TIP3    H149732   2.004   2.874  15.794  0.5408 -0.2237 -1.7095
 9439TIP3    H249733   2.132   2.952  15.773  0.3976  0.9554  1.6512
 9440TIP3   OH249734   0.295   3.206   5.766  0.4375  0.2704 -0.5681
 9440TIP3    H149735   0.378   3.164   5.790 -0.7223 -1.2228  0.8874
 9440TIP3    H249736   0.267   3.160   5.687  0.7359  0.4410 -0.7757
 9441TIP3   OH249737   2.748   2.843  14.992  0.0463 -0.0225  0.4749
 9441TIP3    H149738   2.843   2.846  15.001 -0.0151 -0.5022  1.3235
 9441TIP3    H249739   2.716   2.817  15.079 -0.9584  1.6784  0.6243
 9442TIP3   OH249740   1.108   2.717  15.837  0.1683  0.4921  0.4705
 9442TIP3    H149741   1.083   2.627  15.856 -0.7261  0.7157  0.3740
 9442TIP3    H249742   1.036   2.770  15.871  0.5566  1.1548  0.2737
 9443TIP3   OH249743   0.347   2.466  15.586  0.1757  0.1237 -0.2809
 9443TIP3    H149744   0.375   2.377  15.608  0.3428  0.1645 -0.3236
 9443TIP3    H249745   0.307   2.500  15.666 -2.2192 -0.8919 -1.0198
 9444TIP3   OH249746   3.868   1.613  16.562 -0.3563 -0.0767 -0.3430
 9444TIP3    H149747   3.777   1.632  16.584 -0.7612 -1.6415 -0.6130
 9444TIP3    H249748   3.869   1.605  16.467 -0.1824 -1.3210 -0.2380
 9445TIP3   OH249749   2.861   2.701   1.085 -0.7713  0.6183  0.1490
 9445TIP3    H149750   2.795   2.769   1.099 -0.3334  1.0931 -0.0956
 9445TIP3    H249751   2.890   2.679   1.174 -0.8622  0.8034  0.2265
 9446TIP3   OH249752   4.483   5.935   1.310  0.1138 -0.0943  0.1537
 9446TIP3    H149753   4.504   5.842   1.299  3.3804  0.4211  1.4722
 9446TIP3    H249754   4.430   5.938   1.389 -0.8300 -0.9112 -0.4266
 9447TIP3   OH249755   3.804   4.520   3.005  1.0755  0.0761  0.5761
 9447TIP3    H149756   3.798   4.430   3.035  2.2689 -0.2059  0.0338
 9447TIP3    H249757   3.894   4.529   2.973  1.9442  2.3659  3.4708
 9448TIP3   OH249758   3.260   0.566  13.080 -0.2690  0.0652  0.1398
 9448TIP3    H149759   3.165   0.562  13.081 -0.2629 -0.0233  0.8410
 9448TIP3    H249760   3.281   0.631  13.013 -0.9474  3.3071  2.8969
 9449TIP3   OH249761   3.932   5.489  16.328 -0.0366 -0.3523 -0.6440
 9449TIP3    H149762   4.014   5.440  16.327 -1.2397 -2.4678  0.1064
 9449TIP3    H249763   3.883   5.455  16.253 -0.6761  0.1075 -0.4381
 9450TIP3   OH249764   5.929   3.636  10.684 -0.2464 -0.4063 -0.0320
 9450TIP3    H149765   5.977   3.708  10.643  0.7735 -0.3921  1.1449
 9450TIP3    H249766   5.989   3.561  10.677 -0.2207 -0.4956  1.0571
 9451TIP3   OH249767   5.796   1.680   1.858 -0.1632  0.1520 -0.1289
 9451TIP3    H149768   5.820   1.627   1.934 -0.2095  0.3200  0.0027
 9451TIP3    H249769   5.879   1.701   1.815 -0.2144 -0.8937 -0.7627
 9452TIP3   OH249770   6.049   0.915   4.080 -0.0563 -0.1991  0.5261
 9452TIP3    H149771   5.960   0.950   4.071 -0.8421 -2.1542  0.4336
 9452TIP3    H249772   6.037   0.828   4.117  1.8111 -0.6551  0.1198
 9453TIP3   OH249773   6.474   0.583  16.313  0.0230  0.4879 -0.0566
 9453TIP3    H149774   6.416   0.657  16.292 -2.5435 -0.9515  1.7641
 9453TIP3    H249775   6.470   0.576  16.408  2.6594 -0.1277  0.0499
 9454TIP3   OH249776   2.072   4.681   0.567 -0.1072  0.1783 -0.1154
 9454TIP3    H149777   2.137   4.744   0.598  0.7215 -0.3768 -0.6856
 9454TIP3    H249778   2.082   4.606   0.626  1.1675 -0.7024 -1.4136
 9455TIP3   OH249779   5.294   0.482   3.069 -0.4231  0.0026  0.2630
 9455TIP3    H149780   5.372   0.449   3.025 -0.3295 -0.6577  0.9010
 9455TIP3    H249781   5.271   0.562   3.022  1.1954  0.7183  0.6543
 9456TIP3   OH249782   2.055   2.204   3.611  0.2716  0.8997  0.3728
 9456TIP3    H149783   2.080   2.199   3.703 -0.1613 -0.0398  0.4481
 9456TIP3    H249784   2.016   2.291   3.601 -1.6502  0.2048  1.6033
 9457TIP3   OH249785   5.747   1.374   3.791  0.6651  0.1761  0.0498
 9457TIP3    H149786   5.666   1.346   3.835  1.4601 -1.1052  0.7159
 9457TIP3    H249787   5.760   1.309   3.722  1.1767  0.3321 -0.0019
 9458TIP3   OH249788   3.424   1.882  12.997  0.0003  0.2525  0.2770
 9458TIP3    H149789   3.484   1.905  12.926 -0.9611  1.8777 -0.0257
 9458TIP3    H249790   3.479   1.841  13.063  1.4273  1.5995 -0.0537
 9459TIP3   OH249791   3.110   5.056   4.644 -0.1807 -0.8494 -0.1625
 9459TIP3    H149792   3.191   5.047   4.694 -1.3258 -3.0031  1.4047
 9459TIP3    H249793   3.138   5.086   4.558  2.0494  0.7686  1.0605
 9460TIP3   OH249794   0.805   6.271   3.584 -0.1395  0.2354 -0.0759
 9460TIP3    H149795   0.899   6.256   3.599 -0.1500  0.1231 -0.1202
 9460TIP3    H249796   0.768   6.279   3.671 -0.0195  0.7120 -0.0651
 9461TIP3   OH249797   2.954   0.887   3.176 -0.4859  0.6562  0.0776
 9461TIP3    H149798   2.905   0.920   3.251  0.6105  0.2694  0.9723
 9461TIP3    H249799   3.044   0.878   3.208  0.1389  1.2002 -1.4968
 9462TIP3   OH249800   6.174   1.206  17.084  0.0733  0.6600 -0.3326
 9462TIP3    H149801   6.179   1.163  16.999 -0.2944  0.8209 -0.4336
 9462TIP3    H249802   6.170   1.134  17.147  0.4188  0.5402 -0.4420
 9463TIP3   OH249803   3.294   5.453   1.246  0.0404 -0.0846  0.1191
 9463TIP3    H149804   3.222   5.397   1.215  2.1069 -2.4124 -0.6098
 9463TIP3    H249805   3.307   5.429   1.337  0.2659 -0.0288  0.1017
 9464TIP3   OH249806   6.111   4.417   4.585 -0.8992  0.3324 -0.0452
 9464TIP3    H149807   6.103   4.322   4.582 -0.0410  0.2514  0.0583
 9464TIP3    H249808   6.132   4.443   4.495 -1.6062  0.4713 -0.1719
 9465TIP3   OH249809   3.733   1.224  14.293  0.2765  0.0853  0.4135
 9465TIP3    H149810   3.722   1.205  14.200  0.3729  0.6686  0.2769
 9465TIP3    H249811   3.761   1.141  14.332 -2.7954 -0.9942  0.4655
 9466TIP3   OH249812   2.191   4.831  16.661 -0.5345 -0.0783  0.4059
 9466TIP3    H149813   2.113   4.782  16.688 -1.7624  1.3819 -0.4393
 9466TIP3    H249814   2.250   4.825  16.736 -0.4226 -3.3150  0.1339
 9467TIP3   OH249815   5.814   1.459  14.722  0.3831 -0.0545  0.1354
 9467TIP3    H149816   5.816   1.396  14.794  1.5419  0.0230  0.1694
 9467TIP3    H249817   5.755   1.420  14.657 -0.0259 -0.4973  0.7762
 9468TIP3   OH249818   1.973   0.149  11.522 -0.6957  0.3854  0.2964
 9468TIP3    H149819   1.908   0.135  11.453 -1.8735  3.6116  0.6484
 9468TIP3    H249820   2.055   0.166  11.476 -1.0285  0.5179 -0.2479
 9469TIP3   OH249821   3.994   5.518  15.456  0.2784  0.1093  0.2359
 9469TIP3    H149822   3.905   5.523  15.491  0.0013 -0.4520 -0.3785
 9469TIP3    H249823   4.007   5.425  15.437  1.2736  0.0724  1.0266
 9470TIP3   OH249824   4.091   0.772  16.900 -0.4693 -0.2301  0.0905
 9470TIP3    H149825   4.118   0.781  16.809  0.0448 -0.5579  0.2082
 9470TIP3    H249826   4.044   0.853  16.920  0.2778  0.2723 -0.1653
 9471TIP3   OH249827   2.226   3.878   0.345 -0.2345  0.4422  0.5397
 9471TIP3    H149828   2.270   3.942   0.289  1.9053 -1.6808 -0.3003
 9471TIP3    H249829   2.249   3.904   0.434 -0.1491  1.3545  0.2586
 9472TIP3   OH249830   0.767   5.994  17.082 -0.6000 -0.3269 -0.6875
 9472TIP3    H149831   0.786   5.935  17.155 -1.1973  0.4064  0.0722
 9472TIP3    H249832   0.677   5.973  17.058 -0.3062 -0.7643 -1.3980
 9473TIP3   OH249833   3.315   2.283   1.636 -0.3827 -0.1045 -0.6625
 9473TIP3    H149834   3.406   2.315   1.636 -0.2445 -0.4883 -1.3703
 9473TIP3    H249835   3.263   2.357   1.607 -0.1831 -0.1833 -1.2268
 9474TIP3   OH249836   5.666   4.314   0.424  0.6296  0.1689  0.3764
 9474TIP3    H149837   5.619   4.382   0.472  1.8538  2.4533 -1.5451
 9474TIP3    H249838   5.601   4.246   0.407 -0.5263  0.6850  2.6635
 9475TIP3   OH249839   5.924   2.398  12.679 -0.2338  0.4273 -0.1092
 9475TIP3    H149840   5.890   2.487  12.690 -1.5144  0.1574 -1.5566
 9475TIP3    H249841   5.846   2.346  12.658  0.7487 -0.6912 -1.0433
 9476TIP3   OH249842   1.863   0.798   3.887  0.1611 -0.3843  0.0783
 9476TIP3    H149843   1.828   0.749   3.813  1.5196 -0.2740 -0.6505
 9476TIP3    H249844   1.880   0.732   3.954 -1.8662 -0.3775  0.6180
 9477TIP3   OH249845   3.215   0.292  13.130 -0.1243  0.4633 -0.5793
 9477TIP3    H149846   3.225   0.377  13.086  2.7677  0.4263 -0.0987
 9477TIP3    H249847   3.226   0.227  13.060  0.7150  0.4485 -0.4326
 9478TIP3   OH249848   6.507   6.057   4.147  0.1881 -0.3409 -0.3983
 9478TIP3    H149849   6.573   5.993   4.120  1.0329  0.0898  0.6089
 9478TIP3    H249850   6.424   6.013   4.131  0.7054 -0.9099 -1.6446
 9479TIP3   OH249851   5.870   2.257  17.236 -0.1383  0.0309  0.2543
 9479TIP3    H149852   5.839   2.325  17.295  0.3309  1.4762 -1.1401
 9479TIP3    H249853   5.945   2.296  17.190 -0.5971 -0.9878 -1.4225
 9480TIP3   OH249854   4.127   4.645  10.991  0.5956 -0.0327  0.0380
 9480TIP3    H149855   4.158   4.563  10.954  0.6461  0.2715 -0.6069
 9480TIP3    H249856   4.202   4.679  11.040  0.5250 -0.4402  0.4337
 9481TIP3   OH249857   1.966   6.433   5.163  0.0188 -0.3734  0.0641
 9481TIP3    H149858   1.896   6.460   5.223  1.0424 -0.0225  1.1119
 9481TIP3    H249859   2.046   6.461   5.205  0.9945 -3.0585  0.1001
 9482TIP3   OH249860   2.312   0.244  13.701 -0.7581 -0.1988  0.3642
 9482TIP3    H149861   2.406   0.254  13.715 -0.7402 -0.7694  0.6808
 9482TIP3    H249862   2.282   0.331  13.675 -0.1033 -0.0675  0.0334
 9483TIP3   OH249863   5.930   2.734  11.968  1.1897  0.4181 -0.2012
 9483TIP3    H149864   5.874   2.803  11.931 -2.7058 -1.6538  1.5153
 9483TIP3    H249865   5.987   2.709  11.895  0.1293  2.8267 -1.9647
 9484TIP3   OH249866   4.541   6.354   4.081  0.0715 -0.4945 -0.1291
 9484TIP3    H149867   4.521   6.424   4.143  0.1356 -1.8523  1.4448
 9484TIP3    H249868   4.611   6.304   4.123 -0.1664 -1.6727 -1.1270
 9485TIP3   OH249869   3.948   0.136  15.907  0.0245  0.2545  0.0648
 9485TIP3    H149870   3.879   0.118  15.843 -0.0584 -0.2815  0.3073
 9485TIP3    H249871   3.978   0.225  15.886  0.5860 -0.2398 -1.2711
 9486TIP3   OH249872   1.310   4.258   5.225 -0.0766  0.3719 -0.5336
 9486TIP3    H149873   1.335   4.258   5.133 -0.4091 -1.2962 -0.6413
 9486TIP3    H249874   1.383   4.216   5.270  0.0606  1.1310 -0.0360
 9487TIP3   OH249875   5.361   2.590   2.888  0.3125  0.5688  0.2577
 9487TIP3    H149876   5.384   2.513   2.835 -0.7213  0.4741 -0.0498
 9487TIP3    H249877   5.344   2.554   2.975 -1.1956  0.2998 -0.1307
 9488TIP3   OH249878   4.465   5.550  14.221  0.7642 -0.2864 -0.0702
 9488TIP3    H149879   4.397   5.617  14.212  1.2139  0.4322  1.5481
 9488TIP3    H249880   4.431   5.474  14.175 -0.5113  0.5152 -0.4728
 9489TIP3   OH249881   1.513   6.032  13.316 -0.4039  0.1612 -0.4411
 9489TIP3    H149882   1.541   6.114  13.357 -2.5587  1.1549 -0.8879
 9489TIP3    H249883   1.548   5.964  13.373 -1.6290  1.4706  1.9955
 9490TIP3   OH249884   5.948   1.983   1.149  0.1092  0.4185 -0.1604
 9490TIP3    H149885   5.966   2.005   1.057  0.8628  1.1630  0.1643
 9490TIP3    H249886   5.866   2.029   1.168  1.2659  2.3493  0.2812
 9491TIP3   OH249887   3.007   6.460  17.136  0.0238  0.5078 -0.2397
 9491TIP3    H149888   2.972   6.545  17.162  0.3855  0.3477  0.8013
 9491TIP3    H249889   2.931   6.405  17.123 -0.1486  0.5035  0.7965
 9492TIP3   OH249890   6.355   3.976  12.059  0.2033 -0.3220 -0.5954
 9492TIP3    H149891   6.295   3.904  12.040  0.4876 -0.4973 -0.8417
 9492TIP3    H249892   6.374   4.014  11.973 -0.1840  0.2336 -0.4299
 9493TIP3   OH249893   4.874   3.007   5.273  0.2163 -0.6838 -0.2079
 9493TIP3    H149894   4.898   3.060   5.197  0.9926 -0.2522  0.3365
 9493TIP3    H249895   4.946   2.945   5.283  1.1013  0.5721  1.3904
 9494TIP3   OH249896   6.320   0.597  14.539  0.1394 -0.3737  0.6706
 9494TIP3    H149897   6.376   0.671  14.562  0.1250 -0.0486 -0.3211
 9494TIP3    H249898   6.378   0.534  14.497 -0.5834  0.8965 -2.3761
 9495TIP3   OH249899   4.521   1.662  12.189  0.2004 -0.0066 -0.2782
 9495TIP3    H149900   4.519   1.745  12.236 -0.7972 -1.5864  2.5503
 9495TIP3    H249901   4.455   1.672  12.120  0.7778  1.8799 -0.5833
 9496TIP3   OH249902   0.816   3.747  15.071 -0.2374 -0.0671  0.4271
 9496TIP3    H149903   0.726   3.732  15.100 -0.0456 -2.2337 -0.0219
 9496TIP3    H249904   0.836   3.672  15.015  1.4934  0.9337 -0.3187
 9497TIP3   OH249905   3.563   4.374   2.020 -0.1841  0.2001 -0.6102
 9497TIP3    H149906   3.533   4.462   1.997  0.6205  0.4800 -0.5727
 9497TIP3    H249907   3.611   4.344   1.943 -4.0046 -1.8661 -2.3465
 9498TIP3   OH249908   4.885   2.479  13.055  0.0976  0.4229  0.1542
 9498TIP3    H149909   4.850   2.498  13.142  1.4288 -2.4436  1.3976
 9498TIP3    H249910   4.977   2.504  13.060  0.3550 -0.4302 -0.1802
 9499TIP3   OH249911   2.613   2.412  12.667 -0.6382 -0.1455 -0.3455
 9499TIP3    H149912   2.576   2.476  12.727 -0.4718  0.1017 -0.5100
 9499TIP3    H249913   2.538   2.384  12.614 -0.4581  0.8822 -1.1564
 9500TIP3   OH249914   6.119   5.471  16.425 -0.2865 -0.1959 -0.2170
 9500TIP3    H149915   6.137   5.488  16.333 -0.8758 -0.0981 -0.3171
 9500TIP3    H249916   6.072   5.387  16.425  0.8230 -0.8236  0.0997
 9501TIP3   OH249917   2.489   0.963   1.477  0.5388 -0.2852  0.0194
 9501TIP3    H149918   2.557   0.938   1.541 -0.4462 -0.2923  1.0856
 9501TIP3    H249919   2.450   1.042   1.513  0.2947 -0.0125 -0.8311
 9502TIP3   OH249920   3.480   1.999  11.765 -0.4147 -0.0740 -0.3115
 9502TIP3    H149921   3.477   1.995  11.669 -2.0592 -1.9649 -0.2176
 9502TIP3    H249922   3.389   1.986  11.792  0.3777 -1.9104  1.5817
 9503TIP3   OH249923   3.526   6.112  12.750  0.4005  0.4874 -0.0430
 9503TIP3    H149924   3.458   6.056  12.787  0.4870 -0.1025 -0.7577
 9503TIP3    H249925   3.564   6.158  12.825 -0.4901  0.4926  0.4069
 9504TIP3   OH249926   5.496   1.873   5.191  0.0519  0.3974 -0.6468
 9504TIP3    H149927   5.546   1.858   5.272 -1.0444 -0.2763 -0.0848
 9504TIP3    H249928   5.405   1.877   5.220 -0.3863 -0.2991 -1.9024
 9505TIP3   OH249929   3.987   1.533  16.236  0.3630 -0.7346  0.0261
 9505TIP3    H149930   3.967   1.508  16.146 -0.7733 -0.4544  0.1962
 9505TIP3    H249931   4.039   1.613  16.228  1.1562 -1.2783 -0.4027
 9506TIP3   OH249932   5.522   3.446  13.559  0.8298  0.0697 -0.0813
 9506TIP3    H149933   5.469   3.371  13.532 -0.0808  0.4122  0.7285
 9506TIP3    H249934   5.460   3.518  13.569  1.7935  1.1414 -1.5433
 9507TIP3   OH249935   0.861   2.578  14.417  0.1523 -0.5967  0.1241
 9507TIP3    H149936   0.936   2.600  14.473  0.3979 -0.6155 -0.1917
 9507TIP3    H249937   0.875   2.629  14.337 -1.3430  1.1133  0.9190
 9508TIP3   OH249938   5.228   0.050  15.195 -0.0140  0.1536 -0.0901
 9508TIP3    H149939   5.214  -0.035  15.153 -0.6850  0.3762 -0.3118
 9508TIP3    H249940   5.251   0.109  15.123  0.5914  0.1336  0.0819
 9509TIP3   OH249941   4.289   1.140  14.926 -0.1734 -0.4664  0.5571
 9509TIP3    H149942   4.265   1.097  14.844 -0.5451 -0.8003  0.8410
 9509TIP3    H249943   4.308   1.230  14.901 -0.7735 -0.4416  0.1773
 9510TIP3   OH249944   3.793   3.129  11.304  0.6478 -0.5296  0.4662
 9510TIP3    H149945   3.712   3.128  11.252  0.5693 -1.3896  0.5978
 9510TIP3    H249946   3.812   3.222  11.317 -0.5764 -0.3157  0.8245
 9511TIP3   OH249947   0.579   2.242  11.018 -0.0105  0.4395 -0.4328
 9511TIP3    H149948   0.531   2.194  11.085 -0.2374  2.9264  1.2242
 9511TIP3    H249949   0.656   2.275  11.063  0.0048  1.8640 -1.4887
 9512TIP3   OH249950   1.493   5.745   6.403 -0.0146 -0.1681  0.0231
 9512TIP3    H149951   1.415   5.771   6.355  1.6930  1.4310 -1.9915
 9512TIP3    H249952   1.466   5.745   6.495 -2.5660 -0.4124 -0.7020
 9513TIP3   OH249953   1.708   6.310  14.718  0.4018 -0.4732  0.1357
 9513TIP3    H149954   1.754   6.299  14.802 -2.0947 -2.1659  1.3552
 9513TIP3    H249955   1.719   6.226  14.674 -1.7519 -1.0599  0.6208
 9514TIP3   OH249956   5.285   3.129   0.356  0.1999  0.8041  0.4192
 9514TIP3    H149957   5.356   3.067   0.343 -0.4578 -0.1187  1.1735
 9514TIP3    H249958   5.328   3.215   0.361  1.0635  0.4565 -0.9919
 9515TIP3   OH249959   2.210   3.919  16.647  0.3749  0.3776  0.3138
 9515TIP3    H149960   2.266   3.990  16.616  0.5676  0.5416  1.0200
 9515TIP3    H249961   2.162   3.890  16.570  1.1404  0.5047 -0.2135
 9516TIP3   OH249962   1.258   3.770   5.413 -0.0563 -0.7114 -0.0640
 9516TIP3    H149963   1.232   3.852   5.455  2.3215 -0.8444  1.7330
 9516TIP3    H249964   1.248   3.704   5.482  1.3850 -1.3524 -0.4537
 9517TIP3   OH249965   0.497   0.751  14.253  0.2536  0.0217 -0.0349
 9517TIP3    H149966   0.476   0.844  14.262  1.3152  0.1507  1.4092
 9517TIP3    H249967   0.441   0.707  14.318  1.0637 -0.1348  0.5694
 9518TIP3   OH249968   3.775   2.702   0.196  0.1412 -0.1851  0.3042
 9518TIP3    H149969   3.817   2.627   0.238  0.3253 -0.0397  0.3805
 9518TIP3    H249970   3.687   2.671   0.174  0.5521 -0.7531 -0.5828
 9519TIP3   OH249971   5.243   4.709   1.903 -0.0684  0.1410  0.1189
 9519TIP3    H149972   5.305   4.711   1.976 -0.6613  2.5723  0.6146
 9519TIP3    H249973   5.157   4.706   1.945 -0.3545 -0.5561 -0.5159
 9520TIP3   OH249974   5.568   4.089  11.639 -0.2915  0.1765 -0.7281
 9520TIP3    H149975   5.497   4.106  11.701 -0.5608 -0.2200 -0.9224
 9520TIP3    H249976   5.523   4.055  11.561  0.2856 -2.1327 -0.0831
 9521TIP3   OH249977   5.963   4.799  15.623 -0.6728 -0.5911  0.0010
 9521TIP3    H149978   5.964   4.734  15.693 -1.7703 -0.8910 -0.2550
 9521TIP3    H249979   6.012   4.873  15.659  2.0628 -2.1844 -0.3614
 9522TIP3   OH249980   2.028   0.989  15.458 -0.3438 -0.1621 -0.0925
 9522TIP3    H149981   2.100   0.926  15.450 -1.4238 -1.4560  0.1805
 9522TIP3    H249982   2.068   1.067  15.497  0.5979 -1.4271  1.5285
 9523TIP3   OH249983   2.594   3.379   3.768 -0.0553  0.2778  0.0635
 9523TIP3    H149984   2.636   3.384   3.682 -0.7823  0.5756 -0.2747
 9523TIP3    H249985   2.660   3.337   3.824 -0.1625 -1.3268 -0.9835
 9524TIP3   OH249986   0.476   4.838  11.109 -0.7311  0.8643 -0.2379
 9524TIP3    H149987   0.552   4.811  11.057 -1.6205  0.5449 -1.4055
 9524TIP3    H249988   0.465   4.931  11.090 -1.2733  0.6692 -0.9424
 9525TIP3   OH249989   0.253   4.084   6.283 -0.1920  0.5119 -0.4450
 9525TIP3    H149990   0.293   4.109   6.200 -1.2121 -0.7955 -1.3533
 9525TIP3    H249991   0.318   4.107   6.349  1.2180  0.2688 -1.7218
 9526TIP3   OH249992   5.395   6.252   4.495  0.0561 -0.1024  0.0707
 9526TIP3    H149993   5.433   6.244   4.407  1.3325 -1.0499  0.6873
 9526TIP3    H249994   5.424   6.173   4.541 -1.8993 -0.3757  0.8736
 9527TIP3   OH249995   5.628   3.969  16.391 -0.3040  0.0644  0.1432
 9527TIP3    H149996   5.581   4.046  16.424 -0.4909 -0.0572  0.1649
 9527TIP3    H249997   5.717   3.979  16.423 -0.3450  0.2406  0.1984
 9528TIP3   OH249998   4.207   5.700  12.137  0.0921  0.0118 -0.4117
 9528TIP3    H149999   4.221   5.669  12.048  0.3447 -0.4389 -0.2204
 9528TIP3    H250000   4.133   5.648  12.168  1.8877 -1.9947  0.6552
 9529TIP3   OH250001   3.354   4.629   2.231  0.0795  0.2437 -0.6972
 9529TIP3    H150002   3.309   4.713   2.245  0.0610  0.0606  0.3895
 9529TIP3    H250003   3.298   4.565   2.273  1.4576  0.0344  0.8501
 9530TIP3   OH250004   3.032   5.516  15.073  0.3269  0.0323 -0.4710
 9530TIP3    H150005   3.079   5.596  15.095  1.5680 -0.5872 -0.8086
 9530TIP3    H250006   3.052   5.501  14.981  1.1517 -1.3517 -0.0825
 9531TIP3   OH250007   0.623   5.238  15.481  0.4310 -0.4056 -0.0452
 9531TIP3    H150008   0.644   5.174  15.412  0.8789 -0.5792  0.2572
 9531TIP3    H250009   0.527   5.243  15.479  0.4405 -0.3748 -0.7144
 9532TIP3   OH250010   0.229   4.574   2.663  0.1288 -0.4928 -0.0753
 9532TIP3    H150011   0.220   4.572   2.568  0.7239  1.3602 -0.1758
 9532TIP3    H250012   0.191   4.658   2.689 -3.3928 -2.5193  1.7138
 9533TIP3   OH250013   6.454   1.154   0.132  0.3631  0.1624 -0.0416
 9533TIP3    H150014   6.435   1.191   0.218  0.0684  0.1245 -0.0904
 9533TIP3    H250015   6.444   1.228   0.072 -1.5004 -0.2849 -0.2959
 9534TIP3   OH250016   3.806   6.119  12.431  0.1797 -0.0526  0.0650
 9534TIP3    H150017   3.750   6.176  12.378 -0.0424 -0.9045 -0.6234
 9534TIP3    H250018   3.857   6.069  12.367  0.0361 -0.9642  0.6465
 9535TIP3   OH250019   1.607   1.770   0.510  0.2118 -0.4299  0.1110
 9535TIP3    H150020   1.588   1.694   0.566  0.2198 -0.9583 -0.5950
 9535TIP3    H250021   1.668   1.737   0.444  0.1493  0.1678 -0.2530
 9536TIP3   OH250022   5.687   1.711   2.254  0.1565 -0.2272 -0.1432
 9536TIP3    H150023   5.775   1.747   2.259 -0.0392  0.1546  0.5730
 9536TIP3    H250024   5.690   1.633   2.309 -0.3556  0.6141  1.0851
 9537TIP3   OH250025   3.602   5.889   5.742 -0.7052 -0.2735 -0.3764
 9537TIP3    H150026   3.615   5.944   5.665 -0.3581  1.0388  0.6046
 9537TIP3    H250027   3.690   5.876   5.778 -0.8795 -0.7352 -0.1113
 9538TIP3   OH250028   4.154   1.472   2.911 -0.1798 -0.2748 -0.1186
 9538TIP3    H150029   4.103   1.396   2.882 -0.1799 -0.2408 -0.2084
 9538TIP3    H250030   4.188   1.510   2.830 -0.9658  0.3826 -0.1509
 9539TIP3   OH250031   2.145   4.565   3.297  0.3879 -0.1833 -0.1632
 9539TIP3    H150032   2.059   4.551   3.337  0.1537  0.5027 -0.4215
 9539TIP3    H250033   2.134   4.542   3.205  1.1633 -2.6568  0.3287
 9540TIP3   OH250034   2.517   0.351   3.959 -0.3126 -0.5916  0.0547
 9540TIP3    H150035   2.509   0.439   3.996 -1.2092 -0.4495 -0.4641
 9540TIP3    H250036   2.611   0.332   3.963 -0.1241  0.3425  0.2625
 9541TIP3   OH250037   5.796   5.777   5.577  0.1658 -0.6145 -0.6965
 9541TIP3    H150038   5.877   5.738   5.545  0.5343 -1.0676  0.7382
 9541TIP3    H250039   5.770   5.839   5.509  0.5308 -2.0690 -2.1730
 9542TIP3   OH250040   2.142   5.626  11.577 -0.5401 -0.1647 -0.0393
 9542TIP3    H150041   2.090   5.705  11.590  0.6195  0.3070  1.7676
 9542TIP3    H250042   2.155   5.623  11.482 -1.4436  1.2513 -0.2358
 9543TIP3   OH250043   2.944   1.227   3.880  0.0666  0.3724  0.5062
 9543TIP3    H150044   2.895   1.298   3.839  0.2907  0.1497 -0.1669
 9543TIP3    H250045   2.885   1.191   3.946 -0.5289  0.3671 -0.0220
 9544TIP3   OH250046   4.042   1.605   6.104 -0.6172 -0.0788 -0.0038
 9544TIP3    H150047   3.956   1.601   6.146  0.3664 -0.4023  2.0618
 9544TIP3    H250048   4.065   1.697   6.106  0.2051 -0.2955  1.8777
 9545TIP3   OH250049   5.260   0.732   0.689 -0.0407 -0.0638 -0.1089
 9545TIP3    H150050   5.338   0.709   0.639 -0.1566 -1.1197  0.1774
 9545TIP3    H250051   5.198   0.765   0.624 -1.2469 -4.1003 -1.1721
 9546TIP3   OH250052   2.985   0.205   3.365  0.4566 -0.0520 -0.2365
 9546TIP3    H150053   3.004   0.213   3.458  0.3457 -0.0653 -0.2126
 9546TIP3    H250054   2.954   0.292   3.339 -0.8473 -0.4332  0.0449
 9547TIP3   OH250055   2.745   4.051   2.971  0.0726  0.1921 -0.3726
 9547TIP3    H150056   2.693   4.045   2.891 -1.3470  2.2350  0.3540
 9547TIP3    H250057   2.832   4.077   2.942 -0.3738  0.7002 -1.2792
 9548TIP3   OH250058   1.552   1.872   1.403 -0.4870 -0.4130 -0.5834
 9548TIP3    H150059   1.590   1.929   1.335  0.2032  1.8936  1.6352
 9548TIP3    H250060   1.458   1.880   1.390 -0.5423  3.7325  1.5130
 9549TIP3   OH250061   2.831   4.412   4.274  0.0768  0.4417  0.9275
 9549TIP3    H150062   2.917   4.377   4.299  0.6445 -0.1497 -1.7169
 9549TIP3    H250063   2.850   4.499   4.239 -0.1255 -0.4993 -1.5737
 9550TIP3   OH250064   0.802   3.020   0.668 -0.1636 -0.0912  0.2843
 9550TIP3    H150065   0.731   3.068   0.624  2.1409  1.9979 -1.2976
 9550TIP3    H250066   0.824   2.949   0.608 -0.1953 -0.0936  0.2754
 9551TIP3   OH250067   3.472   2.834  13.945 -0.1015 -0.2807 -0.6382
 9551TIP3    H150068   3.552   2.813  13.896  0.4617 -0.8052  0.4652
 9551TIP3    H250069   3.504   2.857  14.032 -1.0172  1.5231 -0.7743
 9552TIP3   OH250070   5.382   6.299   1.642  0.3114  0.1600  0.2560
 9552TIP3    H150071   5.298   6.302   1.687  0.8385  0.4489  1.2201
 9552TIP3    H250072   5.363   6.331   1.553 -0.8714 -1.1056  0.0310
 9553TIP3   OH250073   4.428   6.341   5.894  0.7683  0.2607 -0.0827
 9553TIP3    H150074   4.505   6.306   5.849  1.2348  0.9030  0.1989
 9553TIP3    H250075   4.460   6.365   5.981 -0.1320 -0.9784  0.6068
 9554TIP3   OH250076   1.967   1.207   1.986 -0.2817 -0.2299  0.7325
 9554TIP3    H150077   2.000   1.189   1.898  1.8361 -1.9325  1.8214
 9554TIP3    H250078   1.877   1.174   1.986 -0.4297  0.1528 -0.8910
 9555TIP3   OH250079   1.387   3.697   4.719  0.0408  0.5000  0.4170
 9555TIP3    H150080   1.458   3.726   4.777 -0.7490 -2.2457  2.9036
 9555TIP3    H250081   1.369   3.607   4.747 -4.0362  0.9435 -0.4916
 9556TIP3   OH250082   3.323   6.572  11.953 -1.4621 -0.2057  0.1531
 9556TIP3    H150083   3.366   6.641  12.004 -2.1633  0.1057  0.3280
 9556TIP3    H250084   3.333   6.600  11.862  0.3553 -1.0868  0.0679
 9557TIP3   OH250085   2.258   3.421  16.685  0.6914  0.1748  0.0032
 9557TIP3    H150086   2.272   3.453  16.596  1.2556 -0.1357 -0.0216
 9557TIP3    H250087   2.285   3.493  16.741 -0.3597  0.6396 -0.0908
 9558TIP3   OH250088   1.875   6.414  12.081 -0.5378  0.0854 -0.0163
 9558TIP3    H150089   1.912   6.371  12.158 -0.9095  1.1039  0.7363
 9558TIP3    H250090   1.925   6.378  12.008  0.5098 -0.1310  0.7926
 9559TIP3   OH250091   6.352   3.120   1.935 -0.2262 -0.1110 -0.1470
 9559TIP3    H150092   6.366   3.185   1.865  0.5576 -0.5161 -0.3674
 9559TIP3    H250093   6.345   3.172   2.015  0.0801  0.2759 -0.3683
 9560TIP3   OH250094   3.736   0.073  14.579 -0.0593  0.0094 -0.2053
 9560TIP3    H150095   3.737   0.006  14.510 -0.6986  0.8589 -1.0488
 9560TIP3    H250096   3.740   0.023  14.661  0.3694 -1.0230 -0.8507
 9561TIP3   OH250097   1.285   1.328   5.203  0.2238 -0.2069 -0.3435
 9561TIP3    H150098   1.204   1.361   5.242 -0.3119 -1.5545 -0.2648
 9561TIP3    H250099   1.267   1.324   5.109  0.9647  1.5511 -0.5663
 9562TIP3   OH250100   4.326   3.375   6.407 -0.1688 -0.1707  0.0482
 9562TIP3    H150101   4.263   3.337   6.346  2.5841 -0.2452 -2.8434
 9562TIP3    H250102   4.374   3.301   6.443  0.9336  0.1268 -0.7841
 9563TIP3   OH250103   4.392   4.690   4.410 -0.2160  0.5201 -0.6947
 9563TIP3    H150104   4.370   4.624   4.476  0.2590  0.4581 -0.5963
 9563TIP3    H250105   4.324   4.756   4.418  0.3187  0.9414  0.4433
 9564TIP3   OH250106   0.725   6.752  11.975  0.7902  0.2784  0.0655
 9564TIP3    H150107   0.814   6.762  11.942  1.1246 -0.6037  0.6738
 9564TIP3    H250108   0.734   6.694  12.051 -0.1771  0.9691  0.7158
 9565TIP3   OH250109   1.229   4.678  14.094 -0.4142  0.0643 -0.0117
 9565TIP3    H150110   1.289   4.607  14.118  0.2817  0.7232  0.2271
 9565TIP3    H250111   1.143   4.637  14.093 -0.1928 -0.4871  1.4586
 9566TIP3   OH250112   4.274   5.110   3.548  0.3559  0.5802  0.4540
 9566TIP3    H150113   4.291   5.166   3.624  2.6935 -2.1106  1.9944
 9566TIP3    H250114   4.349   5.123   3.491 -0.7317  1.5491 -0.7814
 9567TIP3   OH250115   3.177   0.515   3.906  0.1168  0.1184  0.1931
 9567TIP3    H150116   3.119   0.591   3.913 -0.3833 -0.3203  0.7256
 9567TIP3    H250117   3.209   0.518   3.815 -1.2113 -0.0006 -0.2815
 9568TIP3   OH250118   3.896   6.773   4.085  0.7234  0.7988  0.1009
 9568TIP3    H150119   3.848   6.841   4.039 -0.3462  0.0274  0.0730
 9568TIP3    H250120   3.966   6.748   4.025 -0.2602  0.2640 -0.8339
 9569TIP3   OH250121   4.985   6.290   0.317  0.0291 -0.3237  0.0108
 9569TIP3    H150122   4.939   6.275   0.399 -0.8696  2.2624  0.0333
 9569TIP3    H250123   4.921   6.266   0.249 -0.7331  1.4087  0.0683
 9570TIP3   OH250124   5.603   4.304   2.698 -0.2335  0.2097  0.0330
 9570TIP3    H150125   5.564   4.258   2.624  2.1464 -1.7031 -0.0822
 9570TIP3    H250126   5.633   4.388   2.661  0.3807 -0.4790 -1.0510
 9571TIP3   OH250127   3.286   2.681   4.846 -0.3065 -0.1193  0.0554
 9571TIP3    H150128   3.318   2.770   4.834  1.3429 -0.5765  0.8938
 9571TIP3    H250129   3.192   2.687   4.829  0.1007  1.3688 -1.9828
 9572TIP3   OH250130   2.142   6.564   2.075  0.7177  0.5058 -0.3811
 9572TIP3    H150131   2.136   6.626   2.002 -1.9392 -0.9022 -1.4319
 9572TIP3    H250132   2.084   6.492   2.049  1.5128 -1.0759  2.1140
 9573TIP3   OH250133   5.797   5.765   4.497  0.1032 -0.3028 -0.2225
 9573TIP3    H150134   5.840   5.686   4.530 -0.5421 -0.2517  0.7886
 9573TIP3    H250135   5.846   5.788   4.419  0.2670 -1.7395 -0.5676
 9574TIP3   OH250136   5.495   1.787  15.798 -0.8088 -0.4515  0.1497
 9574TIP3    H150137   5.455   1.771  15.712 -0.9554  1.0694 -0.0943
 9574TIP3    H250138   5.567   1.725  15.803  1.8955  2.1932 -2.9283
 9575TIP3   OH250139   5.794   2.267   3.893 -0.8731 -0.2908 -0.0242
 9575TIP3    H150140   5.794   2.212   3.815  0.4449  0.1646 -0.3580
 9575TIP3    H250141   5.835   2.214   3.961 -0.3175 -0.0199 -0.1408
 9576TIP3   OH250142   3.530   0.293   0.432 -0.6334  0.4116 -0.0441
 9576TIP3    H150143   3.547   0.370   0.377  3.4592 -0.8703 -0.6834
 9576TIP3    H250144   3.558   0.319   0.519 -2.9401  0.9032  0.5962
 9577TIP3   OH250145   2.383   6.300   1.537  0.5790 -0.2422  0.4369
 9577TIP3    H150146   2.419   6.298   1.626  3.0126 -1.4806 -0.5385
 9577TIP3    H250147   2.363   6.392   1.521  3.1397  0.4582  1.1148
 9578TIP3   OH250148   1.416   5.522   2.149 -0.2752  0.1442 -0.3492
 9578TIP3    H150149   1.433   5.509   2.056  0.5730  0.8454 -0.3037
 9578TIP3    H250150   1.488   5.477   2.193 -0.9791 -0.6592 -0.0181
 9579TIP3   OH250151   4.062   3.431  13.792  0.4207  0.2472  0.6146
 9579TIP3    H150152   4.011   3.415  13.714 -0.1021 -0.8857  1.1873
 9579TIP3    H250153   4.153   3.422  13.764  0.1820 -2.0457  0.5620
 9580TIP3   OH250154   6.116   5.208   3.087  0.0300  0.0235  0.1091
 9580TIP3    H150155   6.168   5.278   3.049  0.9245 -0.4028  0.5330
 9580TIP3    H250156   6.054   5.253   3.145 -0.7790  0.6070 -1.1819
 9581TIP3   OH250157   1.739   0.150  12.034 -0.1602  0.3347 -0.4520
 9581TIP3    H150158   1.700   0.088  12.096  0.6981 -0.9127 -1.1375
 9581TIP3    H250159   1.824   0.112  12.012  0.4920  1.8966 -0.6863
 9582TIP3   OH250160   1.416   0.258  13.803 -0.0762  1.5479 -0.6349
 9582TIP3    H150161   1.418   0.241  13.897 -0.0426  2.2788 -0.4931
 9582TIP3    H250162   1.496   0.219  13.769  0.3418  2.0357 -0.2164
 9583TIP3   OH250163   1.363   0.722  15.403  0.3428 -0.3155 -0.1881
 9583TIP3    H150164   1.281   0.681  15.430 -0.1303 -1.4435 -3.1780
 9583TIP3    H250165   1.361   0.808  15.445 -1.2587 -1.1996  1.6533
 9584TIP3   OH250166   6.760   5.207  16.946 -0.2786  0.7144 -0.4860
 9584TIP3    H150167   6.751   5.298  16.972  0.2372  0.5089  0.4457
 9584TIP3    H250168   6.842   5.203  16.897 -0.8623  0.9558 -1.4937
 9585TIP3   OH250169   5.380   5.801   4.645 -0.0987  0.1003  0.2329
 9585TIP3    H150170   5.368   5.724   4.589 -0.1960 -0.1057  0.5349
 9585TIP3    H250171   5.364   5.768   4.733  0.7931  0.2570  0.4585
 9586TIP3   OH250172   2.056   3.367  14.290 -0.4462  0.9615  0.5550
 9586TIP3    H150173   1.975   3.347  14.241  0.8722  0.9527 -1.6843
 9586TIP3    H250174   2.052   3.309  14.366 -1.2411 -1.0949 -0.9816
 9587TIP3   OH250175   5.360   4.721  16.126 -0.1080 -0.8377 -0.0868
 9587TIP3    H150176   5.417   4.709  16.051  0.7799 -0.0728  0.4518
 9587TIP3    H250177   5.272   4.715  16.090  0.2963  0.7074 -1.3957
 9588TIP3   OH250178   6.271   2.175   3.164 -0.2683  0.5760  0.1533
 9588TIP3    H150179   6.265   2.199   3.071 -1.9663  1.5091  0.4860
 9588TIP3    H250180   6.321   2.094   3.164 -0.5057  0.3988 -1.6153
 9589TIP3   OH250181   1.510   5.694   2.428  0.6275 -0.3046  0.1070
 9589TIP3    H150182   1.532   5.620   2.371  0.2252 -0.9089  0.7355
 9589TIP3    H250183   1.585   5.754   2.419  1.6901 -1.5129  0.8061
 9590TIP3   OH250184   6.284   3.328  11.856  0.7166 -0.1598  0.2340
 9590TIP3    H150185   6.207   3.277  11.831  1.9869 -1.6990 -0.6714
 9590TIP3    H250186   6.334   3.336  11.774  1.5690  0.7242  0.8346
 9591TIP3   OH250187   0.890   1.847  11.223  0.5247 -0.5560 -0.3427
 9591TIP3    H150188   0.957   1.913  11.206 -0.6721  0.4826 -1.0809
 9591TIP3    H250189   0.824   1.862  11.156 -0.0304 -2.1474 -0.1639
 9592TIP3   OH250190   0.221   1.468  15.813  0.2045 -0.7653 -0.4809
 9592TIP3    H150191   0.303   1.512  15.836 -0.5164  0.0730  0.4730
 9592TIP3    H250192   0.181   1.524  15.746 -0.6247 -0.0361  0.6047
 9593TIP3   OH250193   4.636   6.267  13.742 -0.3008  0.1182  0.4034
 9593TIP3    H150194   4.728   6.278  13.769  0.6392 -3.8040 -0.8168
 9593TIP3    H250195   4.640   6.262  13.647 -1.7326 -0.4438  0.3677
 9594TIP3   OH250196   3.979   4.832   1.057 -0.1993 -0.4979 -0.1191
 9594TIP3    H150197   3.973   4.918   1.099  1.0131 -0.6347  0.3496
 9594TIP3    H250198   3.889   4.798   1.059 -1.2853  1.9753 -2.9820
 9595TIP3   OH250199   0.267   1.183  11.625  0.1645 -0.6191  0.0280
 9595TIP3    H150200   0.179   1.145  11.622 -0.2920  0.5094 -0.7577
 9595TIP3    H250201   0.280   1.224  11.539  0.6993  0.9213  0.8241
 9596TIP3   OH250202   0.528   0.119   3.325 -0.3993  0.7795  0.8579
 9596TIP3    H150203   0.442   0.161   3.319 -0.3807  0.7319  0.1821
 9596TIP3    H250204   0.565   0.127   3.237 -0.3031 -0.4607  0.7721
 9597TIP3   OH250205   1.430   4.124   5.871  0.2466  0.0569  0.2500
 9597TIP3    H150206   1.482   4.205   5.868 -0.5276  0.5819  0.8512
 9597TIP3    H250207   1.405   4.116   5.963 -0.6853 -0.2333 -0.0299
 9598TIP3   OH250208   6.218   1.967   4.797  0.4646 -0.2596 -0.3257
 9598TIP3    H150209   6.281   2.016   4.744 -0.0094 -0.6127 -1.2078
 9598TIP3    H250210   6.172   1.911   4.735 -1.8942  1.1956  0.0289
 9599TIP3   OH250211   4.060   3.029  14.150 -0.0044  0.3005 -0.2465
 9599TIP3    H150212   4.120   2.977  14.204 -0.3543 -0.5626 -0.6886
 9599TIP3    H250213   4.114   3.103  14.121 -0.6143  2.4366  3.7182
 9600TIP3   OH250214   1.792   2.383   2.032 -0.4372 -0.2598  0.4677
 9600TIP3    H150215   1.779   2.456   1.971  0.0050 -0.3549  0.2600
 9600TIP3    H250216   1.882   2.392   2.062 -0.5087 -0.4833  0.7592
 9601TIP3   OH250217   2.755   0.215   6.439 -0.1182 -0.0629 -0.3485
 9601TIP3    H150218   2.845   0.184   6.430  0.2694  1.1078 -0.5030
 9601TIP3    H250219   2.722   0.220   6.349  0.9135  3.1763 -0.5938
 9602TIP3   OH250220   2.065   2.752   3.957 -0.3484  0.2160  0.2016
 9602TIP3    H150221   2.115   2.733   3.878 -0.7842 -0.4340  0.0789
 9602TIP3    H250222   2.114   2.821   4.001  0.8065 -0.6324  0.2384
 9603TIP3   OH250223   5.851   3.191  14.379 -0.0148 -0.1868 -0.7816
 9603TIP3    H150224   5.825   3.100  14.393  2.1453 -0.4318  2.2040
 9603TIP3    H250225   5.929   3.185  14.323  0.7225 -0.2859  0.2312
 9604TIP3   OH250226   3.303   0.633   4.463 -0.4430  0.2583  0.4523
 9604TIP3    H150227   3.353   0.586   4.529 -1.4096 -0.4033  0.7294
 9604TIP3    H250228   3.253   0.566   4.417 -0.8228  0.8630 -0.0424
 9605TIP3   OH250229   6.591   5.248  15.695  0.2195 -0.0903  0.0893
 9605TIP3    H150230   6.549   5.327  15.728  0.0966 -0.2413  0.2931
 9605TIP3    H250231   6.626   5.204  15.773  0.8287  0.0792 -0.0830
 9606TIP3   OH250232   3.451   0.418  13.456 -0.3198 -0.3207 -0.4750
 9606TIP3    H150233   3.520   0.387  13.514 -1.4697 -1.1037  0.4940
 9606TIP3    H250234   3.407   0.487  13.505  0.2360  0.6816 -1.3805
 9607TIP3   OH250235   3.603   0.845  17.073 -0.3017  0.0764  0.1707
 9607TIP3    H150236   3.552   0.920  17.042  0.2309  0.1493 -0.5486
 9607TIP3    H250237   3.596   0.849  17.169  0.4772  1.5639  0.1684
 9608TIP3   OH250238   0.893   0.134  10.314 -0.3333  0.4232  0.3383
 9608TIP3    H150239   0.945   0.147  10.393 -0.0070 -0.6531  0.3032
 9608TIP3    H250240   0.813   0.091  10.345 -0.7641  1.1495  0.2514
 9609TIP3   OH250241   5.483   0.567   5.473 -0.0880  0.1870  0.0285
 9609TIP3    H150242   5.516   0.647   5.432 -0.0058  0.8831  1.4006
 9609TIP3    H250243   5.560   0.529   5.515 -0.1239 -0.6345 -0.6410
 9610TIP3   OH250244   3.868   0.156   3.370  0.0485 -0.5170 -0.2168
 9610TIP3    H150245   3.777   0.127   3.375  0.3971 -1.3530  1.5031
 9610TIP3    H250246   3.917   0.078   3.343  0.6546 -0.9507  1.9995
 9611TIP3   OH250247   2.469   3.522  13.802 -0.1017 -0.1235  0.4071
 9611TIP3    H150248   2.444   3.550  13.890 -0.5910  1.3147 -0.1726
 9611TIP3    H250249   2.563   3.505  13.809  0.6097  3.3056  0.4345
 9612TIP3   OH250250   5.234   3.373  17.093  0.4105 -0.7645  1.0705
 9612TIP3    H150251   5.200   3.460  17.114  2.2755  0.0856  0.7623
 9612TIP3    H250252   5.272   3.383  17.005  5.0701 -0.4578  2.9353
 9613TIP3   OH250253   5.869   2.254  11.945  0.0929  0.2033  0.5504
 9613TIP3    H150254   5.934   2.194  11.983  1.3475  0.3858 -1.2489
 9613TIP3    H250255   5.784   2.215  11.969  0.8579 -0.3400  2.4476
 9614TIP3   OH250256   5.369   1.716   3.788  0.4076 -0.1106  0.2991
 9614TIP3    H150257   5.389   1.693   3.698 -1.3721 -0.1057 -0.1064
 9614TIP3    H250258   5.450   1.699   3.836  1.7149  0.9484 -1.4812
 9615TIP3   OH250259   2.886   1.161   0.479 -0.2306 -0.1954 -0.3182
 9615TIP3    H150260   2.877   1.246   0.436  4.3389 -0.5647 -2.3888
 9615TIP3    H250261   2.855   1.098   0.415 -1.6839 -0.2368  0.4139
 9616TIP3   OH250262   1.204   0.384   5.470 -0.1775 -0.0029  0.0991
 9616TIP3    H150263   1.255   0.453   5.427  0.1869  0.6200  1.5227
 9616TIP3    H250264   1.268   0.316   5.489 -0.2899 -0.1612 -0.0855
 9617TIP3   OH250265   3.335   3.139  16.824  0.1274  0.4628  0.1508
 9617TIP3    H150266   3.367   3.059  16.864 -0.9613 -0.3545 -0.6038
 9617TIP3    H250267   3.281   3.180  16.892  0.3638  0.3678  0.3982
 9618TIP3   OH250268   6.162   5.141  16.688  0.4385 -0.4793  0.4392
 9618TIP3    H150269   6.233   5.084  16.660 -2.0468 -1.5701 -4.1363
 9618TIP3    H250270   6.086   5.111  16.638 -2.1761  3.5443  1.7608
 9619TIP3   OH250271   3.596   0.549  17.188  0.0149 -0.5703  0.5056
 9619TIP3    H150272   3.669   0.576  17.132  0.0813  0.5304  1.1047
 9619TIP3    H250273   3.518   0.574  17.139 -0.0127 -2.9069 -0.7149
 9620TIP3   OH250274   6.334   3.713   0.377  0.1623 -0.2657 -0.8289
 9620TIP3    H150275   6.406   3.717   0.440  0.0498 -1.4529 -0.6084
 9620TIP3    H250276   6.279   3.788   0.398  1.7632  1.1492 -1.5433
 9621TIP3   OH250277   2.638   5.370   2.645 -0.0448 -0.6407  0.5734
 9621TIP3    H150278   2.696   5.382   2.720 -1.9097  1.2874  1.7512
 9621TIP3    H250279   2.561   5.326   2.681  0.2557 -2.3085 -0.7846
 9622TIP3   OH250280   3.722   3.094  16.314 -0.3647 -0.4889  0.3126
 9622TIP3    H150281   3.743   3.060  16.228 -0.3923  1.0174 -0.3073
 9622TIP3    H250282   3.723   3.017  16.371 -0.1372 -1.4628 -0.9794
 9623TIP3   OH250283   3.926   2.734   3.582  0.0693  0.3827 -0.6815
 9623TIP3    H150284   3.955   2.657   3.534  0.4571  0.2594 -0.2525
 9623TIP3    H250285   3.888   2.700   3.663 -0.3186  0.6028 -0.7708
 9624TIP3   OH250286   4.092   0.256  16.864  0.2730  0.6303 -0.3095
 9624TIP3    H150287   4.038   0.313  16.809  0.9130  2.3126  0.7604
 9624TIP3    H250288   4.150   0.211  16.803 -0.5918  0.7254 -1.2175
 9625TIP3   OH250289   0.866   3.918   1.986  0.1378  0.0333 -0.4087
 9625TIP3    H150290   0.808   3.980   2.031 -0.3776 -1.5023  1.0652
 9625TIP3    H250291   0.810   3.875   1.923 -0.2154 -1.0505  0.6300
 9626TIP3   OH250292   0.288   3.952  16.362 -0.2548 -0.0598 -0.2552
 9626TIP3    H150293   0.239   3.939  16.281 -1.3903  0.1926  0.3799
 9626TIP3    H250294   0.249   3.890  16.424 -0.0511  0.4345  0.3808
 9627TIP3   OH250295   1.919   3.268  16.852 -0.5562 -0.4549  0.5819
 9627TIP3    H150296   1.904   3.216  16.772  0.5756 -1.7668  1.1927
 9627TIP3    H250297   1.965   3.208  16.910 -0.2300  0.9136  1.7422
 9628TIP3   OH250298   0.987   4.256  15.502  0.1509  0.0467  0.0093
 9628TIP3    H150299   0.998   4.163  15.481 -0.2754 -0.2433  1.0295
 9628TIP3    H250300   0.998   4.301  15.419 -0.2561 -0.9703 -0.6037
 9629TIP3   OH250301   3.139   4.464   6.271 -0.4232 -0.5387  0.1161
 9629TIP3    H150302   3.051   4.425   6.268 -0.4975 -0.5080  1.4482
 9629TIP3    H250303   3.156   4.475   6.365  0.3233  1.0010 -0.2024
 9630TIP3   OH250304   1.120   3.850  12.186 -0.8675  0.2460 -0.0233
 9630TIP3    H150305   1.148   3.816  12.271 -1.6203 -0.7694 -0.1754
 9630TIP3    H250306   1.199   3.847  12.132 -0.1673  1.7113  0.8766
 9631TIP3   OH250307   5.517   1.127  13.115 -0.4310  0.5799  0.0288
 9631TIP3    H150308   5.495   1.202  13.171  0.7676  0.4985  0.6275
 9631TIP3    H250309   5.609   1.111  13.133 -0.5420 -0.6921 -0.5239
 9632TIP3   OH250310   5.609   3.713   5.332 -0.2075  0.5453 -0.2765
 9632TIP3    H150311   5.649   3.627   5.319 -0.3659  0.7989 -2.7182
 9632TIP3    H250312   5.515   3.695   5.342 -0.1033  0.3547  0.3737
 9633TIP3   OH250313   3.441   6.665   4.506  0.0575  0.0198 -0.4902
 9633TIP3    H150314   3.434   6.751   4.464 -0.2787  0.3748  0.2827
 9633TIP3    H250315   3.527   6.633   4.481  0.8619  1.3156  0.5820
 9634TIP3   OH250316   2.160   5.919   0.968  0.1022 -0.2605  0.6643
 9634TIP3    H150317   2.135   5.850   1.030 -1.8099  0.1314  0.3623
 9634TIP3    H250318   2.087   5.981   0.971  0.0566 -0.1389 -1.8429
 9635TIP3   OH250319   2.075   2.402  13.027  0.8842  0.1065  0.1638
 9635TIP3    H150320   2.003   2.462  13.051  0.4928 -0.2383 -0.1402
 9635TIP3    H250321   2.114   2.378  13.111  1.4030  1.2255  0.2604
 9636TIP3   OH250322   2.467   3.454   1.254  0.0803  0.0584 -0.0713
 9636TIP3    H150323   2.381   3.459   1.296  0.1482  2.2886 -0.1159
 9636TIP3    H250324   2.529   3.444   1.326 -0.1031 -0.0564  0.0690
 9637TIP3   OH250325   5.766   4.794  14.585  0.1392 -0.6519  0.0815
 9637TIP3    H150326   5.699   4.845  14.540  2.3698 -0.3187 -3.0296
 9637TIP3    H250327   5.754   4.705  14.551 -2.1183 -1.7753  3.5927
 9638TIP3   OH250328   5.813   3.371  10.517  0.9627  0.4223 -0.1189
 9638TIP3    H150329   5.903   3.401  10.532  0.9265  1.4941 -1.9378
 9638TIP3    H250330   5.821   3.281  10.488  1.5406  0.9420 -1.5765
 9639TIP3   OH250331   6.710   5.983  15.691  0.0014 -0.0267 -0.8591
 9639TIP3    H150332   6.770   6.057  15.699 -0.1579  0.3818 -3.0379
 9639TIP3    H250333   6.624   6.022  15.679 -0.2769 -0.5760 -0.6772
 9640TIP3   OH250334   2.472   3.589  16.265  0.2685 -0.6758  0.0856
 9640TIP3    H150335   2.534   3.553  16.329  3.2446 -0.1904 -2.3797
 9640TIP3    H250336   2.439   3.669  16.306  3.7100  0.7604  0.2721
 9641TIP3   OH250337   3.607   0.249   1.486  0.0395 -1.1916  0.1954
 9641TIP3    H150338   3.543   0.207   1.430 -0.6551  0.1179 -0.0207
 9641TIP3    H250339   3.632   0.182   1.549 -0.8495 -1.9926 -0.2941
 9642TIP3   OH250340   5.903   5.376   4.076  0.0916  0.3637 -0.3966
 9642TIP3    H150341   5.825   5.355   4.024 -0.5735 -0.7983  1.0254
 9642TIP3    H250342   5.972   5.322   4.037  0.1882  1.3432 -1.6186
 9643TIP3   OH250343   4.961   3.291   1.397  0.3563 -0.1454 -0.3853
 9643TIP3    H150344   5.037   3.238   1.421 -0.5492 -1.4727 -0.3728
 9643TIP3    H250345   4.921   3.243   1.323 -0.2333  0.7486 -0.6539
 9644TIP3   OH250346   1.781   5.681   0.005  0.8199 -0.4207 -0.5662
 9644TIP3    H150347   1.738   5.639   0.080 -0.5117  2.8130  0.5296
 9644TIP3    H250348   1.712   5.692  -0.060  1.8124 -2.5327 -2.0520
 9645TIP3   OH250349   5.478   1.893   6.179 -0.3256  0.4841 -0.1795
 9645TIP3    H150350   5.448   1.975   6.219  1.4354  1.5721 -1.0001
 9645TIP3    H250351   5.572   1.889   6.199 -0.1861 -0.7993 -1.0251
 9646TIP3   OH250352   2.955   5.876  14.238  0.4136  0.0520 -0.3681
 9646TIP3    H150353   2.949   5.971  14.228 -0.8553  0.2789  2.1868
 9646TIP3    H250354   2.895   5.842  14.171  0.6360  1.0578 -1.0918
 9647TIP3   OH250355   2.348   4.209  14.442 -0.1826  0.4430  0.5976
 9647TIP3    H150356   2.439   4.235  14.425 -0.6245 -0.6807 -4.1074
 9647TIP3    H250357   2.299   4.291  14.434  0.1308  0.6756  0.9771
 9648TIP3   OH250358   5.823   1.419  13.801 -0.4970  0.5692  0.1498
 9648TIP3    H150359   5.831   1.492  13.739 -1.1541  1.0458  0.6243
 9648TIP3    H250360   5.735   1.386  13.786  0.6449 -1.7345 -1.8219
 9649TIP3   OH250361   4.130   6.136   5.062  0.1666  0.0404 -0.2083
 9649TIP3    H150362   4.072   6.116   4.989 -0.6644  0.0047  0.4509
 9649TIP3    H250363   4.213   6.093   5.041 -0.7428 -1.7783 -0.0940
 9650TIP3   OH250364   2.629   0.660  14.581  0.0286 -0.0839  0.0101
 9650TIP3    H150365   2.626   0.592  14.514  0.0705 -1.5556  1.4769
 9650TIP3    H250366   2.542   0.658  14.621  0.4454 -0.1852  0.9288
 9651TIP3   OH250367   5.436   6.464   5.751  0.3644 -0.7891  0.3250
 9651TIP3    H150368   5.378   6.452   5.676 -0.2787  0.6704  0.5747
 9651TIP3    H250369   5.400   6.410   5.820 -1.8843  1.6281  1.1151
 9652TIP3   OH250370   5.867   4.365   2.855 -0.4147  0.6444  0.0709
 9652TIP3    H150371   5.879   4.460   2.849 -1.5218  0.7873  0.1141
 9652TIP3    H250372   5.833   4.351   2.943  0.2669  0.1484  0.2592
 9653TIP3   OH250373   1.685   5.181   1.245 -0.0213  0.1990  0.3374
 9653TIP3    H150374   1.681   5.111   1.180 -0.7856  1.1509 -0.6590
 9653TIP3    H250375   1.732   5.252   1.202 -0.5754  0.8552  0.7988
 9654TIP3   OH250376   2.922   4.320  15.215  0.2015 -0.4147  0.1580
 9654TIP3    H150377   2.860   4.280  15.276 -1.3025  0.3928 -0.8295
 9654TIP3    H250378   2.944   4.249  15.154 -0.6447 -0.3944 -0.1781
 9655TIP3   OH250379   5.540   0.964  15.392 -1.3495 -0.3734 -0.6552
 9655TIP3    H150380   5.612   1.024  15.408 -0.9382 -0.2598 -2.8590
 9655TIP3    H250381   5.569   0.881  15.431 -0.2166 -0.2021 -1.1241
 9656TIP3   OH250382   0.697   6.426   4.226  0.0649  0.7375 -0.7161
 9656TIP3    H150383   0.767   6.389   4.172  0.1936 -0.3203  0.1732
 9656TIP3    H250384   0.735   6.433   4.313 -0.8281  0.4778 -0.3073
 9657TIP3   OH250385   6.663   4.668   4.923 -0.2097  0.2145  0.5249
 9657TIP3    H150386   6.714   4.744   4.895 -1.3483  1.2393  1.1762
 9657TIP3    H250387   6.662   4.673   5.018 -2.3793  0.8099  0.5014
 9658TIP3   OH250388   3.947   2.825  13.546 -0.7237  0.4553 -0.3073
 9658TIP3    H150389   3.867   2.818  13.494  0.5278 -1.4500 -2.0557
 9658TIP3    H250390   4.018   2.807  13.484  0.9814  0.8185  1.4841
 9659TIP3   OH250391   3.291   4.638   3.265 -0.4181 -0.1149  0.1632
 9659TIP3    H150392   3.343   4.665   3.190 -1.2659 -0.9036 -0.7190
 9659TIP3    H250393   3.322   4.694   3.337  1.4734 -0.4315 -0.3883
 9660TIP3   OH250394   2.757   3.083  12.690 -0.2648  0.4850  0.4383
 9660TIP3    H150395   2.770   3.007  12.634  1.8356 -0.7951  2.6134
 9660TIP3    H250396   2.666   3.076  12.719  0.0717 -1.5272  1.0751
 9661TIP3   OH250397   5.828   1.662  15.190  0.0828  0.4089  0.5579
 9661TIP3    H150398   5.873   1.627  15.113 -0.4479  0.5755  0.1690
 9661TIP3    H250399   5.797   1.585  15.237  0.9561  0.2839  0.9406
 9662TIP3   OH250400   1.493   0.816   3.862 -0.3450  0.3154  0.0330
 9662TIP3    H150401   1.398   0.812   3.875 -0.4464  1.0203 -0.4807
 9662TIP3    H250402   1.504   0.809   3.767  0.0321  1.8714 -0.0419
 9663TIP3   OH250403   2.657   6.537  15.785 -0.3175 -0.0300  0.5496
 9663TIP3    H150404   2.653   6.468  15.852  2.1252 -0.5387  0.2243
 9663TIP3    H250405   2.741   6.580  15.800 -0.3259  0.7011 -1.3769
 9664TIP3   OH250406   5.617   2.410   0.946  0.1645  0.3014  0.0687
 9664TIP3    H150407   5.527   2.440   0.939  0.0741  0.1576  0.5747
 9664TIP3    H250408   5.629   2.352   0.871 -0.5677 -0.6974  0.7125
 9665TIP3   OH250409   3.719   3.021   2.964  0.5052 -0.4300  0.1002
 9665TIP3    H150410   3.739   2.946   3.021 -0.4894 -0.3352  0.5826
 9665TIP3    H250411   3.716   3.095   3.024 -2.7523 -0.6576  0.2909
 9666TIP3   OH250412   6.725   2.308   0.729  0.3403 -0.1892  0.0266
 9666TIP3    H150413   6.743   2.337   0.640  1.5087 -0.2031  0.2541
 9666TIP3    H250414   6.671   2.378   0.767  0.6922  0.2931 -0.3626
 9667TIP3   OH250415   2.301   0.942   3.923  0.3105 -0.0940  0.3504
 9667TIP3    H150416   2.309   0.907   4.011  0.8774  1.0977  0.7764
 9667TIP3    H250417   2.364   1.014   3.919 -0.7102  0.7848 -0.5552
 9668TIP3   OH250418   0.579   3.265  17.070 -0.2766  0.2228  0.4138
 9668TIP3    H150419   0.670   3.279  17.043 -0.4012  0.4008  0.0862
 9668TIP3    H250420   0.548   3.351  17.098 -0.0982  0.0076  1.2898
 9669TIP3   OH250421   4.531   1.237  10.637 -0.3691 -0.1378  0.2736
 9669TIP3    H150422   4.571   1.302  10.579  1.3438 -1.0522  0.3867
 9669TIP3    H250423   4.437   1.253  10.630 -0.0529  1.3292 -0.8997
 9670TIP3   OH250424   2.101   6.722   1.834 -0.0546 -0.0958  0.2351
 9670TIP3    H150425   2.161   6.780   1.786  0.5695 -1.0198 -0.1289
 9670TIP3    H250426   2.100   6.641   1.782  0.3129 -0.9776  1.5626
 9671TIP3   OH250427   1.210   5.848  16.829 -0.1906 -0.0086 -0.0854
 9671TIP3    H150428   1.226   5.937  16.796  0.8690 -0.6792 -1.4098
 9671TIP3    H250429   1.154   5.808  16.763 -0.6530 -0.3425  0.5100
 9672TIP3   OH250430   5.829   5.044   2.170 -0.0046  0.2820 -0.4003
 9672TIP3    H150431   5.861   5.054   2.080  1.6254 -0.2043  0.1130
 9672TIP3    H250432   5.861   5.121   2.216 -1.9434  1.2016 -0.5050
 9673TIP3   OH250433   4.303   5.370  15.005  0.2045 -0.1782  0.5519
 9673TIP3    H150434   4.304   5.279  14.976  1.2612  0.0678 -0.2089
 9673TIP3    H250435   4.218   5.403  14.978  0.4353 -0.4980 -0.5800
 9674TIP3   OH250436   0.528   5.176   3.926  0.2901  0.2875  0.2849
 9674TIP3    H150437   0.531   5.081   3.926 -1.9059  0.1886  0.3935
 9674TIP3    H250438   0.495   5.199   4.013 -2.1263  1.0059 -0.7950
 9675TIP3   OH250439   4.226   5.897   2.342 -0.0955  0.4333 -0.0499
 9675TIP3    H150440   4.153   5.836   2.352 -0.5942  1.0823  0.3095
 9675TIP3    H250441   4.254   5.915   2.432 -1.3384  2.3826  0.0015
 9676TIP3   OH250442   3.238   0.701   1.940  0.7121  0.2667 -0.3350
 9676TIP3    H150443   3.179   0.758   1.892 -0.7842 -1.1608 -0.2514
 9676TIP3    H250444   3.180   0.644   1.991  2.1093 -1.9844 -1.1745
 9677TIP3   OH250445   0.210   5.058   4.225 -0.6913 -0.2182  0.4758
 9677TIP3    H150446   0.181   5.112   4.152 -1.0921  0.9297  1.4708
 9677TIP3    H250447   0.144   4.989   4.232 -1.0819  0.1362  0.2656
 9678TIP3   OH250448   0.922   1.161  11.818  0.4180 -0.0600  0.2491
 9678TIP3    H150449   0.994   1.099  11.815 -0.5825 -1.2374 -0.0014
 9678TIP3    H250450   0.963   1.247  11.832  1.9454 -0.4895 -1.5894
 9679TIP3   OH250451   0.981   4.882   0.911 -0.1908 -0.4733  0.4164
 9679TIP3    H150452   0.903   4.913   0.864 -2.3615 -1.6993  3.0904
 9679TIP3    H250453   1.008   4.957   0.964 -1.6204 -1.0927  2.0561
 9680TIP3   OH250454   3.607   2.982  17.233  0.5553  0.2362  0.0102
 9680TIP3    H150455   3.649   3.064  17.209  1.1308  0.0426  0.3299
 9680TIP3    H250456   3.622   2.974  17.328 -1.6729  0.9824  0.4520
 9681TIP3   OH250457   2.477   2.360   1.505 -0.5364  0.2933 -0.4541
 9681TIP3    H150458   2.408   2.397   1.561 -1.5043 -0.1440 -1.3253
 9681TIP3    H250459   2.432   2.291   1.456  0.7224 -0.5256 -0.4613
 9682TIP3   OH250460   1.007   3.262  14.039  0.0242 -0.1280  0.2251
 9682TIP3    H150461   1.052   3.204  13.978  0.7206 -0.0886  0.6948
 9682TIP3    H250462   1.077   3.301  14.091 -0.3603  1.9716 -0.8057
 9683TIP3   OH250463   4.203   5.782  15.050 -0.5250 -0.5021 -0.4472
 9683TIP3    H150464   4.193   5.742  15.137 -2.4513  0.1631 -0.3293
 9683TIP3    H250465   4.279   5.739  15.012  0.7172 -0.3677  1.8161
 9684TIP3   OH250466   3.052   6.018   5.767  0.2685  0.0130 -0.6830
 9684TIP3    H150467   3.043   6.037   5.673  1.1106  0.5039 -0.6742
 9684TIP3    H250468   3.131   5.965   5.772  1.0118  1.1589 -0.1022
 9685TIP3   OH250469   5.643   0.675   6.141  0.5825 -0.0174 -0.0128
 9685TIP3    H150470   5.586   0.599   6.152  1.7385 -0.8526  0.3214
 9685TIP3    H250471   5.588   0.750   6.163 -0.5700 -0.7593 -0.3408
 9686TIP3   OH250472   1.448   0.739   0.851 -0.1254  0.0183 -0.1291
 9686TIP3    H150473   1.355   0.728   0.871 -0.5173  2.5004 -0.3482
 9686TIP3    H250474   1.483   0.784   0.929  0.7780 -0.4552 -0.2604
 9687TIP3   OH250475   0.256   6.099  14.328  0.4064 -0.2603 -0.4810
 9687TIP3    H150476   0.274   6.165  14.395 -1.9255 -0.7191  0.6398
 9687TIP3    H250477   0.319   6.030  14.345  0.4433  0.0489  0.6680
 9688TIP3   OH250478   6.097   0.895   5.607 -0.3825  0.1169  0.1146
 9688TIP3    H150479   6.189   0.909   5.584 -0.1529  0.5630  1.3024
 9688TIP3    H250480   6.076   0.809   5.569  0.3879  0.2141 -0.5420
 9689TIP3   OH250481   0.605   6.166  14.825  0.1580 -0.4919  0.3013
 9689TIP3    H150482   0.584   6.227  14.754  0.5442  0.3438  0.9025
 9689TIP3    H250483   0.678   6.114  14.791  1.0563  0.6316  0.4891
 9690TIP3   OH250484   3.251   0.067  17.049 -0.3740  0.4840 -0.3263
 9690TIP3    H150485   3.227   0.125  16.977 -0.4860 -1.7480 -2.1548
 9690TIP3    H250486   3.311   0.004  17.010  1.0606  0.3628  2.0033
 9691TIP3   OH250487   0.235   2.299  13.988 -0.4066  0.1405  0.6438
 9691TIP3    H150488   0.244   2.334  13.899 -0.0055  0.2437  0.7229
 9691TIP3    H250489   0.142   2.280  13.997 -0.3741 -0.2979  0.0406
 9692TIP3   OH250490   6.362   1.550  11.511 -0.0673  0.1963  0.5245
 9692TIP3    H150491   6.341   1.642  11.529  2.0797  1.2242 -1.8675
 9692TIP3    H250492   6.287   1.518  11.462 -1.0943  0.4878  1.8773
 9693TIP3   OH250493   0.189   0.060  16.529  0.4398 -0.1107  0.2757
 9693TIP3    H150494   0.120   0.068  16.463 -1.3001 -2.5363  1.7268
 9693TIP3    H250495   0.186   0.143  16.577 -0.4850  0.3586 -0.5706
 9694TIP3   OH250496   6.040   3.930  15.953 -0.7169 -0.6230 -0.1325
 9694TIP3    H150497   6.074   3.998  15.896 -0.3889 -0.3997  0.3258
 9694TIP3    H250498   5.990   3.977  16.020  1.1322 -0.6629  1.3276
 9695TIP3   OH250499   0.379   6.128  14.981 -0.0419  0.0268 -0.5330
 9695TIP3    H150500   0.336   6.212  14.992 -1.2877 -0.7778  1.0322
 9695TIP3    H250501   0.459   6.147  14.932 -0.2836  2.1145 -0.1382
 9696TIP3   OH250502   2.346   2.490   1.063  0.0475 -0.2760  0.2451
 9696TIP3    H150503   2.331   2.409   1.014 -1.4933 -0.4846  1.0348
 9696TIP3    H250504   2.309   2.473   1.150 -0.2606  1.2660  0.4264
 9697TIP3   OH250505   0.389   0.292   3.545 -0.2284 -0.0890  0.2121
 9697TIP3    H150506   0.384   0.249   3.630  1.4451 -1.5295 -0.3898
 9697TIP3    H250507   0.305   0.274   3.503 -1.2989  1.1558  1.7833
 9698TIP3   OH250508   5.656   2.388   2.541  0.3026  0.5285  0.4112
 9698TIP3    H150509   5.634   2.468   2.492  1.4510  1.8341  1.9761
 9698TIP3    H250510   5.739   2.359   2.503  0.3751  0.6357  0.4873
 9699TIP3   OH250511   4.914   0.837  12.933  0.4496  0.2854 -0.2314
 9699TIP3    H150512   4.833   0.870  12.971  0.4796  0.2728 -0.1556
 9699TIP3    H250513   4.978   0.842  13.004  0.2147 -0.8512  0.0659
 9700TIP3   OH250514   1.598   1.002   5.475 -0.5911 -0.3039  0.0765
 9700TIP3    H150515   1.557   1.017   5.560 -0.0571  0.0028  0.2797
 9700TIP3    H250516   1.621   0.909   5.475 -1.1220 -0.4356  0.0327
 9701TIP3   OH250517   1.518   6.304  16.873  0.7525 -0.6066  0.3333
 9701TIP3    H150518   1.504   6.371  16.806  0.4618  0.1272  1.1201
 9701TIP3    H250519   1.613   6.296  16.880  0.7815 -0.8049 -0.2852
 9702TIP3   OH250520   5.476   6.503  12.573  0.0058  0.0486  0.1080
 9702TIP3    H150521   5.402   6.519  12.513  1.0935 -0.2318 -1.3463
 9702TIP3    H250522   5.505   6.590  12.599 -0.1186  0.1989 -0.2400
 9703TIP3   OH250523   3.684   6.303  15.354 -0.9033 -0.3586 -0.2334
 9703TIP3    H150524   3.678   6.327  15.447 -0.7549  0.8001 -0.5131
 9703TIP3    H250525   3.594   6.285  15.328 -0.8731 -1.3172  0.2912
 9704TIP3   OH250526   6.147   2.444   4.914 -0.4860 -0.1808  0.2904
 9704TIP3    H150527   6.126   2.369   4.859 -2.1285 -0.5387  1.3698
 9704TIP3    H250528   6.089   2.514   4.884  0.7142  0.5374 -0.4063
 9705TIP3   OH250529   4.864   6.041   2.441  0.3964  0.6292 -1.0068
 9705TIP3    H150530   4.781   6.087   2.425  0.9494  1.7997 -0.5452
 9705TIP3    H250531   4.845   5.981   2.513  0.4883  2.3773  0.4875
 9706TIP3   OH250532   2.001   2.225   2.517 -0.0033 -0.5561  0.4949
 9706TIP3    H150533   2.037   2.200   2.432 -1.0191 -2.2474  0.5602
 9706TIP3    H250534   2.046   2.308   2.538  0.9272 -0.6009 -1.2410
 9707TIP3   OH250535   4.887   1.106  11.522 -1.7601 -0.3897 -0.0303
 9707TIP3    H150536   4.867   1.028  11.574 -1.0377 -1.4475 -1.2899
 9707TIP3    H250537   4.976   1.130  11.548 -2.1931  0.3494  0.7644
 9708TIP3   OH250538   1.095   4.005   2.262 -0.2296 -0.2180 -0.0542
 9708TIP3    H150539   1.054   3.990   2.347  2.1945 -0.5424  1.0740
 9708TIP3    H250540   1.021   4.009   2.201 -1.8806 -2.0675  1.7332
 9709TIP3   OH250541   5.527   0.589  13.614  0.5845 -0.0599  0.3289
 9709TIP3    H150542   5.602   0.554  13.567  1.1984  2.1025 -0.3760
 9709TIP3    H250543   5.546   0.572  13.706  1.7711  0.1506  0.1268
 9710TIP3   OH250544   0.766   1.001  13.289 -0.5344  0.4845 -0.7087
 9710TIP3    H150545   0.846   0.968  13.250 -0.1271  0.3455  0.2413
 9710TIP3    H250546   0.743   1.077  13.235 -0.0002  0.2823 -1.2317
 9711TIP3   OH250547   5.363   2.881   1.528 -0.0886  0.1795 -0.0567
 9711TIP3    H150548   5.301   2.878   1.455 -0.0257  0.4119 -0.1183
 9711TIP3    H250549   5.379   2.789   1.549 -2.2252  0.0980  1.4675
 9712TIP3   OH250550   4.280   3.481  12.734  0.0676  0.1039 -0.4337
 9712TIP3    H150551   4.239   3.421  12.672  1.9475 -0.3973 -1.2496
 9712TIP3    H250552   4.238   3.565  12.718  0.8439  0.0896 -2.7651
 9713TIP3   OH250553   1.162   5.238   2.769 -0.8042  0.2384 -0.1529
 9713TIP3    H150554   1.258   5.234   2.770 -0.8070 -0.3623 -1.6060
 9713TIP3    H250555   1.139   5.274   2.855  0.5380 -3.4344  1.8853
 9714TIP3   OH250556   2.563   5.775  12.870 -0.1333  0.5621 -0.6725
 9714TIP3    H150557   2.570   5.722  12.790  0.6809  0.7804 -0.7594
 9714TIP3    H250558   2.652   5.772  12.907 -1.1232 -1.7227  1.6224
 9715TIP3   OH250559   6.672   2.359  12.586  0.0608  0.3763 -0.0115
 9715TIP3    H150560   6.756   2.378  12.544  1.5264 -0.2669  2.5173
 9715TIP3    H250561   6.659   2.265  12.571 -1.2108  0.8584 -2.0933
 9716TIP3   OH250562   0.814   3.364   2.386 -0.4177  0.7464  0.5626
 9716TIP3    H150563   0.777   3.431   2.327  0.7933  1.1201  0.2182
 9716TIP3    H250564   0.837   3.292   2.328 -1.7797 -0.0109  0.9442
 9717TIP3   OH250565   5.611   3.160  13.322  0.1553 -0.1960 -0.3578
 9717TIP3    H150566   5.604   3.115  13.407  0.3988 -1.0130 -0.7666
 9717TIP3    H250567   5.598   3.252  13.343  0.5154 -0.3582  0.6183
 9718TIP3   OH250568   3.199   4.993  14.100  0.3163  0.9653 -0.2785
 9718TIP3    H150569   3.176   5.039  14.020  0.9928  2.5156  0.3891
 9718TIP3    H250570   3.115   4.975  14.142  0.0548  2.0454 -0.3179
 9719TIP3   OH250571   5.887   0.970  17.030  0.4504 -0.8481 -0.1901
 9719TIP3    H150572   5.969   1.020  17.029 -1.4805  2.5237  0.3084
 9719TIP3    H250573   5.888   0.921  16.948  2.2415  0.4279 -0.9705
 9720TIP3   OH250574   0.214   6.427   3.205 -0.0278  0.2441 -0.1592
 9720TIP3    H150575   0.265   6.508   3.195  1.3365 -0.6655 -0.7408
 9720TIP3    H250576   0.198   6.420   3.299 -1.2453  1.8347 -0.2223
 9721TIP3   OH250577   5.647   3.970  15.054  0.1166  0.1846 -0.1398
 9721TIP3    H150578   5.633   3.896  15.113  1.6512  0.8374  1.0455
 9721TIP3    H250579   5.635   4.047  15.109  0.2544  0.8115 -0.9872
 9722TIP3   OH250580   3.331   4.354  10.312  0.6766 -0.2282  0.3621
 9722TIP3    H150581   3.317   4.304  10.392  0.7019 -0.0516  0.4753
 9722TIP3    H250582   3.416   4.395  10.324  0.4689  0.1785  0.4410
 9723TIP3   OH250583   4.073   2.038  10.546 -0.0875  1.1875 -0.2812
 9723TIP3    H150584   4.074   2.090  10.465 -0.9592  0.5301 -0.7323
 9723TIP3    H250585   4.118   2.092  10.610  0.2218  1.9120 -1.0986
 9724TIP3   OH250586   2.803   4.849  16.031 -0.0672  0.2421  0.8761
 9724TIP3    H150587   2.859   4.776  16.006 -1.3955 -1.1591  1.9489
 9724TIP3    H250588   2.728   4.809  16.074 -1.1626  2.1944  0.8392
 9725TIP3   OH250589   6.750   2.894   6.036 -0.0718 -0.0242 -0.7715
 9725TIP3    H150590   6.831   2.925   5.995  1.2921 -1.4353  0.7936
 9725TIP3    H250591   6.735   2.808   5.998 -1.3642  0.6132 -1.7369
 9726TIP3   OH250592   4.609   4.326  14.444  0.2002 -0.0611  0.1517
 9726TIP3    H150593   4.593   4.415  14.474 -1.3739 -0.0096 -0.8112
 9726TIP3    H250594   4.604   4.273  14.524 -2.5712  0.2537  0.2115
 9727TIP3   OH250595   2.644   2.665  15.397  0.5387 -0.2296  0.9236
 9727TIP3    H150596   2.722   2.658  15.341 -0.7578  0.7081 -1.0680
 9727TIP3    H250597   2.622   2.574  15.419 -0.2438 -0.7936 -2.0054
 9728TIP3   OH250598   0.107   0.470  11.779 -0.5506  0.1208 -1.0337
 9728TIP3    H150599   0.033   0.424  11.819  1.6069 -1.5747  1.1416
 9728TIP3    H250600   0.116   0.430  11.692 -1.2157 -0.7165 -0.7263
 9729TIP3   OH250601   1.639   1.239  13.829  0.0029 -0.0389  0.1606
 9729TIP3    H150602   1.653   1.281  13.744 -2.3551  1.3685  0.4222
 9729TIP3    H250603   1.651   1.309  13.893 -0.0683 -0.6836  0.8861
 9730TIP3   OH250604   6.416   1.532  13.351 -0.8618 -0.2128 -0.5185
 9730TIP3    H150605   6.507   1.505  13.366 -1.1812 -1.6562 -1.0456
 9730TIP3    H250606   6.406   1.532  13.256 -1.4655 -0.2649 -0.4601
 9731TIP3   OH250607   3.573   1.325   2.492 -0.1447 -0.1767 -0.0777
 9731TIP3    H150608   3.661   1.295   2.517 -1.2630 -1.3629  2.6537
 9731TIP3    H250609   3.569   1.415   2.523 -0.3087 -0.5338  0.9754
 9732TIP3   OH250610   0.467   0.339  13.380 -0.2927  0.2088 -0.5163
 9732TIP3    H150611   0.546   0.390  13.365  0.8911 -1.5212 -0.2877
 9732TIP3    H250612   0.412   0.395  13.434  1.5260  0.7372  0.8284
 9733TIP3   OH250613   0.817   4.732   3.764 -0.5304 -0.3459 -0.2646
 9733TIP3    H150614   0.793   4.824   3.761 -3.8570 -1.0766  1.7364
 9733TIP3    H250615   0.734   4.685   3.755  0.8283 -3.1307  1.1242
 9734TIP3   OH250616   1.957   6.391   1.990  0.3254 -0.5802  0.1586
 9734TIP3    H150617   1.888   6.431   1.938  0.5045 -0.8111 -0.2598
 9734TIP3    H250618   1.982   6.312   1.940  1.0669 -0.3586  0.1755
 9735TIP3   OH250619   1.839   0.701   0.836  0.6218 -0.3302 -0.4413
 9735TIP3    H150620   1.762   0.657   0.799 -0.4600  1.0105  0.1445
 9735TIP3    H250621   1.823   0.702   0.930  1.5285 -0.3486 -0.2853
 9736TIP3   OH250622   2.179   3.953  13.983  0.3353  0.2758  0.6362
 9736TIP3    H150623   2.108   4.014  13.962  0.9197  1.0027  0.7180
 9736TIP3    H250624   2.254   4.010  14.002  0.3845 -0.4056  2.6553
 9737TIP3   OH250625   0.321   2.250  10.640 -0.1224  0.2883 -0.0234
 9737TIP3    H150626   0.277   2.296  10.568 -1.7155 -2.0820 -0.6120
 9737TIP3    H250627   0.250   2.216  10.694  1.0296 -0.7948  0.8457
 9738TIP3   OH250628   6.400   5.671   2.891 -0.2257  0.0950  0.3524
 9738TIP3    H150629   6.306   5.687   2.886 -0.6662 -2.0105  1.5412
 9738TIP3    H250630   6.413   5.629   2.976  1.8377  0.6709  0.3457
 9739TIP3   OH250631   1.305   4.518   0.116  0.4191  0.7383 -0.1816
 9739TIP3    H150632   1.274   4.475   0.036  1.2525  0.6763 -0.4803
 9739TIP3    H250633   1.400   4.502   0.116  0.4973  1.1936  0.5445
 9740TIP3   OH250634   0.422   3.302   1.968  0.2128  0.2849  0.1278
 9740TIP3    H150635   0.447   3.249   2.044 -0.0815  0.1857  0.1559
 9740TIP3    H250636   0.326   3.302   1.969  0.1931  1.6406  0.7078
 9741TIP3   OH250637   2.800   5.493  13.680  0.2994 -0.1636  0.0056
 9741TIP3    H150638   2.869   5.512  13.617 -0.0695 -0.5902 -0.5385
 9741TIP3    H250639   2.721   5.481  13.626  0.0277 -0.7507  0.5223
 9742TIP3   OH250640   6.202   6.036  12.407  0.1651  0.2601  0.5389
 9742TIP3    H150641   6.113   6.070  12.399  0.7201  1.3840 -1.1111
 9742TIP3    H250642   6.258   6.111  12.387  1.4576 -0.9100 -0.3048
 9743TIP3   OH250643   3.735   1.552  16.902 -0.3898 -0.3525  0.1539
 9743TIP3    H150644   3.815   1.603  16.888  0.8420 -2.3529 -0.2765
 9743TIP3    H250645   3.744   1.516  16.990 -0.4176 -1.2328 -0.1891
 9744TIP3   OH250646   3.360   5.386   5.267 -0.9002  0.3625 -0.6863
 9744TIP3    H150647   3.292   5.340   5.317 -0.1468 -1.1341 -1.0082
 9744TIP3    H250648   3.363   5.340   5.184  0.0548  0.8583 -0.9284
 9745TIP3   OH250649   2.617   1.558   3.264 -0.2834 -0.3845 -0.7053
 9745TIP3    H150650   2.574   1.488   3.215 -3.0753  0.4496  0.4570
 9745TIP3    H250651   2.667   1.513   3.332 -1.1308 -1.2990 -0.6774
 9746TIP3   OH250652   5.384   4.452  13.976  0.1928 -0.4011  0.0300
 9746TIP3    H150653   5.431   4.413  14.049 -0.1070 -1.8155 -0.5123
 9746TIP3    H250654   5.452   4.482  13.916  0.4394  0.9675  0.9825
 9747TIP3   OH250655   3.667   3.092   5.186 -0.1844  0.3262  0.4712
 9747TIP3    H150656   3.639   3.004   5.210  0.8254  0.1562  1.0712
 9747TIP3    H250657   3.672   3.090   5.091 -0.3874 -0.1997  0.4691
 9748TIP3   OH250658   0.357   5.956  13.092  0.3606 -0.3724  0.1885
 9748TIP3    H150659   0.409   6.017  13.145  1.3191 -0.8873 -0.1446
 9748TIP3    H250660   0.414   5.881  13.080 -0.3142 -0.7708 -0.5523
 9749TIP3   OH250661   0.360   3.711   4.079 -0.0949 -0.1543 -0.8077
 9749TIP3    H150662   0.333   3.718   4.171 -0.3083  0.3831 -0.9097
 9749TIP3    H250663   0.413   3.632   4.076 -0.6092 -0.5193 -0.3495
 9750TIP3   OH250664   1.115   1.195  13.369  0.7730  0.3779 -0.1275
 9750TIP3    H150665   1.030   1.236  13.352  0.1361 -1.2042 -0.7946
 9750TIP3    H250666   1.093   1.110  13.406  2.1070  1.3342  2.9963
 9751TIP3   OH250667   3.354   1.338   1.290  0.4648 -0.5105 -0.4335
 9751TIP3    H150668   3.325   1.424   1.260 -0.6552 -0.7802 -0.1635
 9751TIP3    H250669   3.447   1.335   1.270  0.2963  0.3721 -1.3587
 9752TIP3   OH250670   1.958   2.182  13.842 -0.1235 -0.1302 -0.1458
 9752TIP3    H150671   1.941   2.221  13.756 -0.7007 -1.9058 -0.8632
 9752TIP3    H250672   1.878   2.195  13.891  0.2067  0.8884  0.1372
 9753TIP3   OH250673   0.552   3.239  14.601 -0.3185  0.0042 -0.3020
 9753TIP3    H150674   0.589   3.232  14.513 -1.0609 -1.0185 -0.5385
 9753TIP3    H250675   0.543   3.148  14.631  0.0146  0.3426  0.8678
 9754TIP3   OH250676   5.109   1.886   5.087  0.1548  0.1599  0.4994
 9754TIP3    H150677   5.017   1.912   5.074  0.3584  1.1276  0.9578
 9754TIP3    H250678   5.154   1.918   5.009  0.3565  0.9530  0.9367
 9755TIP3   OH250679   1.964   2.001   0.824  0.3636  0.3558 -0.2544
 9755TIP3    H150680   2.047   2.016   0.778 -0.6382 -0.8119 -2.5036
 9755TIP3    H250681   1.899   1.992   0.754 -1.3359 -0.6804  1.4226
 9756TIP3   OH250682   3.965   3.928   2.321  0.2365  0.5063 -0.0018
 9756TIP3    H150683   4.023   3.974   2.260  2.3214 -2.0846 -0.0339
 9756TIP3    H250684   4.021   3.905   2.395 -1.1136 -0.7252  0.6545
 9757TIP3   OH250685   1.285   3.648   3.368 -0.1809 -0.4086  0.1009
 9757TIP3    H150686   1.193   3.623   3.376 -0.9240  2.5883  1.5561
 9757TIP3    H250687   1.333   3.582   3.419 -1.7379 -0.7714  1.1116
 9758TIP3   OH250688   2.880   2.771   0.705 -0.3147  0.2475  1.0617
 9758TIP3    H150689   2.796   2.776   0.751 -0.4153  0.5020  0.8556
 9758TIP3    H250690   2.878   2.686   0.661 -0.2939  0.0811  1.3781
 9759TIP3   OH250691   4.366   6.453   2.278  0.1684  0.3112 -0.3528
 9759TIP3    H150692   4.369   6.491   2.366  0.2571  0.0366 -0.2378
 9759TIP3    H250693   4.346   6.361   2.292 -2.7623  0.8210 -0.7531
 9760TIP3   OH250694   6.106   5.606  14.528 -0.1028 -0.1183 -0.0249
 9760TIP3    H150695   6.155   5.603  14.610 -0.2180  1.0197  0.0953
 9760TIP3    H250696   6.019   5.572  14.550 -1.2340  3.3171  1.1483
 9761TIP3   OH250697   6.612   3.361  16.713  0.3410 -0.5027 -0.6270
 9761TIP3    H150698   6.606   3.270  16.743 -0.2971 -0.5429 -0.8646
 9761TIP3    H250699   6.532   3.401  16.745  0.5436 -0.0648 -0.6737
 9762TIP3   OH250700   2.838   4.507   0.699 -0.0948  0.8164 -0.0610
 9762TIP3    H150701   2.867   4.498   0.789  1.1846 -0.5276 -0.6024
 9762TIP3    H250702   2.745   4.485   0.701  0.0420  0.3264  0.8515
 9763TIP3   OH250703   3.622   1.911   4.814  0.1098  0.2291  0.3962
 9763TIP3    H150704   3.527   1.925   4.810 -0.0757 -0.8463  0.9917
 9763TIP3    H250705   3.638   1.840   4.751  0.4960  0.3098  0.4059
 9764TIP3   OH250706   2.286   4.335   6.097  0.9195  0.1680 -0.5623
 9764TIP3    H150707   2.356   4.400   6.094  0.7224  0.3449 -1.5325
 9764TIP3    H250708   2.308   4.272   6.029 -0.3589  0.7365 -1.5121
 9765TIP3   OH250709   5.843   2.750  14.965  0.4882  0.3787 -0.0555
 9765TIP3    H150710   5.865   2.843  14.964  1.7899  0.0853 -0.2747
 9765TIP3    H250711   5.750   2.747  14.988 -0.2325  1.8405 -2.6590
 9766TIP3   OH250712   3.856   2.208   4.539  0.3972 -0.3077  0.6428
 9766TIP3    H150713   3.899   2.149   4.600  2.1503  0.6573  0.3626
 9766TIP3    H250714   3.841   2.155   4.461  0.8163 -0.7227  0.8435
 9767TIP3   OH250715   3.474   3.194  14.628  0.1054 -0.0074 -0.0477
 9767TIP3    H150716   3.531   3.191  14.551 -0.2672  0.1525 -0.3246
 9767TIP3    H250717   3.533   3.218  14.700  0.3204  0.5009 -0.3972
 9768TIP3   OH250718   6.284   6.759  15.371 -1.1930 -0.3116 -0.1749
 9768TIP3    H150719   6.330   6.805  15.441 -0.0602 -1.7386  0.0557
 9768TIP3    H250720   6.272   6.670  15.405  0.0706 -1.2504 -2.0629
 9769TIP3   OH250721   5.061   3.429  11.718  0.0124  0.1964  0.1534
 9769TIP3    H150722   5.002   3.496  11.683 -0.4582 -1.1718 -1.7358
 9769TIP3    H250723   5.010   3.385  11.786 -1.0298 -0.7685 -1.2490
 9770TIP3   OH250724   2.129   0.037  11.728  0.1867  0.3300 -0.1554
 9770TIP3    H150725   2.165   0.112  11.775  0.4982 -0.3644  0.7236
 9770TIP3    H250726   2.069   0.075  11.664 -1.5910  1.1841  1.9776
 9771TIP3   OH250727   0.704   3.554   3.691 -0.1710  0.8313  0.7190
 9771TIP3    H150728   0.674   3.641   3.664 -1.6156  0.1970  0.2572
 9771TIP3    H250729   0.750   3.569   3.774  2.3853  2.4785 -0.9095
 9772TIP3   OH250730   6.253   4.691  12.451 -0.7112 -0.5697  0.0269
 9772TIP3    H150731   6.289   4.767  12.497 -0.3892 -0.3262 -0.6169
 9772TIP3    H250732   6.180   4.662  12.505 -0.4846 -0.1416  0.5656
 9773TIP3   OH250733   4.319   0.751   3.441 -0.4619  0.2616 -0.1963
 9773TIP3    H150734   4.371   0.751   3.521  0.0257  0.6879 -0.5046
 9773TIP3    H250735   4.290   0.842   3.432 -2.6114 -0.2813  0.8271
 9774TIP3   OH250736   2.427   2.850   0.317 -0.0744  0.2670  0.3870
 9774TIP3    H150737   2.484   2.873   0.391  1.8122  0.4788 -1.0978
 9774TIP3    H250738   2.487   2.833   0.245 -1.7781 -2.2444 -0.5150
 9775TIP3   OH250739   3.550   6.467   6.008  0.3749 -0.8359  0.0544
 9775TIP3    H150740   3.501   6.508   6.079 -1.2919 -2.9396  0.1601
 9775TIP3    H250741   3.613   6.534   5.981 -1.0149  1.0892  1.4412
 9776TIP3   OH250742   5.949   3.448   4.615  0.6979  0.8028 -0.4974
 9776TIP3    H150743   5.948   3.372   4.557 -1.1693 -0.7591  1.4722
 9776TIP3    H250744   6.042   3.471   4.624  1.4462 -2.3104  0.1910
 9777TIP3   OH250745   5.403   6.155  15.257  0.2422  0.6308 -0.3678
 9777TIP3    H150746   5.487   6.175  15.215  0.5388  0.1307 -0.0146
 9777TIP3    H250747   5.414   6.067  15.292 -1.6091 -0.8409 -3.3217
 9778TIP3   OH250748   0.524   4.101  14.220  0.2121  0.0982  0.2283
 9778TIP3    H150749   0.513   4.078  14.127  2.4937  1.2622 -0.3772
 9778TIP3    H250750   0.570   4.026  14.258  1.5976  0.7277 -0.1894
 9779TIP3   OH250751   0.010   6.498  17.110  0.3344  0.6257 -0.4682
 9779TIP3    H150752  -0.069   6.518  17.161  0.4169  0.4904 -0.2885
 9779TIP3    H250753   0.082   6.524  17.167  0.4821 -1.2964  0.2598
 9780TIP3   OH250754   1.116   4.904  11.070 -0.3559  0.3007 -0.0106
 9780TIP3    H150755   1.209   4.881  11.073 -0.0437  1.2756 -1.6365
 9780TIP3    H250756   1.071   4.821  11.055  0.2447 -0.1718  0.7548
 9781TIP3   OH250757   2.635   5.123  12.597  0.3329 -0.7140 -0.0721
 9781TIP3    H150758   2.645   5.126  12.692  1.0843  2.6639 -0.2099
 9781TIP3    H250759   2.723   5.136  12.563 -0.0744 -1.0231 -1.2651
 9782TIP3   OH250760   3.243   0.449  14.972 -0.6089 -0.3443 -0.4535
 9782TIP3    H150761   3.308   0.402  14.920 -0.7287 -1.7106  0.5929
 9782TIP3    H250762   3.165   0.452  14.915 -0.6995 -1.7112 -0.4196
 9783TIP3   OH250763   4.345   6.395   0.181  0.2664 -0.1774  0.2629
 9783TIP3    H150764   4.370   6.392   0.274 -1.2023  1.8158  0.7736
 9783TIP3    H250765   4.427   6.412   0.135  0.9711 -0.9197  1.2202
 9784TIP3   OH250766   0.075   0.052   2.738  0.4802  0.2002 -0.2959
 9784TIP3    H150767   0.079   0.131   2.792  0.7256 -0.2938  0.4092
 9784TIP3    H250768   0.166   0.028   2.723  0.4090  0.1858 -0.7289
 9785TIP3   OH250769   0.404   2.681   3.720  0.1837 -0.2173 -0.1482
 9785TIP3    H150770   0.470   2.742   3.687 -0.3851  1.0282  0.9451
 9785TIP3    H250771   0.432   2.662   3.809 -0.3433 -0.5418 -0.0520
 9786TIP3   OH250772   0.911   3.939   0.889 -0.6111 -0.5333  0.0028
 9786TIP3    H150773   0.984   3.962   0.831  0.1311  0.3540  1.2634
 9786TIP3    H250774   0.945   3.869   0.944 -1.0166 -0.7413 -0.0050
 9787TIP3   OH250775   3.544   0.750  16.792  0.0881  0.6888  0.0632
 9787TIP3    H150776   3.506   0.717  16.874  0.5351  1.8779  0.7769
 9787TIP3    H250777   3.518   0.842  16.790  0.6065  0.8192 -0.8306
 9788TIP3   OH250778   0.991   2.630   5.699  0.2121  0.3318  0.2631
 9788TIP3    H150779   0.901   2.616   5.669  0.8546  0.8317 -2.0391
 9788TIP3    H250780   0.998   2.725   5.709  0.7086  0.3601 -0.3398
 9789TIP3   OH250781   1.438   2.520   4.717  0.5201  0.4771  0.5635
 9789TIP3    H150782   1.386   2.550   4.791  0.3522 -0.2926  0.7619
 9789TIP3    H250783   1.483   2.441   4.749  1.1890  0.6841  0.1469
 9790TIP3   OH250784   3.793   0.196  12.370  0.1441 -0.1602  0.8464
 9790TIP3    H150785   3.769   0.104  12.381 -2.4251  0.4978  1.2079
 9790TIP3    H250786   3.848   0.197  12.292  0.1166 -1.9810  0.7725
 9791TIP3   OH250787   2.716   0.696   0.966 -0.6868  0.0113  0.4864
 9791TIP3    H150788   2.663   0.619   0.943 -0.1251 -1.2089  3.1207
 9791TIP3    H250789   2.668   0.769   0.928 -1.1044 -1.6258 -2.2976
 9792TIP3   OH250790   2.982   5.512  11.712 -0.2589  0.4742  0.3776
 9792TIP3    H150791   3.067   5.493  11.752 -0.0943  0.1124 -0.1381
 9792TIP3    H250792   2.925   5.441  11.740  0.8166 -1.8427 -2.9814
 9793TIP3   OH250793   4.164   4.107  12.211 -0.3767  0.6012 -0.1404
 9793TIP3    H150794   4.124   4.057  12.282  0.2491  0.1778 -0.0832
 9793TIP3    H250795   4.221   4.170  12.254 -1.8417  1.9808 -0.1783
 9794TIP3   OH250796   1.893   4.205  14.810  0.4207 -0.0777 -0.2809
 9794TIP3    H150797   1.831   4.234  14.876 -0.8970 -1.0374 -1.0750
 9794TIP3    H250798   1.895   4.276  14.746  0.7134  0.2774  0.1177
 9795TIP3   OH250799   0.354   1.978  16.678  0.5119  0.2050  0.3735
 9795TIP3    H150800   0.339   1.884  16.689 -0.9460  0.2490 -0.9840
 9795TIP3    H250801   0.382   1.988  16.587  1.7198  0.9824  0.8122
 9796TIP3   OH250802   6.398   0.407  13.517  0.1553  0.0968 -0.0172
 9796TIP3    H150803   6.324   0.361  13.556  1.1546  0.3926  2.3339
 9796TIP3    H250804   6.469   0.395  13.580  1.7674  0.8371 -1.6555
 9797TIP3   OH250805   6.769   6.468   1.383  0.0170  0.3703  0.3587
 9797TIP3    H150806   6.785   6.413   1.460 -0.7769 -1.2993 -0.6474
 9797TIP3    H250807   6.683   6.506   1.398  0.3647  0.9885  0.8327
 9798TIP3   OH250808   4.712   1.030  11.832 -0.2558 -0.0701 -0.6336
 9798TIP3    H150809   4.620   1.050  11.843  0.4549  1.5214  3.0709
 9798TIP3    H250810   4.758   1.107  11.865  2.4075 -0.8624 -2.3408
 9799TIP3   OH250811   6.469   3.706  16.189 -0.2875  0.1144 -0.1864
 9799TIP3    H150812   6.383   3.746  16.200 -0.9463 -1.0449 -1.0117
 9799TIP3    H250813   6.471   3.678  16.097  0.8243 -0.1886 -0.0767
 9800TIP3   OH250814   2.707   2.522  12.889 -0.0621  0.0244  0.0378
 9800TIP3    H150815   2.712   2.437  12.844 -0.0295 -1.9560  3.5697
 9800TIP3    H250816   2.798   2.540  12.915 -0.5820 -0.8099  2.5918
 9801TIP3   OH250817   4.696   5.317  17.164 -0.2008 -0.6398  0.5000
 9801TIP3    H150818   4.733   5.400  17.194 -0.5399  0.3040 -1.5908
 9801TIP3    H250819   4.605   5.339  17.142 -0.0818 -1.3993 -0.7647
 9802TIP3   OH250820   5.690   5.053   4.070 -0.7505 -0.6348 -0.3130
 9802TIP3    H150821   5.654   5.069   4.157  2.2190  1.3298  0.6142
 9802TIP3    H250822   5.666   5.130   4.019 -0.9246 -0.9652 -0.7392
 9803TIP3   OH250823   1.424   3.766   4.458 -0.5462 -0.0076  0.0649
 9803TIP3    H150824   1.500   3.817   4.484 -0.3145 -0.0076 -0.6140
 9803TIP3    H250825   1.399   3.717   4.537  0.6360 -0.6238  0.0545
 9804TIP3   OH250826   0.506   1.028  14.885 -0.4510 -0.1755 -0.1748
 9804TIP3    H150827   0.584   1.074  14.853 -0.7303  2.3707  2.6470
 9804TIP3    H250828   0.535   0.937  14.895  0.9586 -0.1097 -2.9811
 9805TIP3   OH250829   0.990   2.369   2.993  0.5543 -0.1489 -0.1656
 9805TIP3    H150830   1.019   2.441   3.049 -0.3067 -0.0261  0.1337
 9805TIP3    H250831   1.050   2.370   2.919 -1.3527  2.9228 -1.7873
 9806TIP3   OH250832   5.705   0.364  14.447  0.3005  0.0861 -0.3097
 9806TIP3    H150833   5.657   0.380  14.366  0.9723  0.9714 -0.5334
 9806TIP3    H250834   5.779   0.309  14.421  0.1908 -0.1212 -0.1931
 9807TIP3   OH250835   2.398   5.056  13.593 -0.2337 -0.0544  0.1659
 9807TIP3    H150836   2.404   5.056  13.497  2.5334  3.3670  0.2105
 9807TIP3    H250837   2.349   5.136  13.614  2.7809  1.4683  1.6690
 9808TIP3   OH250838   2.656   5.005  15.104  0.3165 -0.3194 -0.8525
 9808TIP3    H150839   2.704   4.940  15.052  1.2153  0.1637 -0.6459
 9808TIP3    H250840   2.704   5.009  15.187  0.2551  0.5823 -0.8556
 9809TIP3   OH250841   3.801   1.956  13.094  0.0765  0.5782 -0.3579
 9809TIP3    H150842   3.761   1.932  13.177  0.9463  2.6874  0.6845
 9809TIP3    H250843   3.891   1.978  13.115  0.7039 -0.1985 -2.0870
 9810TIP3   OH250844   4.462   1.896  12.527  0.0490  0.0076 -0.6171
 9810TIP3    H150845   4.398   1.955  12.566  0.7452  0.3683 -0.0133
 9810TIP3    H250846   4.410   1.839  12.470 -0.8394  0.1211  0.0639
 9811TIP3   OH250847   6.263   5.489   4.074  0.3922 -0.2075 -0.6830
 9811TIP3    H150848   6.257   5.483   3.979 -0.7019 -1.0261 -0.5717
 9811TIP3    H250849   6.243   5.401   4.105  0.1871  0.1828  0.3257
 9812TIP3   OH250850   4.136   6.560   4.306 -0.3431 -0.5561 -0.2287
 9812TIP3    H150851   4.191   6.517   4.371 -2.0304 -2.9081 -0.3074
 9812TIP3    H250852   4.077   6.492   4.275 -2.5848  1.6260 -0.9279
 9813TIP3   OH250853   1.873   2.543  11.675 -0.3384 -0.5322 -0.2649
 9813TIP3    H150854   1.915   2.629  11.664 -1.3031 -0.2977 -2.5304
 9813TIP3    H250855   1.779   2.561  11.663 -0.5323 -1.9068 -0.8473
 9814TIP3   OH250856   5.000   4.551  13.759 -0.0830 -0.2684 -0.0203
 9814TIP3    H150857   5.029   4.545  13.850  0.0186  2.8960  0.2155
 9814TIP3    H250858   4.911   4.514  13.760 -0.2158  0.0708  1.4246
 9815TIP3   OH250859   6.754   5.359   4.790  0.0921  0.4255  0.1874
 9815TIP3    H150860   6.696   5.435   4.793 -0.4029  0.0536  0.1900
 9815TIP3    H250861   6.798   5.365   4.706  1.3140  1.6319  0.8855
 9816TIP3   OH250862   1.510   4.937  15.239 -0.0573 -0.2066  0.1393
 9816TIP3    H150863   1.547   4.953  15.152 -1.2923  2.2380  0.0450
 9816TIP3    H250864   1.563   4.990  15.298  0.7611 -1.8425  0.9237
 9817TIP3   OH250865   1.764   2.208   2.976  0.3009 -0.2471  0.0171
 9817TIP3    H150866   1.813   2.187   3.055 -1.5541  0.5065  1.3853
 9817TIP3    H250867   1.678   2.169   2.990 -0.1816  0.2709 -1.4520
 9818TIP3   OH250868   1.132   3.037  12.572  0.2189  0.1722 -0.8633
 9818TIP3    H150869   1.116   2.967  12.509 -0.3473 -1.7505  1.3785
 9818TIP3    H250870   1.045   3.061  12.603  0.4735  1.3695 -1.0499
 9819TIP3   OH250871   0.088   2.954  10.656 -0.5556 -0.7733  0.0003
 9819TIP3    H150872   0.067   3.039  10.617 -1.8698 -0.9001  0.3885
 9819TIP3    H250873   0.181   2.958  10.675 -0.3463  0.1006 -1.1678
 9820TIP3   OH250874   5.448   3.345   5.279  0.7101  0.0366  0.6047
 9820TIP3    H150875   5.439   3.271   5.219 -2.5608 -0.8031  2.0266
 9820TIP3    H250876   5.528   3.390   5.250  0.2712 -1.4078 -3.1311
 9821TIP3   OH250877   2.790   2.366   0.376 -0.3838 -0.5893  0.0051
 9821TIP3    H150878   2.867   2.375   0.432 -1.0766 -0.8175  1.0077
 9821TIP3    H250879   2.821   2.317   0.300  0.4495 -0.7102  0.4164
 9822TIP3   OH250880   6.182   6.087   2.536 -0.1826  0.1798 -0.3414
 9822TIP3    H150881   6.172   6.009   2.483 -0.8974 -0.9386  1.3838
 9822TIP3    H250882   6.093   6.124   2.542 -0.1296  0.2355  0.1435
 9823TIP3   OH250883   6.056   0.101   0.875 -0.2965  1.0092 -0.1511
 9823TIP3    H150884   5.997   0.101   0.950 -0.5964 -1.3135 -0.3474
 9823TIP3    H250885   5.998   0.106   0.798 -0.2436 -0.8178 -0.3299
 9824TIP3   OH250886   3.892   2.074   2.140 -0.3208 -0.0631  0.1392
 9824TIP3    H150887   3.983   2.046   2.154  0.2300  1.2898 -0.5634
 9824TIP3    H250888   3.849   1.998   2.101  0.5977 -0.6153  0.1824
 9825TIP3   OH250889   0.621   5.909  13.808  0.1170  0.4605  0.0556
 9825TIP3    H150890   0.697   5.916  13.750 -0.5559 -0.4761 -0.9604
 9825TIP3    H250891   0.546   5.928  13.752 -0.4836  0.3315  0.8048
 9826TIP3   OH250892   2.977   0.957  13.411 -0.2111 -0.2941 -0.4177
 9826TIP3    H150893   3.021   1.029  13.366 -2.2556  1.3955  0.1953
 9826TIP3    H250894   2.884   0.978  13.403 -0.7850 -2.4398  0.5056
 9827TIP3   OH250895   6.363   5.001  15.144 -0.0278 -0.3079 -0.0899
 9827TIP3    H150896   6.329   5.007  15.054 -1.2411 -2.4344  0.2056
 9827TIP3    H250897   6.299   5.050  15.196  0.8294  1.1729 -0.4024
 9828TIP3   OH250898   6.122   6.659  13.972 -0.1904 -0.1436  0.4269
 9828TIP3    H150899   6.113   6.645  14.066 -2.5183  0.0876  0.2539
 9828TIP3    H250900   6.118   6.572  13.934 -2.5188  0.0028  0.3010
 9829TIP3   OH250901   4.678   6.223   2.381  0.0895  0.0265 -0.3137
 9829TIP3    H150902   4.608   6.234   2.446  0.3382 -1.0669  0.1445
 9829TIP3    H250903   4.715   6.311   2.372 -0.3946  0.3311  0.5162
 9830TIP3   OH250904   2.475   1.330   5.038 -0.1822 -0.5785 -0.1838
 9830TIP3    H150905   2.470   1.315   4.944  0.3363 -0.3124 -0.2598
 9830TIP3    H250906   2.567   1.353   5.054 -0.1624 -1.0850  0.4574
 9831TIP3   OH250907   2.794   1.248   2.101  0.3662 -0.3806 -0.3799
 9831TIP3    H150908   2.857   1.177   2.108  1.1898  0.3761  0.0274
 9831TIP3    H250909   2.750   1.233   2.017  0.0993 -1.7040 -0.0116
 9832TIP3   OH250910   3.047   2.802   1.908 -0.3083 -0.0519 -0.3087
 9832TIP3    H150911   2.957   2.806   1.941 -0.1006 -0.7589  0.3632
 9832TIP3    H250912   3.078   2.892   1.910 -0.8780  0.1376 -0.1706
 9833TIP3   OH250913   0.447   6.696  13.529  0.1683 -0.8081 -0.4661
 9833TIP3    H150914   0.455   6.747  13.449  3.8427 -1.6594 -0.7388
 9833TIP3    H250915   0.398   6.753  13.589  0.6335  1.3646 -2.1040
 9834TIP3   OH250916   0.474   6.071   0.348  0.2900 -0.1505  0.0957
 9834TIP3    H150917   0.558   6.077   0.303  0.3464 -0.4865  0.1564
 9834TIP3    H250918   0.487   6.003   0.414 -0.2369 -0.6816 -0.3468
 9835TIP3   OH250919   1.997   5.858  16.635  0.1869 -0.7845 -0.1669
 9835TIP3    H150920   1.974   5.788  16.574  1.4031 -0.6143 -0.8344
 9835TIP3    H250921   2.087   5.839  16.661  0.2455  0.0730  0.2823
 9836TIP3   OH250922   2.591   2.127   0.065 -0.1659  0.3487 -0.6086
 9836TIP3    H150923   2.521   2.093   0.009  0.3491 -0.3118 -0.8694
 9836TIP3    H250924   2.571   2.220   0.076 -1.0837  0.1612 -0.6701
 9837TIP3   OH250925   0.182   0.436   2.416  0.3921  0.2914 -0.2921
 9837TIP3    H150926   0.259   0.406   2.465  0.3847 -0.2236 -0.5933
 9837TIP3    H250927   0.108   0.413   2.473  0.6101  3.5354  1.4104
 9838TIP3   OH250928   2.940   2.863  14.031 -0.5720 -0.5051  0.2832
 9838TIP3    H150929   3.032   2.839  14.040 -0.0293  0.4103 -2.3249
 9838TIP3    H250930   2.931   2.943  14.082  0.5987  0.5196 -1.0666
 9839TIP3   OH250931   3.771   4.920   2.744 -0.0581 -0.2244  0.4093
 9839TIP3    H150932   3.837   4.857   2.714 -0.6114 -1.4656  1.7258
 9839TIP3    H250933   3.816   4.972   2.810 -0.0946 -0.3974  0.5721
 9840TIP3   OH250934   2.078   0.004   4.908 -0.6410  0.5896 -0.4768
 9840TIP3    H150935   1.992   0.042   4.890 -0.9417  0.4093  0.5399
 9840TIP3    H250936   2.070  -0.032   4.996  0.3336  0.1501 -0.5617
 9841TIP3   OH250937   5.133   5.865  14.891 -0.6642  0.3068 -0.0856
 9841TIP3    H150938   5.154   5.931  14.825 -1.8500  1.3995  0.6084
 9841TIP3    H250939   5.159   5.905  14.974 -0.2784 -0.5850  0.2314
 9842TIP3   OH250940   1.639   2.645  11.598  0.1482 -0.1811 -0.5250
 9842TIP3    H150941   1.568   2.704  11.622  0.9260  0.4727  0.2029
 9842TIP3    H250942   1.704   2.701  11.557 -0.0542 -0.8880 -1.8557
 9843TIP3   OH250943   5.592   4.373  16.282  0.0639 -0.0720 -0.8170
 9843TIP3    H150944   5.614   4.334  16.366  1.6346  3.0158  0.2503
 9843TIP3    H250945   5.517   4.430  16.301 -1.1850 -1.2386 -2.0514
 9844TIP3   OH250946   1.838   2.092  12.250 -0.4889  0.0497 -0.0207
 9844TIP3    H150947   1.814   2.163  12.191 -0.4409  1.4308  1.5859
 9844TIP3    H250948   1.932   2.103  12.263 -0.1697 -1.3338 -1.0774
 9845TIP3   OH250949   5.772   0.360  14.756  0.7613 -0.8665  0.3876
 9845TIP3    H150950   5.853   0.313  14.736 -0.1060 -2.2056 -0.0932
 9845TIP3    H250951   5.751   0.409  14.677  1.0168 -0.6533  0.4541
 9846TIP3   OH250952   4.133   2.890  16.962  0.6298 -0.2468 -0.3857
 9846TIP3    H150953   4.055   2.928  17.003  0.9423 -0.5561  0.4975
 9846TIP3    H250954   4.099   2.845  16.884 -0.4546 -2.5719  1.3772
 9847TIP3   OH250955   5.752   4.565  14.427  0.2633  0.1825 -0.2271
 9847TIP3    H150956   5.698   4.486  14.438 -1.1075  1.2202  0.7655
 9847TIP3    H250957   5.833   4.533  14.388 -0.3329 -1.7013 -0.0116
 9848TIP3   OH250958   6.220   2.188   5.268 -0.1046  0.0802  0.1285
 9848TIP3    H150959   6.249   2.137   5.343 -0.7390 -0.4124  0.0537
 9848TIP3    H250960   6.207   2.123   5.199  0.5271  0.5353 -0.4217
 9849TIP3   OH250961   1.179   5.712  13.380 -0.0840  0.0518  0.1672
 9849TIP3    H150962   1.197   5.670  13.296  2.5439  0.1242  0.6619
 9849TIP3    H250963   1.191   5.806  13.364  3.5959 -0.1483  1.3140
 9850TIP3   OH250964   4.183   3.265   1.131 -0.3349 -0.0590 -0.1899
 9850TIP3    H150965   4.128   3.252   1.209 -0.3315 -0.7294 -0.2987
 9850TIP3    H250966   4.178   3.359   1.114 -0.4726  0.0702  0.5226
 9851TIP3   OH250967   5.119   5.576  16.971 -0.1643 -0.1396 -0.1521
 9851TIP3    H150968   5.025   5.565  16.959 -0.1024 -0.4834 -0.3516
 9851TIP3    H250969   5.157   5.552  16.886  0.1972 -1.3673  0.3418
 9852TIP3   OH250970   5.024   2.546  15.387 -0.2691  0.7761 -0.4893
 9852TIP3    H150971   5.002   2.517  15.298 -0.7315  1.3131 -0.5515
 9852TIP3    H250972   4.992   2.636  15.391 -0.4178  0.6885  0.2825
 9853TIP3   OH250973   1.425   5.962  16.327  0.3609  0.1041  0.3130
 9853TIP3    H150974   1.353   6.004  16.374 -0.6679 -1.3674  0.0730
 9853TIP3    H250975   1.452   5.890  16.383 -0.0170 -0.8684 -0.7406
 9854TIP3   OH250976   2.943   5.769  11.133 -0.1142 -0.0285  0.0974
 9854TIP3    H150977   2.892   5.761  11.052 -1.0647 -1.9623  0.8423
 9854TIP3    H250978   2.877   5.775  11.202  0.6900  2.7067  0.6729
 9855TIP3   OH250979   2.879   1.388  13.967  0.5124  0.5634  0.4363
 9855TIP3    H150980   2.885   1.472  13.922 -0.2804  1.0352  1.2107
 9855TIP3    H250981   2.965   1.376  14.007 -0.5196  2.7741  3.4385
 9856TIP3   OH250982   1.666   3.420  14.439 -0.2240  0.1846  0.0384
 9856TIP3    H150983   1.620   3.348  14.482  0.3645 -0.2347 -0.0276
 9856TIP3    H250984   1.727   3.453  14.505 -1.2003  1.3058  0.4166
 9857TIP3   OH250985   3.912   5.939  12.241 -0.7594  0.0713 -0.0792
 9857TIP3    H150986   3.981   5.925  12.176 -0.0274  1.3126  0.4206
 9857TIP3    H250987   3.851   5.867  12.227  0.6834 -1.0813 -0.4646
 9858TIP3   OH250988   0.606   5.657  11.413  0.6032  0.0576 -0.0388
 9858TIP3    H150989   0.641   5.727  11.468  0.3343 -0.0533  0.2770
 9858TIP3    H250990   0.567   5.595  11.475  1.0628 -0.4955 -0.2987
 9859TIP3   OH250991   6.029   4.029   2.134  0.3774  0.0180  0.4414
 9859TIP3    H150992   6.020   3.972   2.058 -0.2826 -0.4108  0.8275
 9859TIP3    H250993   5.940   4.037   2.168  0.7912 -0.4997  1.6712
 9860TIP3   OH250994   5.461   1.605   0.996  0.1131 -0.5338  0.6441
 9860TIP3    H150995   5.366   1.614   0.989 -0.3877 -1.9601  4.3193
 9860TIP3    H250996   5.492   1.694   1.014 -0.7269 -0.2747  0.8635
 9861TIP3   OH250997   4.440   5.400   4.217 -0.5357  0.1817  0.1853
 9861TIP3    H150998   4.462   5.425   4.307  0.5407  0.2814 -0.0998
 9861TIP3    H250999   4.365   5.342   4.227 -0.2113 -0.0900  1.1883
 9862TIP3   OH251000   5.416   0.071  16.197 -0.0916  0.1534  0.1427
 9862TIP3    H151001   5.494   0.017  16.214 -0.5558 -0.7210 -0.4389
 9862TIP3    H251002   5.397   0.113  16.281 -0.3510 -1.4527  0.9136
 9863TIP3   OH251003   2.592   3.659  13.096  0.2797 -0.1335 -0.1756
 9863TIP3    H151004   2.586   3.570  13.060  0.0862 -0.0675 -0.3032
 9863TIP3    H251005   2.532   3.711  13.044 -1.1589 -0.3500  1.2234
 9864TIP3   OH251006   4.215   2.809  12.131  0.0164 -0.0818  0.0910
 9864TIP3    H151007   4.258   2.855  12.203 -0.6522 -0.0510  0.4724
 9864TIP3    H251008   4.144   2.866  12.104  0.9082  0.3902 -1.3042
 9865TIP3   OH251009   1.506   6.714   1.261 -0.0622  0.1536  0.2028
 9865TIP3    H151010   1.512   6.626   1.297  0.4143 -0.3081 -0.9773
 9865TIP3    H251011   1.589   6.727   1.216  0.0246  1.3551  0.7069
 9866TIP3   OH251012   6.342   6.111   4.594 -0.5509 -0.0861  0.3351
 9866TIP3    H151013   6.333   6.160   4.676 -1.3829  1.5218 -0.6873
 9866TIP3    H251014   6.407   6.159   4.544  0.4532 -1.4468  0.2872
 9867TIP3   OH251015   3.383   5.652   5.364 -0.3147  0.1713  0.3177
 9867TIP3    H151016   3.438   5.582   5.328  1.6749  0.6502  2.3557
 9867TIP3    H251017   3.340   5.612   5.440  0.7784  1.1477  1.4487
 9868TIP3   OH251018   2.944   4.303  11.243  0.3602 -0.3581  0.7224
 9868TIP3    H151019   2.898   4.317  11.326  1.9141 -1.0990  1.7323
 9868TIP3    H251020   2.943   4.389  11.201  1.4916  0.5857  2.5189
 9869TIP3   OH251021   1.851   4.842  13.268 -0.1223  0.3264 -0.1646
 9869TIP3    H151022   1.763   4.875  13.250  0.4106  1.3529 -0.9444
 9869TIP3    H251023   1.881   4.806  13.184  1.6549  3.4471 -0.9618
 9870TIP3   OH251024   1.014   3.239   2.573 -0.0783 -0.1595  0.1321
 9870TIP3    H151025   1.014   3.299   2.498  0.0489  0.0158  0.2707
 9870TIP3    H251026   1.086   3.270   2.628  0.1648 -0.6147  0.0692
 9871TIP3   OH251027   1.229   2.417  16.717  0.0607  0.0869  0.0070
 9871TIP3    H151028   1.300   2.440  16.656 -1.5147  1.0969 -1.5234
 9871TIP3    H251029   1.179   2.498  16.726 -0.2745 -0.3218  1.9366
 9872TIP3   OH251030   2.736   5.086   5.503  0.0172 -0.8234  0.2395
 9872TIP3    H151031   2.659   5.111   5.452 -0.2563  1.2125  1.5796
 9872TIP3    H251032   2.809   5.130   5.459  0.0444 -0.6191  0.4866
 9873TIP3   OH251033   5.552   2.231  12.865 -0.5566  1.2036 -0.6793
 9873TIP3    H151034   5.580   2.276  12.785 -0.9276 -1.2943 -2.2645
 9873TIP3    H251035   5.590   2.144  12.858 -0.9624  0.7990  1.6847
 9874TIP3   OH251036   4.444   2.320   3.015  0.5744  0.1485 -0.1205
 9874TIP3    H151037   4.472   2.325   3.106  1.4822 -0.4114 -0.3578
 9874TIP3    H251038   4.516   2.356   2.965  0.1687  0.2562 -0.6374
 9875TIP3   OH251039   1.633   5.392   1.706 -0.2316  0.3501 -0.7597
 9875TIP3    H151040   1.685   5.443   1.644 -0.9905  1.0980 -0.7904
 9875TIP3    H251041   1.606   5.315   1.657 -1.1100  1.1026 -1.4665
 9876TIP3   OH251042   1.216   0.228  17.218 -0.3321 -0.1872 -0.3019
 9876TIP3    H151043   1.273   0.280  17.162  0.3022 -0.6439 -0.0954
 9876TIP3    H251044   1.179   0.290  17.280  0.3476  0.0337 -0.1164
 9877TIP3   OH251045   1.511   3.465  13.644  0.3615  0.5060  0.2841
 9877TIP3    H151046   1.568   3.431  13.713 -1.1159  1.6300  2.1282
 9877TIP3    H251047   1.538   3.556  13.633  0.8153  0.2436 -0.9022
 9878TIP3   OH251048   5.604   5.179  12.641  0.1492  0.0039  0.0736
 9878TIP3    H151049   5.533   5.183  12.578  1.1335  0.1214 -1.0383
 9878TIP3    H251050   5.576   5.112  12.704 -0.8732 -0.0513 -0.4371
 9879TIP3   OH251051   4.391   4.999   4.055 -0.3592  0.4165  0.4079
 9879TIP3    H151052   4.468   4.972   4.105 -0.6589 -2.2359 -0.4636
 9879TIP3    H251053   4.317   4.971   4.108 -0.6880 -0.8376 -0.6985
 9880TIP3   OH251054   0.770   4.446   0.383 -0.0819 -0.2666  0.1651
 9880TIP3    H151055   0.802   4.404   0.303  0.1919 -0.8457  0.5746
 9880TIP3    H251056   0.790   4.539   0.371 -1.5671 -0.1015 -1.1582
 9881TIP3   OH251057   3.176   5.429  15.802  0.3330 -0.6494 -0.6175
 9881TIP3    H151058   3.202   5.509  15.757  0.0779 -1.4535 -2.2238
 9881TIP3    H251059   3.212   5.359  15.749  1.6501 -1.5995  1.4790
 9882TIP3   OH251060   1.018   3.487  16.585  0.3394 -0.0459  0.2767
 9882TIP3    H151061   1.049   3.504  16.496  1.7099  1.1391  0.9553
 9882TIP3    H251062   0.926   3.515  16.585  0.4051  0.1668 -0.7030
 9883TIP3   OH251063   3.136   0.354  15.481  0.8163 -0.2003  0.4521
 9883TIP3    H151064   3.228   0.328  15.481  0.3314 -2.0184  0.5475
 9883TIP3    H251065   3.098   0.309  15.557 -0.1945  0.3833  0.3086
 9884TIP3   OH251066   1.778   1.860   3.633  0.6304  0.9814  0.2722
 9884TIP3    H151067   1.839   1.795   3.599 -1.9747 -0.9133 -0.9435
 9884TIP3    H251068   1.804   1.869   3.725  1.5114 -1.2527  0.3000
 9885TIP3   OH251069   0.175   6.160   1.806  0.8228  0.2795  0.3135
 9885TIP3    H151070   0.249   6.110   1.840  2.5488  1.4114 -1.6769
 9885TIP3    H251071   0.112   6.094   1.779  0.8571 -0.6861  2.4732
 9886TIP3   OH251072   0.975   4.701  14.292  0.2253  0.1500 -0.5738
 9886TIP3    H151073   1.009   4.769  14.350  1.0466  0.4628 -1.4226
 9886TIP3    H251074   1.031   4.625  14.309  0.1502  0.0894 -0.5973
 9887TIP3   OH251075   3.284   5.220   1.577  0.2007  0.6907  0.1966
 9887TIP3    H151076   3.326   5.286   1.633  0.3663  0.7157  0.0430
 9887TIP3    H251077   3.328   5.229   1.492  1.8296 -1.1612  0.8031
 9888TIP3   OH251078   2.030   0.331   3.306 -0.0461  0.1076  0.2675
 9888TIP3    H151079   2.014   0.348   3.398 -1.3276 -0.9511  0.2747
 9888TIP3    H251080   2.124   0.340   3.295  0.1301  0.1358  1.7040
 9889TIP3   OH251081   4.541   6.719   2.180 -0.6462 -0.0672 -0.2227
 9889TIP3    H151082   4.613   6.782   2.187 -0.7009  0.2078 -1.9245
 9889TIP3    H251083   4.583   6.637   2.156 -0.6558 -0.5118  1.2459
 9890TIP3   OH251084   4.700   0.951   4.519  0.1367 -0.0990  0.0308
 9890TIP3    H151085   4.695   0.954   4.424 -2.1323  1.4582  0.1615
 9890TIP3    H251086   4.613   0.922   4.547  1.1396 -1.7521  1.6162
 9891TIP3   OH251087   1.311   3.195   6.481  0.0817  0.9585 -0.2061
 9891TIP3    H151088   1.381   3.260   6.489 -0.5299  1.7686 -1.3951
 9891TIP3    H251089   1.241   3.228   6.537 -0.2873  1.3851 -0.9306
 9892TIP3   OH251090   6.346   3.306  13.077  0.0531 -0.1757  0.4483
 9892TIP3    H151091   6.394   3.271  13.003  0.7647 -2.1545  1.7978
 9892TIP3    H251092   6.414   3.335  13.138 -0.4932 -0.5119  1.2251
 9893TIP3   OH251093   6.324   5.396   2.086 -0.2659 -0.3500  0.3890
 9893TIP3    H151094   6.386   5.359   2.023 -0.2489 -0.3615  0.4126
 9893TIP3    H251095   6.320   5.333   2.157  3.2788  1.8282  2.6769
 9894TIP3   OH251096   3.048   4.845  16.320  0.0618  0.3084  0.2161
 9894TIP3    H151097   3.049   4.749  16.324 -0.6732  0.3149  0.6738
 9894TIP3    H251098   3.130   4.868  16.276  1.4599 -0.4187  2.3858
 9895TIP3   OH251099   1.884   3.494  13.640  0.2099 -0.1444  0.3774
 9895TIP3    H151100   1.921   3.406  13.649 -1.4157 -0.8131  0.6845
 9895TIP3    H251101   1.961   3.551  13.633  1.2776 -1.6598 -0.6981
 9896TIP3   OH251102   0.188   5.618   6.031 -0.4452  0.5200  0.3562
 9896TIP3    H151103   0.213   5.530   6.004 -0.4628  0.8290 -0.7280
 9896TIP3    H251104   0.117   5.605   6.093 -1.0955 -0.2151 -0.5163
 9897TIP3   OH251105   6.370   0.799   5.764  0.3959  1.3722  0.4134
 9897TIP3    H151106   6.344   0.707   5.756  1.3369  1.0452  1.0887
 9897TIP3    H251107   6.377   0.814   5.858 -3.3524  3.1596  0.5276
 9898TIP3   OH251108   5.838   6.457   2.626  0.4071 -0.1493 -0.2598
 9898TIP3    H151109   5.849   6.501   2.542 -0.3866 -0.6862 -0.6481
 9898TIP3    H251110   5.927   6.445   2.659  0.8523 -1.5817 -1.8825
 9899TIP3   OH251111   1.419   0.308   0.325  0.2565 -0.2656  0.2949
 9899TIP3    H151112   1.337   0.283   0.282 -0.1153 -1.4155  1.6275
 9899TIP3    H251113   1.410   0.401   0.342 -0.2901 -0.1528 -0.5901
 9900TIP3   OH251114   0.186   2.319   3.407 -0.8110 -0.1257  0.1346
 9900TIP3    H151115   0.245   2.330   3.482 -1.6644 -4.1596  1.5459
 9900TIP3    H251116   0.104   2.359   3.435 -1.0486 -1.3933  1.3536
 9901TIP3   OH251117   1.764   3.501   1.200 -0.4579 -0.0360 -0.2563
 9901TIP3    H151118   1.786   3.453   1.280 -2.8247  1.2596  1.2540
 9901TIP3    H251119   1.723   3.436   1.144 -2.0401 -0.2304  1.0710
 9902TIP3   OH251120   5.732   6.537  15.083 -0.2072  0.0404 -0.0743
 9902TIP3    H151121   5.708   6.613  15.136  1.3916 -0.6182  1.6680
 9902TIP3    H251122   5.747   6.467  15.147  2.8838 -0.4924 -1.2877
 9903TIP3   OH251123   4.001   4.369   2.260 -0.3206  0.0707  0.1913
 9903TIP3    H151124   3.906   4.372   2.273 -0.4524  0.7887 -0.8853
 9903TIP3    H251125   4.032   4.452   2.297 -0.0676 -0.3002  0.8219
 9904TIP3   OH251126   5.307   2.520   3.149  0.2553  0.0191 -0.1845
 9904TIP3    H151127   5.349   2.546   3.231 -2.4709  0.0755  1.2703
 9904TIP3    H251128   5.218   2.556   3.155 -0.4437 -1.1479 -2.5744
 9905TIP3   OH251129   2.742   4.268   4.538 -0.2465  0.0463 -0.5020
 9905TIP3    H151130   2.753   4.179   4.507 -2.3235 -0.9393  1.4381
 9905TIP3    H251131   2.782   4.268   4.625 -1.3683  0.6681  0.0212
 9906TIP3   OH251132   1.570   3.164  12.654 -0.2392 -0.6552 -0.0339
 9906TIP3    H151133   1.497   3.104  12.672  0.0393 -1.2095 -0.7526
 9906TIP3    H251134   1.622   3.120  12.587 -0.9035  1.0679 -1.7597
 9907TIP3   OH251135   0.116   4.476  11.369 -0.3769  0.2907 -0.1328
 9907TIP3    H151136   0.120   4.389  11.409  0.1683  0.9416  1.2912
 9907TIP3    H251137   0.157   4.464  11.283 -0.3598 -0.8710  0.0188
 9908TIP3   OH251138   3.519   3.266  16.365 -0.3417  1.0623 -0.1732
 9908TIP3    H151139   3.583   3.198  16.347 -0.6493  0.7920 -0.2417
 9908TIP3    H251140   3.561   3.321  16.432  0.1126  1.1063 -0.4929
 9909TIP3   OH251141   6.392   3.143   3.926  0.6041 -0.2278 -0.4504
 9909TIP3    H151142   6.426   3.119   3.839 -0.4246 -1.2701 -0.5782
 9909TIP3    H251143   6.391   3.061   3.975  2.0542  0.5184  0.8753
 9910TIP3   OH251144   3.479   4.033   3.873 -0.0269 -0.5369 -0.2532
 9910TIP3    H151145   3.490   4.126   3.852  1.0881 -1.0850 -2.2816
 9910TIP3    H251146   3.506   4.025   3.964 -3.1322  1.6326  0.9481
 9911TIP3   OH251147   4.440   0.333   0.556  0.3977 -0.4664  0.2552
 9911TIP3    H151148   4.426   0.354   0.649 -0.1213 -0.3403  0.1485
 9911TIP3    H251149   4.419   0.414   0.510  0.4283 -0.6014  0.0063
 9912TIP3   OH251150   3.713   2.754   3.400 -0.6568  0.1738 -0.2273
 9912TIP3    H151151   3.765   2.751   3.480  1.0936 -0.0382 -1.3324
 9912TIP3    H251152   3.662   2.834   3.407 -1.1581 -0.2710  1.4618
 9913TIP3   OH251153   1.833   5.440   1.521  0.1772 -0.5086  0.2634
 9913TIP3    H151154   1.794   5.362   1.481  2.6566 -1.2238 -0.8509
 9913TIP3    H251155   1.845   5.500   1.448 -0.1758  0.2763  0.8459
 9914TIP3   OH251156   0.884   0.284   5.612  0.0808 -0.3727  0.7029
 9914TIP3    H151157   0.834   0.216   5.658 -0.3349 -0.0980  0.6604
 9914TIP3    H251158   0.881   0.359   5.672 -0.1878 -0.1172  0.3681
 9915TIP3   OH251159   6.340   3.919   2.348  0.1187 -0.1687 -0.1082
 9915TIP3    H151160   6.309   3.836   2.311  0.3098 -0.3231  0.0782
 9915TIP3    H251161   6.385   3.894   2.429  1.0564  0.0274 -0.5740
 9916TIP3   OH251162   0.554   4.312   2.993 -0.5035  0.1834 -0.5429
 9916TIP3    H151163   0.648   4.330   2.994 -0.3260 -0.6110 -1.9911
 9916TIP3    H251164   0.522   4.361   2.917 -1.2382  0.2855 -0.1726
 9917TIP3   OH251165   0.228   2.730   5.679  0.6442 -0.0982  0.5696
 9917TIP3    H151166   0.206   2.659   5.739 -1.8079  3.2446  3.8241
 9917TIP3    H251167   0.304   2.773   5.720  0.4362  0.7876  0.0390
 9918TIP3   OH251168   3.982   0.460  16.685 -0.2754  0.0266 -0.1796
 9918TIP3    H151169   3.970   0.531  16.622  0.6655  1.5524  1.3051
 9918TIP3    H251170   3.894   0.440  16.717 -0.7701 -0.8177 -2.0021
 9919TIP3   OH251171   0.907   5.135  13.636 -0.5064  0.3928  0.4440
 9919TIP3    H151172   0.888   5.229  13.631  1.6683  0.8809  0.6242
 9919TIP3    H251173   0.829   5.096  13.675 -0.6351  2.4132  2.3091
 9920TIP3   OH251174   0.255   4.056  12.132  0.0686  0.2780  0.5220
 9920TIP3    H151175   0.277   3.964  12.118 -2.2502 -0.4098  1.2671
 9920TIP3    H251176   0.325   4.104  12.087 -0.3232 -1.8354 -2.4831
 9921TIP3   OH251177   4.514   5.397   3.951 -0.7761 -0.7985 -0.7859
 9921TIP3    H151178   4.461   5.368   4.025 -2.2474  0.6527 -1.2463
 9921TIP3    H251179   4.603   5.370   3.973 -1.5454 -2.3271  0.4876
 9922TIP3   OH251180   0.813   1.952   2.975  0.6253 -0.0355 -0.7176
 9922TIP3    H151181   0.783   1.901   2.899 -2.3169 -0.6049  0.7295
 9922TIP3    H251182   0.871   1.892   3.023 -0.7852 -1.1675 -0.3854
 9923TIP3   OH251183   0.843   6.108   6.473 -0.8678  0.3825 -0.4549
 9923TIP3    H151184   0.917   6.146   6.425 -0.5391  0.5136  0.1516
 9923TIP3    H251185   0.768   6.121   6.415 -0.6407  1.3691 -0.5399
 9924TIP3   OH251186   1.917   2.740   3.348 -0.2241 -0.4657  0.4074
 9924TIP3    H151187   1.957   2.681   3.412 -0.7453 -1.2298  0.0276
 9924TIP3    H251188   1.838   2.772   3.392  1.3689  1.9580  1.6246
 9925TIP3   OH251189   4.889   1.723   1.373 -0.1275 -0.0981 -0.1138
 9925TIP3    H151190   4.826   1.660   1.407 -1.4677  0.7330 -1.0294
 9925TIP3    H251191   4.888   1.795   1.436 -1.6229  0.8379 -1.1850
 9926TIP3   OH251192   6.153   3.514  11.210 -0.0847  0.3422  0.4110
 9926TIP3    H151193   6.231   3.461  11.229  0.5407  1.4031  0.9028
 9926TIP3    H251194   6.184   3.579  11.146 -1.4881 -1.4934 -2.1942
 9927TIP3   OH251195   5.771   0.982   1.512 -0.2498  0.4265  0.2528
 9927TIP3    H151196   5.758   1.010   1.421 -0.9833  0.8559  0.4886
 9927TIP3    H251197   5.688   1.002   1.555 -0.6747 -1.8029  0.5230
 9928TIP3   OH251198   3.076   5.896  16.086 -0.1463 -0.1882 -0.4690
 9928TIP3    H151199   3.047   5.913  15.996 -0.1225  2.8764  0.0364
 9928TIP3    H251200   2.998   5.910  16.139  0.4281  0.5221  0.1999
 9929TIP3   OH251201   5.044   4.431   4.584 -0.3230 -0.4998 -0.0570
 9929TIP3    H151202   5.028   4.350   4.632  0.4929 -0.6729 -0.0764
 9929TIP3    H251203   5.116   4.410   4.524 -0.6077  0.0215 -0.5946
 9930TIP3   OH251204   6.232   1.361  15.719  0.5045 -0.1835  0.0455
 9930TIP3    H151205   6.290   1.415  15.666 -0.1871  0.4791 -0.0324
 9930TIP3    H251206   6.200   1.294  15.659  1.9026 -1.1037  0.3102
 9931TIP3   OH251207   2.327   1.734   3.892  0.3215  0.3608 -0.3266
 9931TIP3    H151208   2.326   1.820   3.850 -0.3390  0.8114  0.6060
 9931TIP3    H251209   2.383   1.680   3.835  0.2283  1.2287 -1.2503
 9932TIP3   OH251210   2.706   4.187  15.349  0.0852  0.0652 -0.7765
 9932TIP3    H151211   2.712   4.101  15.391  0.4825  0.6164  0.3081
 9932TIP3    H251212   2.613   4.196  15.328 -0.2708  0.1549  0.7837
 9933TIP3   OH251213   3.143   0.209   0.646 -0.3764 -0.1217 -0.1093
 9933TIP3    H151214   3.057   0.221   0.604  0.4175 -0.9723 -2.0736
 9933TIP3    H251215   3.205   0.244   0.582  0.9454 -2.2436 -0.0180
 9934TIP3   OH251216   2.238   0.947   0.639 -0.3317  0.0215  0.1308
 9934TIP3    H151217   2.203   1.018   0.585 -0.6398 -0.3124 -0.1135
 9934TIP3    H251218   2.163   0.890   0.654  0.2593 -1.0837 -1.0078
 9935TIP3   OH251219   6.244   3.839   4.916 -0.3114 -0.4383  0.1877
 9935TIP3    H151220   6.167   3.783   4.907 -2.6821  2.5837  0.8848
 9935TIP3    H251221   6.245   3.892   4.836  1.2184 -0.6385  0.0593
 9936TIP3   OH251222   0.666   2.910  16.876  0.6214  0.3247  0.5043
 9936TIP3    H151223   0.670   2.924  16.971 -0.8520 -1.8778  0.9162
 9936TIP3    H251224   0.670   2.815  16.866 -2.1320  0.3780 -1.4739
 9937TIP3   OH251225   6.001   2.271  11.097 -0.3612 -0.2341 -0.4865
 9937TIP3    H151226   6.031   2.333  11.163  0.2980  0.4572 -1.4141
 9937TIP3    H251227   5.992   2.188  11.144  1.8218 -0.1720  0.1024
 9938TIP3   OH251228   6.216   4.945   2.598  0.3865  0.1006  0.4010
 9938TIP3    H151229   6.280   4.909   2.660 -0.5425 -0.5892  0.9576
 9938TIP3    H251230   6.221   4.887   2.522 -0.2063 -0.4610  0.7926
 9939TIP3   OH251231   1.127   1.880   0.352  0.2784 -0.1507 -0.6094
 9939TIP3    H151232   1.074   1.938   0.406  2.6949  0.9490  0.6164
 9939TIP3    H251233   1.216   1.888   0.386  1.1682 -2.4311 -2.2310
 9940TIP3   OH251234   4.493   0.772   1.251 -0.3899  0.4781  0.0828
 9940TIP3    H151235   4.421   0.774   1.313 -0.4493  1.5551 -0.0247
 9940TIP3    H251236   4.572   0.778   1.305 -0.3667 -0.8353  0.2102
 9941TIP3   OH251237   2.653   5.764   5.842 -0.0803 -0.2105 -0.1694
 9941TIP3    H151238   2.560   5.780   5.825  0.0305 -0.7980 -1.3837
 9941TIP3    H251239   2.694   5.763   5.755  1.2450  1.1574  0.4074
 9942TIP3   OH251240   4.873   6.391  13.790 -0.1566  0.1554  0.0384
 9942TIP3    H151241   4.928   6.457  13.831  0.5194 -0.7364  0.5624
 9942TIP3    H251242   4.918   6.369  13.708  0.3536 -0.6950  0.5463
 9943TIP3   OH251243   0.264   1.735   5.496 -0.2971  0.6113  0.2917
 9943TIP3    H151244   0.287   1.650   5.457 -0.4870  0.5118  0.3962
 9943TIP3    H251245   0.169   1.742   5.485 -0.1801  1.1454 -0.3827
 9944TIP3   OH251246   1.917   4.169  11.072  0.2427 -0.2433  0.2174
 9944TIP3    H151247   1.847   4.201  11.129 -0.1934 -0.0562 -0.4048
 9944TIP3    H251248   1.992   4.224  11.092  0.5676 -1.1955  1.7193
 9945TIP3   OH251249   1.758   6.304   4.454 -0.6078  0.0008  0.4685
 9945TIP3    H151250   1.830   6.249   4.485 -1.6786 -1.7201 -0.0352
 9945TIP3    H251251   1.784   6.329   4.366 -0.4041 -0.2132  0.4662
 9946TIP3   OH251252   6.502   2.153   4.339  0.3665  0.2674  0.4906
 9946TIP3    H151253   6.580   2.198   4.307 -0.4858  1.2168 -0.2825
 9946TIP3    H251254   6.486   2.083   4.276  0.4076  0.2745  0.4726
 9947TIP3   OH251255   3.211   3.455   2.859  0.3267 -0.2522 -0.6332
 9947TIP3    H151256   3.154   3.524   2.825  0.0530  0.2556  0.8423
 9947TIP3    H251257   3.284   3.502   2.899  1.2736 -0.8821 -1.5976
 9948TIP3   OH251258   3.257   1.451  14.275 -0.8308  0.0227 -0.2368
 9948TIP3    H151259   3.233   1.527  14.328  0.0621  0.5952 -0.6427
 9948TIP3    H251260   3.339   1.420  14.313  0.1989  0.8761 -1.6951
 9949TIP3   OH251261   6.153   5.622   6.145 -0.0389  0.2552  0.0559
 9949TIP3    H151262   6.183   5.638   6.234 -2.3663 -1.0522  1.1294
 9949TIP3    H251263   6.098   5.544   6.152 -1.2864  0.8767 -2.2973
 9950TIP3   OH251264   2.590   0.688   0.518  0.2578 -0.2236 -0.3349
 9950TIP3    H151265   2.670   0.727   0.552  0.5091 -1.3609  0.3712
 9950TIP3    H251266   2.557   0.754   0.456 -0.3651  1.9859  2.2490
 9951TIP3   OH251267   2.625   6.746  13.676  0.3663  0.1495  0.2149
 9951TIP3    H151268   2.714   6.752  13.641 -0.5361 -0.5203 -2.3364
 9951TIP3    H251269   2.632   6.685  13.750  2.1251  0.5945  0.4290
 9952TIP3   OH251270   2.580   1.173  10.871  1.0145 -0.3598  0.4615
 9952TIP3    H151271   2.527   1.094  10.864 -0.3140  0.6056 -0.6485
 9952TIP3    H251272   2.528   1.232  10.926  0.9124  0.6240 -0.6881
 9953TIP3   OH251273   2.246   5.940  12.830  0.3881  0.5341 -0.4662
 9953TIP3    H151274   2.231   5.881  12.757 -0.4991  0.0459  0.0953
 9953TIP3    H251275   2.235   5.885  12.908 -0.6278  1.4582  0.0739
 9954TIP3   OH251276   1.135   3.131  12.157  0.3490 -0.1232  0.2092
 9954TIP3    H151277   1.093   3.135  12.071  1.3386  1.7475 -0.2226
 9954TIP3    H251278   1.180   3.215  12.165  1.0851 -0.6811  2.1497
 9955TIP3   OH251279   0.806   1.159   4.279 -0.1362  0.3019 -0.0224
 9955TIP3    H151280   0.844   1.244   4.298  0.5683  0.1229 -0.6203
 9955TIP3    H251281   0.863   1.121   4.212  0.2619 -1.1366  1.0984
 9956TIP3   OH251282   2.890   5.613   6.131 -0.4057  0.3531  0.4188
 9956TIP3    H151283   2.877   5.528   6.089  1.4514  0.2669  0.0001
 9956TIP3    H251284   2.911   5.591   6.222  2.1975  0.2320 -0.1674
 9957TIP3   OH251285   2.232   1.585  13.192  0.5712 -0.7655  0.2971
 9957TIP3    H151286   2.276   1.668  13.173  0.4240 -0.3915  1.5553
 9957TIP3    H251287   2.259   1.563  13.281 -0.3370 -1.4555  0.4126
 9958TIP3   OH251288   1.637   1.688   6.254  0.1271 -0.3745  0.1682
 9958TIP3    H151289   1.656   1.608   6.302  1.1647 -1.1085 -1.4201
 9958TIP3    H251290   1.677   1.758   6.306  1.1867 -1.1490  0.3884
 9959TIP3   OH251291   1.017   2.764  12.504  0.4296  0.0736 -0.5808
 9959TIP3    H151292   0.947   2.748  12.567  1.5587 -0.6310  0.5235
 9959TIP3    H251293   1.020   2.685  12.450  1.0852 -0.3498  0.0713
 9960TIP3   OH251294   6.383   2.219   2.932 -0.4170 -0.3456  0.1471
 9960TIP3    H151295   6.374   2.197   2.839 -0.0221 -2.4468  0.5867
 9960TIP3    H251296   6.456   2.280   2.935 -0.8183  0.2042 -0.9970
 9961TIP3   OH251297   4.822   3.183  16.576 -0.1385  0.2798  0.1317
 9961TIP3    H151298   4.740   3.133  16.573  0.5573 -0.9363  0.9797
 9961TIP3    H251299   4.810   3.251  16.510 -1.8662  0.1719  0.3041
 9962TIP3   OH251300   1.668   4.659  17.172 -0.2474  0.1048 -0.3361
 9962TIP3    H151301   1.611   4.696  17.239 -2.3658  1.7554 -2.9586
 9962TIP3    H251302   1.664   4.564  17.187 -1.6446  0.3761  1.0984
 9963TIP3   OH251303   4.557   0.983   5.234  0.2069 -0.5290  0.4060
 9963TIP3    H151304   4.501   0.958   5.307  0.7871  0.2775  1.1464
 9963TIP3    H251305   4.646   0.969   5.266  0.5451  2.0528  0.7169
 9964TIP3   OH251306   0.961   6.629  12.847 -0.0305 -0.3276  0.1039
 9964TIP3    H151307   0.981   6.537  12.862  0.0663 -0.3586 -0.2056
 9964TIP3    H251308   1.036   6.662  12.796 -0.0098 -0.0518  0.3083
 9965TIP3   OH251309   2.954   4.690  11.784  0.3050 -0.3335 -0.4322
 9965TIP3    H151310   2.935   4.602  11.816  1.4850 -1.1324 -1.8659
 9965TIP3    H251311   3.041   4.683  11.744  0.3352  1.4381 -0.7283
 9966TIP3   OH251312   5.511   3.926   1.240  0.1630  0.1818  0.6654
 9966TIP3    H151313   5.459   3.857   1.281  0.4568 -0.4021  0.0519
 9966TIP3    H251314   5.512   3.997   1.305  0.6470 -0.7475  1.6796
 9967TIP3   OH251315   1.781   4.316  15.642 -0.1011 -0.0690 -0.5513
 9967TIP3    H151316   1.722   4.241  15.630 -0.3622  0.0201  0.1540
 9967TIP3    H251317   1.735   4.373  15.704  0.9378 -0.2167  0.3598
 9968TIP3   OH251318   2.180   5.524  14.351 -0.4378  1.0438  0.1925
 9968TIP3    H151319   2.116   5.471  14.397  1.5604 -1.9681 -0.3835
 9968TIP3    H251320   2.169   5.502  14.259  1.5223  0.3147  0.0966
 9969TIP3   OH251321   0.268   3.751  11.819  0.5992  0.2208 -0.0362
 9969TIP3    H151322   0.293   3.821  11.879  0.6640 -0.4057  0.6677
 9969TIP3    H251323   0.259   3.795  11.734  0.0036  1.2020  0.5218
 9970TIP3   OH251324   3.044   5.730   4.421 -0.1087  0.0239  0.0837
 9970TIP3    H151325   3.007   5.747   4.335 -0.0948  0.9876  0.2551
 9970TIP3    H251326   2.984   5.667   4.462 -1.0527  0.8504  0.0037
 9971TIP3   OH251327   4.554   5.169   3.138  0.0836  0.0674 -0.1760
 9971TIP3    H151328   4.543   5.211   3.224 -0.4616  1.0519 -0.7118
 9971TIP3    H251329   4.561   5.243   3.077  1.4158 -0.6243 -0.8656
 9972TIP3   OH251330   5.965   5.690  14.892 -0.1295 -0.0117  0.0414
 9972TIP3    H151331   5.899   5.621  14.882 -1.3479  0.9905  0.8970
 9972TIP3    H251332   6.010   5.692  14.808 -0.7308 -1.1828 -0.3373
 9973TIP3   OH251333   0.082   2.275  15.244 -0.3744  0.4623 -0.3247
 9973TIP3    H151334   0.158   2.319  15.206 -1.4925  0.8119 -2.1978
 9973TIP3    H251335   0.119   2.197  15.286  1.3765  2.1384  1.4012
 9974TIP3   OH251336   1.492   4.923   1.865 -0.4323  0.0524 -0.3014
 9974TIP3    H151337   1.404   4.926   1.828  0.5017  0.4713 -2.5385
 9974TIP3    H251338   1.500   4.835   1.901 -0.8361 -0.9111 -2.4834
 9975TIP3   OH251339   5.053   2.869  16.106 -0.1187  0.8257  0.0364
 9975TIP3    H151340   5.085   2.788  16.066 -2.6507  0.4727 -1.4263
 9975TIP3    H251341   4.980   2.896  16.050  1.0462  4.4808  0.1170
 9976TIP3   OH251342   0.738   3.683  11.247  0.0388 -0.7975 -0.2263
 9976TIP3    H151343   0.646   3.671  11.269  0.2318  0.1947  1.2124
 9976TIP3    H251344   0.737   3.715  11.157 -1.1114  0.5051  0.2319
 9977TIP3   OH251345   5.622   0.847   3.829  0.0848 -0.5684 -0.4507
 9977TIP3    H151346   5.596   0.909   3.760 -0.3952 -0.6202 -0.3231
 9977TIP3    H251347   5.539   0.815   3.864  0.2750  0.6657  1.2423
 9978TIP3   OH251348   3.632   4.632   2.321  0.3328  0.2688 -0.7248
 9978TIP3    H151349   3.538   4.633   2.300 -0.0401  1.5623  0.8811
 9978TIP3    H251350   3.657   4.540   2.314 -0.8170  0.0541 -2.1796
 9979TIP3   OH251351   1.137   5.379  13.352  0.3766  0.5413 -0.0489
 9979TIP3    H151352   1.125   5.294  13.396 -1.0155  1.0680  0.6162
 9979TIP3    H251353   1.207   5.422  13.401 -0.7263  0.8574  1.2704
 9980TIP3   OH251354   4.666   0.340  16.055  0.1129  0.2049 -0.3377
 9980TIP3    H151355   4.680   0.335  15.960 -2.1314 -0.9678 -0.6461
 9980TIP3    H251356   4.571   0.344  16.064  0.2862 -0.6201  1.9125
 9981TIP3   OH251357   4.411   4.067  14.888  0.4771 -0.0155  0.0077
 9981TIP3    H151358   4.426   4.143  14.831  0.3142  0.3844  0.4989
 9981TIP3    H251359   4.317   4.064  14.901  0.4150 -0.7133 -0.5688
 9982TIP3   OH251360   5.765   2.889  14.420 -0.5271  0.0419 -0.7570
 9982TIP3    H151361   5.704   2.818  14.398 -0.4210 -0.2517 -0.1286
 9982TIP3    H251362   5.745   2.911  14.511  1.9330 -1.7696  0.2935
 9983TIP3   OH251363   3.130   6.743   0.401  0.2226  0.0591  0.0329
 9983TIP3    H151364   3.198   6.809   0.390  0.9562 -0.3720  1.8199
 9983TIP3    H251365   3.082   6.744   0.318 -0.0867  3.1439  0.1998
 9984TIP3   OH251366   3.141   4.078  13.598 -0.3896  0.2069  0.5442
 9984TIP3    H151367   3.158   4.144  13.530 -2.6061  0.5886  0.3384
 9984TIP3    H251368   3.130   4.128  13.678 -1.8936  0.0930  0.4220
 9985TIP3   OH251369   2.568   6.349   5.884  0.5413 -0.3146 -0.2738
 9985TIP3    H151370   2.626   6.423   5.869  0.8734 -0.4310  0.4021
 9985TIP3    H251371   2.626   6.274   5.895  0.1907 -0.7529 -1.3798
 9986TIP3   OH251372   0.566   3.137   5.840 -0.1084  0.2226 -0.0847
 9986TIP3    H151373   0.603   3.110   5.925 -0.6747  0.2760  0.1782
 9986TIP3    H251374   0.590   3.066   5.780  0.2067  0.1354  0.1413
 9987TIP3   OH251375   3.579   0.072   4.189 -0.2918  0.4998  0.5636
 9987TIP3    H151376   3.509   0.135   4.207 -0.4451  0.4824  0.0289
 9987TIP3    H251377   3.542   0.014   4.122  0.2815  0.5579  0.2024
 9988TIP3   OH251378   5.440   5.681   3.145 -0.5679 -0.9555  0.0553
 9988TIP3    H151379   5.501   5.612   3.119 -0.8899 -1.2336  0.0469
 9988TIP3    H251380   5.407   5.717   3.063  0.3469 -0.1276  0.0391
 9989TIP3   OH251381   6.030   2.297  13.710  0.1640  0.0023  0.0376
 9989TIP3    H151382   6.091   2.328  13.642  1.6622 -0.6239  1.0688
 9989TIP3    H251383   6.021   2.203  13.693  0.8027 -0.2181  0.9035
 9990TIP3   OH251384   3.538   1.769   3.244  0.0882 -0.6734 -0.5053
 9990TIP3    H151385   3.490   1.846   3.275  2.0852 -0.7719  3.1405
 9990TIP3    H251386   3.475   1.697   3.250 -0.8578  0.1134 -0.8816
 9991TIP3   OH251387   5.557   0.774  16.885 -0.6028  0.0260  0.2989
 9991TIP3    H151388   5.493   0.711  16.917 -0.8973  1.0680  1.7833
 9991TIP3    H251389   5.637   0.755  16.934 -0.7867  1.0175  0.9874
 9992TIP3   OH251390   1.625   3.629   5.335 -0.3967 -0.5134 -0.3548
 9992TIP3    H151391   1.626   3.535   5.349  0.1054  0.0440  3.9950
 9992TIP3    H251392   1.715   3.651   5.310 -0.2878 -1.0735 -0.4450
 9993TIP3   OH251393   5.698   5.342   3.903 -0.4077 -0.1481 -0.7163
 9993TIP3    H151394   5.716   5.312   3.814 -1.7775  1.3534 -1.5325
 9993TIP3    H251395   5.672   5.434   3.892  1.8246  0.8154  1.4974
 9994TIP3   OH251396   6.003   5.756  15.421  0.2159  0.0659 -0.7769
 9994TIP3    H151397   6.020   5.759  15.515  1.8131 -1.1038 -0.9984
 9994TIP3    H251398   6.023   5.845  15.390 -2.0896  0.9725  0.2346
 9995TIP3   OH251399   0.446   2.543  16.961 -0.0356  0.0324 -0.1172
 9995TIP3    H151400   0.471   2.451  16.952  0.8885  0.2275  0.3638
 9995TIP3    H251401   0.439   2.557  17.055 -0.2434  0.4354 -0.1920
 9996TIP3   OH251402   2.003   1.590  16.584 -0.1847 -0.0289  0.0269
 9996TIP3    H151403   1.976   1.503  16.614  0.9890 -0.0514  1.0283
 9996TIP3    H251404   2.058   1.573  16.507 -0.0903 -0.1518  0.1226
 9997TIP3   OH251405   0.642   0.204  15.552  0.0675  0.7376  0.0519
 9997TIP3    H151406   0.660   0.185  15.644 -1.6576  0.3624  0.3266
 9997TIP3    H251407   0.710   0.157  15.504 -0.0594 -0.4731  1.0397
 9998TIP3   OH251408   0.253   0.035   0.851 -0.1231 -0.1739 -0.3971
 9998TIP3    H151409   0.345   0.033   0.823 -0.2617  0.9928 -0.9924
 9998TIP3    H251410   0.250  -0.021   0.928  1.4916  1.2648  0.7470
 9999TIP3   OH251411   0.749   1.521  13.687 -0.0343  0.3462  0.3456
 9999TIP3    H151412   0.791   1.461  13.749  1.0495 -0.6176 -1.2806
 9999TIP3    H251413   0.655   1.503  13.696  0.0414  0.8275  2.3082
10000TIP3   OH251414   0.985   1.895   4.188 -0.2508 -0.3644 -0.3019
10000TIP3    H151415   1.041   1.819   4.172 -0.0646 -0.8096  2.2582
10000TIP3    H251416   0.908   1.859   4.231 -0.8925  0.7079 -0.5347
10001TIP3   OH251417   6.760   1.520   3.124  0.1959  0.1021  0.7403
10001TIP3    H151418   6.818   1.556   3.191 -0.3583 -0.1471  1.3697
10001TIP3    H251419   6.695   1.588   3.109  2.0070  1.3333 -1.7038
10002TIP3   OH251420   2.227   4.482  11.162 -0.1602 -0.5556  0.2249
10002TIP3    H151421   2.180   4.460  11.082 -0.2649 -0.4430  0.2543
10002TIP3    H251422   2.280   4.405  11.181  1.4846  0.2046 -1.1465
10003TIP3   OH251423   5.057   3.027  13.267 -0.0558 -0.6481  1.2263
10003TIP3    H151424   4.969   2.992  13.286  0.2573 -1.0201  2.0238
10003TIP3    H251425   5.110   2.949  13.249 -0.0468 -0.3763  0.0449
10004TIP3   OH251426   2.432   1.787  14.282 -0.6420 -0.5217  0.7283
10004TIP3    H151427   2.380   1.867  14.284 -1.2177 -0.8126 -1.2811
10004TIP3    H251428   2.368   1.717  14.264  0.1162 -1.1753  0.5340
10005TIP3   OH251429   1.585   2.531  12.994  0.1709 -0.1981  0.0283
10005TIP3    H151430   1.556   2.517  12.904  0.7543 -0.6666 -0.0923
10005TIP3    H251431   1.519   2.485  13.047  1.4846 -2.5636 -0.3225
10006TIP3   OH251432   2.543   6.283  11.177  0.2848  0.0345 -0.4333
10006TIP3    H151433   2.490   6.356  11.209  0.9699 -0.0221  0.8990
10006TIP3    H251434   2.499   6.205  11.210  0.7913 -0.0430  0.0760
10007TIP3   OH251435   0.477   1.556   5.759  0.4073 -0.1522 -0.0818
10007TIP3    H151436   0.528   1.611   5.819  0.2605  0.2257 -0.3033
10007TIP3    H251437   0.479   1.469   5.799 -0.5417  0.3190  1.0064
10008TIP3   OH251438   5.568   0.719   1.449  0.0760 -0.4388  0.4037
10008TIP3    H151439   5.473   0.719   1.445  0.1026  0.4855 -0.4944
10008TIP3    H251440   5.596   0.761   1.367  1.2684 -1.4077  0.2933
10009TIP3   OH251441   5.703   1.172   2.683  0.2251  0.1717  0.1232
10009TIP3    H151442   5.722   1.157   2.590  1.5584 -3.8784  0.9472
10009TIP3    H251443   5.647   1.099   2.708 -0.7862  1.6562  2.3790
10010TIP3   OH251444   1.216   2.116  16.373 -0.3490 -0.7398 -0.5271
10010TIP3    H151445   1.210   2.047  16.307 -0.7304 -2.6116  1.4086
10010TIP3    H251446   1.126   2.128  16.404 -0.0789 -0.3677  0.1337
10011TIP3   OH251447   0.871   4.519  11.593  0.0462  0.0723 -0.3494
10011TIP3    H151448   0.931   4.454  11.631  1.0198  0.2825 -1.4730
10011TIP3    H251449   0.824   4.555  11.668 -2.1896 -3.5567  0.1065
10012TIP3   OH251450   3.091   0.437   0.043 -0.1132  0.4153  0.2637
10012TIP3    H151451   3.098   0.378   0.119 -2.1418 -0.5018 -0.2113
10012TIP3    H251452   3.180   0.444   0.009  0.6541  0.0142  2.1196
10013TIP3   OH251453   0.803   4.296   4.291  0.0714 -0.4623  0.3806
10013TIP3    H151454   0.878   4.250   4.329 -0.6630 -1.2534  0.9038
10013TIP3    H251455   0.732   4.284   4.355 -1.1159 -1.6250 -1.0997
10014TIP3   OH251456   5.581   0.962  11.446 -0.2862 -0.2060 -0.0735
10014TIP3    H151457   5.664   0.916  11.456  0.1611  0.0793 -2.1647
10014TIP3    H251458   5.590   1.041  11.499  1.1831  0.3084 -1.0565
10015TIP3   OH251459   3.174   6.535   4.581 -0.1427 -0.0815 -0.0016
10015TIP3    H151460   3.227   6.466   4.541 -1.2947 -0.5807 -0.6944
10015TIP3    H251461   3.219   6.556   4.662  1.0593 -0.5681 -0.5349
10016TIP3   OH251462   4.342   4.515   5.089 -0.6653 -0.7603  0.0173
10016TIP3    H151463   4.353   4.607   5.112 -1.8421 -0.8500  0.9620
10016TIP3    H251464   4.255   4.510   5.049 -1.5056 -1.8065  1.8933
10017TIP3   OH251465   4.194   3.385   2.849  0.4210 -0.0194  0.0447
10017TIP3    H151466   4.123   3.381   2.913  1.5431  2.3487  1.5022
10017TIP3    H251467   4.168   3.453   2.787  0.9703  0.1934  0.0408
10018TIP3   OH251468   2.976   0.422   2.449  1.1603 -0.2091  0.1107
10018TIP3    H151469   2.914   0.349   2.443  1.7881 -0.9586  2.1448
10018TIP3    H251470   2.938   0.481   2.514  0.9416  1.0157 -1.1040
10019TIP3   OH251471   5.567   2.029   5.706 -0.1517 -0.2918  0.1504
10019TIP3    H151472   5.639   2.006   5.764  0.2916 -0.3265 -0.4101
10019TIP3    H251473   5.514   2.090   5.757  1.9572  2.1794 -0.5145
10020TIP3   OH251474   0.613   0.553   1.582 -0.0670 -0.3549  0.0185
10020TIP3    H151475   0.656   0.468   1.591 -2.9623 -1.7988  1.1077
10020TIP3    H251476   0.585   0.575   1.671 -1.2308  0.6905 -0.5839
10021TIP3   OH251477   4.775   2.136   2.636 -0.6577 -0.5330 -0.0035
10021TIP3    H151478   4.760   2.060   2.580 -0.8055 -1.1913  0.9216
10021TIP3    H251479   4.863   2.167   2.613 -0.7108 -0.8176 -0.5767
10022TIP3   OH251480   6.164   2.330  11.541  0.0624  0.0496  0.1259
10022TIP3    H151481   6.127   2.243  11.524  0.6574 -0.2351  0.2695
10022TIP3    H251482   6.259   2.315  11.545  0.2129  0.8096 -0.4795
10023TIP3   OH251483   0.367   1.830   1.218  0.0233 -0.1007  0.7963
10023TIP3    H151484   0.451   1.820   1.264  0.0051 -1.8048  0.4875
10023TIP3    H251485   0.324   1.745   1.228 -0.0235 -0.4713 -2.2655
10024TIP3   OH251486   4.316   3.525   1.816 -0.7167 -0.7561  0.6496
10024TIP3    H151487   4.299   3.434   1.838 -0.1276 -0.9718  0.2067
10024TIP3    H251488   4.396   3.547   1.863 -0.8231 -0.4851  0.7083
10025TIP3   OH251489   4.600   2.697   2.567 -0.3009 -0.1923  0.0960
10025TIP3    H151490   4.672   2.675   2.508 -1.0059 -1.4832 -0.2807
10025TIP3    H251491   4.528   2.642   2.539 -2.1296  2.5708 -0.9015
10026TIP3   OH251492   2.385   0.666  12.828 -0.2231  0.3710 -0.3172
10026TIP3    H151493   2.375   0.728  12.900 -0.3991 -2.7679  2.4288
10026TIP3    H251494   2.295   0.649  12.799 -0.2593  0.3326 -0.1794
10027TIP3   OH251495   0.412   4.705   0.737  0.2950 -0.0122 -0.3724
10027TIP3    H151496   0.499   4.736   0.713 -0.6403  1.3210 -2.0945
10027TIP3    H251497   0.355   4.781   0.724 -1.3338 -1.2507 -0.5479
10028TIP3   OH251498   2.293   2.564   0.067 -0.0780 -0.5001  0.5550
10028TIP3    H151499   2.348   2.597  -0.004 -1.3867  1.1656  0.2848
10028TIP3    H251500   2.341   2.586   0.146  1.0378 -1.7162  0.2393
10029TIP3   OH251501   2.808   2.752  13.254 -0.4655  0.3950 -0.0483
10029TIP3    H151502   2.822   2.789  13.166 -1.8007  0.5589 -0.2023
10029TIP3    H251503   2.724   2.788  13.282 -0.6303 -0.6333  0.7990
10030TIP3   OH251504   3.041   3.845   3.849  0.6217 -0.5698  0.1197
10030TIP3    H151505   3.087   3.806   3.923 -0.3423 -2.4573 -0.2325
10030TIP3    H251506   2.976   3.779   3.824 -1.1805  1.3652 -0.4194
10031TIP3   OH251507   3.670   3.341  12.678  0.1602  0.2936  0.4173
10031TIP3    H151508   3.746   3.317  12.625 -0.0572 -1.0924  0.7129
10031TIP3    H251509   3.611   3.266  12.670 -1.5713  1.7320 -0.5263
10032TIP3   OH251510   1.737   5.663  11.594  0.5303 -0.8620  0.0108
10032TIP3    H151511   1.646   5.687  11.581  0.6310 -0.0939  0.6974
10032TIP3    H251512   1.741   5.570  11.572 -0.6196 -1.1379  0.9743
10033TIP3   OH251513   2.885   1.030  17.234 -0.4263  0.0363  0.0439
10033TIP3    H151514   2.959   0.983  17.196 -0.6323 -1.1649  1.1080
10033TIP3    H251515   2.809   0.977  17.213 -0.8534  0.6554 -0.0097
10034TIP3   OH251516   3.418   3.586   6.353 -0.2608  0.5469 -0.1595
10034TIP3    H151517   3.347   3.592   6.290  0.0719  2.2109 -0.3845
10034TIP3    H251518   3.393   3.645   6.424  0.9017  1.1678 -0.2550
10035TIP3   OH251519   1.610   4.928   3.656 -0.1020  0.4515 -0.2010
10035TIP3    H151520   1.639   4.948   3.746  2.4754 -0.0112 -0.8886
10035TIP3    H251521   1.546   4.858   3.667  0.0768  0.4904  1.2830
10036TIP3   OH251522   6.683   6.302   4.657  0.4458 -0.5107 -0.1816
10036TIP3    H151523   6.650   6.233   4.714 -2.1658  0.8329  0.0395
10036TIP3    H251524   6.733   6.360   4.715  0.6142 -0.9297  0.0918
10037TIP3   OH251525   4.214   5.111   0.848  0.3418 -0.0037 -0.4304
10037TIP3    H151526   4.135   5.071   0.812  1.0273 -0.4183 -1.5077
10037TIP3    H251527   4.214   5.200   0.813  0.2398  0.0619 -0.2622
10038TIP3   OH251528   4.613   5.248  11.765  0.9132  0.6435 -0.1228
10038TIP3    H151529   4.588   5.213  11.850  1.7604  1.1432  0.3364
10038TIP3    H251530   4.603   5.175  11.705  0.9663  0.1053  0.5202
10039TIP3   OH251531   0.099   4.698   2.369 -0.4506 -0.1021 -0.1324
10039TIP3    H151532   0.194   4.695   2.357 -0.3742 -0.1255  0.4647
10039TIP3    H251533   0.077   4.791   2.359 -0.2556  0.0183  0.5069
10040TIP3   OH251534   2.800   5.670   5.581 -0.1063 -0.0500  0.4356
10040TIP3    H151535   2.848   5.662   5.499  0.9527  1.2860  0.8958
10040TIP3    H251536   2.728   5.608   5.574  1.6055 -1.9886 -0.3411
10041TIP3   OH251537   4.041   2.774   2.572 -0.4209  0.1113 -0.1617
10041TIP3    H151538   4.110   2.782   2.506 -0.0600  0.4250  0.2511
10041TIP3    H251539   3.994   2.694   2.549  1.0639 -0.9725  0.4779
10042TIP3   OH251540   2.460   6.346  14.303 -0.2399 -0.0806  0.0323
10042TIP3    H151541   2.532   6.408  14.306  1.2668 -1.8175  0.8077
10042TIP3    H251542   2.455   6.319  14.211  0.6455 -0.5746  0.1267
10043TIP3   OH251543   3.102   5.696   2.598 -0.2826  0.1281  0.5021
10043TIP3    H151544   3.121   5.786   2.628 -0.7885  0.4228 -0.0549
10043TIP3    H251545   3.186   5.652   2.602  0.5088  1.3624 -1.7381
10044TIP3   OH251546   5.653   0.629   2.207  0.1373  0.1157  0.4312
10044TIP3    H151547   5.640   0.723   2.212  1.7834  0.3333  0.6877
10044TIP3    H251548   5.733   0.613   2.256 -0.0065 -1.3954  0.1942
10045TIP3   OH251549   2.912   4.687   0.502 -0.7267 -0.1592 -0.1500
10045TIP3    H151550   2.894   4.637   0.582 -0.1897 -0.9919 -0.5435
10045TIP3    H251551   2.911   4.622   0.432  3.5574 -0.3139 -0.2436
10046TIP3   OH251552   3.464   6.699  11.449 -0.0744  0.3489  0.3712
10046TIP3    H151553   3.499   6.675  11.535  0.9195  0.3842 -0.0179
10046TIP3    H251554   3.513   6.646  11.387  0.2111  1.3507 -0.2867
10047TIP3   OH251555   1.173   5.809  15.600 -0.3420 -0.2643 -1.0484
10047TIP3    H151556   1.119   5.730  15.610  0.7880 -1.1814 -2.0619
10047TIP3    H251557   1.115   5.881  15.625 -1.9662 -1.2507 -1.9177
10048TIP3   OH251558   6.314   3.415   3.675  1.1593 -0.1992 -0.2085
10048TIP3    H151559   6.252   3.443   3.607  0.7419 -1.4866 -0.3792
10048TIP3    H251560   6.351   3.496   3.709 -1.2086  0.6571  0.4371
10049TIP3   OH251561   5.442   1.803  13.691  0.5357 -0.1639 -0.3177
10049TIP3    H151562   5.450   1.896  13.708  0.3916 -0.1582 -0.2813
10049TIP3    H251563   5.508   1.785  13.623 -0.4457  0.2436 -1.3937
10050TIP3   OH251564   6.241   6.390   0.925 -0.5277  0.2387 -0.5485
10050TIP3    H151565   6.260   6.379   0.831  2.4405  0.6802 -0.0685
10050TIP3    H251566   6.157   6.347   0.938 -0.7570 -0.2619 -3.3320
10051TIP3   OH251567   5.846   0.872  10.548  0.1458  0.2256  0.8694
10051TIP3    H151568   5.938   0.886  10.528  0.1704 -1.3072 -0.1355
10051TIP3    H251569   5.804   0.955  10.525  0.9514  0.2001 -0.7361
10052TIP3   OH251570   0.481   3.597  12.546 -0.1639 -0.9604  0.5152
10052TIP3    H151571   0.438   3.683  12.546 -1.5328 -1.6475  0.9834
10052TIP3    H251572   0.539   3.601  12.470 -0.7537  0.1141  0.1008
10053TIP3   OH251573   5.385   5.985   5.828 -0.2345 -0.1197 -0.1889
10053TIP3    H151574   5.319   5.918   5.848 -0.4250 -0.1868 -1.0180
10053TIP3    H251575   5.463   5.956   5.874 -1.0988  0.5740  1.7630
10054TIP3   OH251576   3.139   5.752  15.481  0.6941 -0.0148  0.2188
10054TIP3    H151577   3.148   5.845  15.500  0.3637  0.3723 -1.5057
10054TIP3    H251578   3.072   5.747  15.413 -0.3972 -1.6342  1.3642
10055TIP3   OH251579   4.756   5.825   3.383  0.4997  0.0551 -0.5355
10055TIP3    H151580   4.827   5.880   3.415  0.5761 -0.7151  0.6392
10055TIP3    H251581   4.682   5.846   3.439 -0.3410  1.1796 -2.0340
10056TIP3   OH251582   0.620   2.355  12.955  0.2400  0.1216  0.1597
10056TIP3    H151583   0.617   2.446  12.927  1.4111 -0.4258 -1.8847
10056TIP3    H251584   0.569   2.352  13.036 -0.0508  2.5176  0.0829
10057TIP3   OH251585   0.829   0.397  11.027  0.0251  0.6018 -0.4219
10057TIP3    H151586   0.877   0.352  11.097 -0.1329  1.1373  0.0345
10057TIP3    H251587   0.896   0.442  10.977  0.1006  0.5457 -0.3708
10058TIP3   OH251588   0.508   5.132   6.110  0.1020 -0.5989 -0.1382
10058TIP3    H151589   0.573   5.202   6.113 -0.5293 -0.0423  0.4194
10058TIP3    H251590   0.540   5.067   6.172 -1.1573  0.7860  2.0009
10059TIP3   OH251591   1.724   5.238   3.506  0.7005 -0.1243 -0.2803
10059TIP3    H151592   1.730   5.206   3.596  1.1133 -1.9881 -0.9605
10059TIP3    H251593   1.655   5.304   3.509 -0.1893 -1.0992  1.1365
10060TIP3   OH251594   6.182   1.476  14.369 -0.9710  0.5633  0.0961
10060TIP3    H151595   6.159   1.562  14.403 -0.2901  0.9353 -0.3785
10060TIP3    H251596   6.119   1.460  14.298 -1.4657  0.4130  0.5660
10061TIP3   OH251597   0.686   2.526  13.327 -0.3792  0.0747  0.5024
10061TIP3    H151598   0.699   2.621  13.331  0.1715  0.0831 -1.3389
10061TIP3    H251599   0.738   2.498  13.252 -1.2220 -1.5805  0.5327
10062TIP3   OH251600   5.837   2.497  13.628 -0.1667 -0.3116 -0.3658
10062TIP3    H151601   5.899   2.557  13.585 -0.9041  1.6121  1.1949
10062TIP3    H251602   5.890   2.419  13.648  0.9757  0.0663 -1.8311
10063TIP3   OH251603   0.080   5.400   5.287  0.7352  0.3408  0.3397
10063TIP3    H151604   0.001   5.348   5.275  1.2766 -0.3566 -0.2506
10063TIP3    H251605   0.099   5.436   5.200  1.1594  0.3554  0.4348
10064TIP3   OH251606   4.270   4.905   0.578 -0.6730  0.0372 -0.1565
10064TIP3    H151607   4.227   4.838   0.631 -2.7613  1.7065  0.3359
10064TIP3    H251608   4.301   4.970   0.641  0.4209  0.0586 -0.7022
10065TIP3   OH251609   4.305   2.723  12.685  0.0527  0.4045  0.3305
10065TIP3    H151610   4.359   2.739  12.608 -1.4900 -2.7974 -1.4909
10065TIP3    H251611   4.219   2.758  12.663 -0.5723 -1.1073  0.3267
10066TIP3   OH251612   1.204   5.128   0.738  0.4512 -0.0756  0.5312
10066TIP3    H151613   1.279   5.071   0.752 -0.4191 -1.7478 -1.2837
10066TIP3    H251614   1.169   5.143   0.826  1.3025 -1.5315  1.1452
10067TIP3   OH251615   5.066   6.283  15.857 -0.3235  0.1806  0.0356
10067TIP3    H151616   5.071   6.355  15.794  0.6878 -1.1320 -1.4302
10067TIP3    H251617   5.041   6.207  15.804  0.5664 -0.9465  1.2203
10068TIP3   OH251618   5.592   0.941   4.220 -0.3869  0.1780  0.5254
10068TIP3    H151619   5.615   0.884   4.146 -0.1439  1.0780 -0.1085
10068TIP3    H251620   5.561   0.881   4.288  1.7650 -0.8956  0.6113
10069TIP3   OH251621   1.871   1.524   3.006  0.1798 -0.2662 -0.5882
10069TIP3    H151622   1.928   1.523   2.930  2.3279  0.1709  0.9870
10069TIP3    H251623   1.871   1.616   3.035  0.1765 -0.6069  0.5162
10070TIP3   OH251624   1.205   0.917  15.539  0.4482  0.1139 -0.0026
10070TIP3    H151625   1.171   0.999  15.504  0.4018 -0.5231 -1.4793
10070TIP3    H251626   1.127   0.864  15.555  0.3558  0.9238  2.4985
10071TIP3   OH251627   6.757   3.429  11.905 -0.3692 -0.5629 -0.0984
10071TIP3    H151628   6.750   3.342  11.945  0.3691 -0.2568  0.7233
10071TIP3    H251629   6.667   3.456  11.890 -0.6285 -1.0779  0.5014
10072TIP3   OH251630   1.146   2.501   1.375 -0.2928 -0.2195 -0.1110
10072TIP3    H151631   1.066   2.522   1.326 -0.1363  1.1663  0.2047
10072TIP3    H251632   1.114   2.468   1.459 -0.5392 -0.7566 -0.4107
10073TIP3   OH251633   3.929   5.865  14.295  0.1733  0.5700  0.3057
10073TIP3    H151634   3.925   5.949  14.340  0.1248  0.7821 -0.1031
10073TIP3    H251635   3.837   5.843  14.277  0.0241 -0.5021  2.1544
10074TIP3   OH251636   5.961   1.496  13.288 -0.2243 -0.1979 -0.5813
10074TIP3    H151637   5.984   1.588  13.281 -1.7662  0.2355 -0.1387
10074TIP3    H251638   6.042   1.453  13.316  0.5200  1.0041 -0.8693
10075TIP3   OH251639   5.420   4.579   5.300  0.1535  0.7652 -0.1470
10075TIP3    H151640   5.430   4.616   5.213  0.4208 -0.1036 -0.4938
10075TIP3    H251641   5.473   4.634   5.356  1.8450 -0.0326 -0.9274
10076TIP3   OH251642   1.775   4.168  11.436  0.1066  0.1327  0.3053
10076TIP3    H151643   1.865   4.149  11.465  0.3754  1.7140  0.5841
10076TIP3    H251644   1.783   4.186  11.342 -0.2205 -1.5583 -0.0589
10077TIP3   OH251645   2.963   6.361   5.171 -0.1495  0.2863  0.4863
10077TIP3    H151646   2.875   6.397   5.185 -0.2046  0.1431  0.5045
10077TIP3    H251647   2.964   6.281   5.224 -0.9700 -1.2496 -1.7359
10078TIP3   OH251648   0.045   5.240   2.329  0.1575  0.1128 -0.1263
10078TIP3    H151649  -0.018   5.307   2.355 -0.2190 -0.1721 -0.2954
10078TIP3    H251650   0.082   5.272   2.247  1.3417  1.0093  0.7397
10079TIP3   OH251651   0.333   1.684   3.499  0.2208 -0.4252  0.6768
10079TIP3    H151652   0.394   1.719   3.434  1.0198  1.5962  2.4475
10079TIP3    H251653   0.351   1.589   3.500  1.5569 -0.2109 -0.6270
10080TIP3   OH251654   1.840   1.605  11.092  0.8031 -0.2606  0.0610
10080TIP3    H151655   1.908   1.580  11.029 -1.3317  1.2665 -2.9550
10080TIP3    H251656   1.797   1.522  11.115  1.1191 -0.7413 -1.0466
10081TIP3   OH251657   5.332   2.670  15.143  0.4077 -0.4740 -0.1448
10081TIP3    H151658   5.302   2.591  15.098  1.3171 -0.7988 -0.1850
10081TIP3    H251659   5.254   2.724  15.151  0.0306 -0.8584 -1.1940
10082TIP3   OH251660   6.396   5.719   2.579  0.7346  0.3235 -0.3053
10082TIP3    H151661   6.467   5.783   2.575  1.6378 -0.5820  1.2503
10082TIP3    H251662   6.376   5.711   2.672 -2.3871  1.6113 -0.7920
10083TIP3   OH251663   3.098   0.148   4.492  0.5399 -0.5202 -0.1391
10083TIP3    H151664   3.044   0.070   4.508 -0.7196  0.4433  0.3718
10083TIP3    H251665   3.147   0.160   4.573 -0.1521 -0.1008  0.2252
10084TIP3   OH251666   0.922   3.781  15.970 -0.0031  0.1692  0.1787
10084TIP3    H151667   0.907   3.692  15.938  1.2518 -0.5868  1.6032
10084TIP3    H251668   0.985   3.818  15.908  0.0810 -0.2127  0.0319
10085TIP3   OH251669   5.274   3.713  13.964 -0.8393  0.5098  0.5246
10085TIP3    H151670   5.265   3.741  14.055 -0.4285  0.4083  0.5969
10085TIP3    H251671   5.355   3.661  13.962 -0.5882  0.9183  0.0038
10086TIP3   OH251672   0.913   1.667  10.843  0.3519  0.2853 -0.6285
10086TIP3    H151673   0.980   1.611  10.881 -0.8141 -0.8850 -0.2535
10086TIP3    H251674   0.902   1.634  10.753 -1.9333 -1.6169  0.2893
10087TIP3   OH251675   1.844   5.637   0.950  0.1554  0.0658 -0.4983
10087TIP3    H151676   1.915   5.575   0.933  1.5725  1.7728 -1.0393
10087TIP3    H251677   1.764   5.586   0.942  1.3225 -1.8590 -0.0760
10088TIP3   OH251678   1.526   1.834   3.121 -0.2392  0.1056 -0.0143
10088TIP3    H151679   1.617   1.814   3.099  0.1606  2.0185 -0.2025
10088TIP3    H251680   1.475   1.785   3.057  0.7039  0.3096 -0.9398
10089TIP3   OH251681   1.856   6.684  12.618  0.7858 -0.0842 -0.3404
10089TIP3    H151682   1.870   6.715  12.707 -0.6285  0.8756 -0.4468
10089TIP3    H251683   1.935   6.633  12.598  0.7788 -0.9572  1.7144
10090TIP3   OH251684   6.251   5.025  13.930  0.6347 -0.2479  0.2288
10090TIP3    H151685   6.200   5.059  14.004 -0.1829  0.4565 -0.6491
10090TIP3    H251686   6.334   5.074  13.934  0.8481 -0.6764  1.0646
10091TIP3   OH251687   4.138   4.898   5.310 -0.3985  0.1025  0.1054
10091TIP3    H151688   4.079   4.822   5.318 -2.2683  1.5741  0.6104
10091TIP3    H251689   4.158   4.922   5.400  2.7693 -1.7002 -0.0540
10092TIP3   OH251690   5.863   1.888   4.698  0.0551  0.4393  0.0065
10092TIP3    H151691   5.938   1.904   4.640  0.3339  1.1772  0.5573
10092TIP3    H251692   5.888   1.931   4.781 -1.1963  1.1523  0.0223
10093TIP3   OH251693   5.568   1.769  14.538 -0.1428  0.3200  0.2363
10093TIP3    H151694   5.660   1.745  14.549 -0.2700 -0.6809 -0.8034
10093TIP3    H251695   5.536   1.782  14.627  1.1125  1.1189  0.5877
10094TIP3   OH251696   3.212   5.313  14.615  0.1999 -0.0882  0.5168
10094TIP3    H151697   3.295   5.361  14.605  0.1027  0.1314  0.7595
10094TIP3    H251698   3.231   5.225  14.583  0.3715  0.1221  0.0440
10095TIP3   OH251699   1.659   4.223  11.170  0.5755  0.2020  0.2416
10095TIP3    H151700   1.606   4.243  11.093  0.2944  2.3474  0.9529
10095TIP3    H251701   1.596   4.213  11.241  0.8592 -1.3917  0.2693
10096TIP3   OH251702   6.775   2.767   6.308 -0.1282 -0.3148 -0.4149
10096TIP3    H151703   6.829   2.775   6.229 -0.2373  2.4742 -0.2246
10096TIP3    H251704   6.771   2.855   6.344 -2.2799 -1.0729  1.2823
10097TIP3   OH251705   2.238   0.261  11.891  0.2045 -0.0264  0.2316
10097TIP3    H151706   2.268   0.250  11.982  0.4453 -1.6182 -0.0241
10097TIP3    H251707   2.316   0.290  11.844  0.1569  0.4993  0.4754
10098TIP3   OH251708   0.723   0.097  14.110  0.4997 -0.2664  0.5329
10098TIP3    H151709   0.781   0.113  14.036 -1.8054  1.6291 -0.9329
10098TIP3    H251710   0.745   0.166  14.174  0.3887 -0.0203  0.3053
10099TIP3   OH251711   0.412   3.567  16.300  0.0709 -0.1856  0.2704
10099TIP3    H151712   0.447   3.655  16.316 -0.0563 -0.1928  0.5710
10099TIP3    H251713   0.407   3.526  16.386  2.5814 -1.4071 -0.1291
10100TIP3   OH251714   6.157   2.215  12.497  0.2427 -0.1624  0.1608
10100TIP3    H151715   6.195   2.303  12.500  0.7792 -0.4109  0.9038
10100TIP3    H251716   6.155   2.187  12.589 -1.3552 -0.3227  0.0907
10101TIP3   OH251717   2.168   6.294   4.127 -0.1478  0.0468  0.1198
10101TIP3    H151718   2.147   6.340   4.208 -1.9587 -0.3990 -0.0904
10101TIP3    H251719   2.131   6.206   4.138  0.4715 -0.3426 -0.7848
10102TIP3   OH251720   1.574   5.026   4.916  0.3057  0.0303 -0.0958
10102TIP3    H151721   1.567   5.008   4.822  0.0384 -1.3460  0.1787
10102TIP3    H251722   1.665   5.005   4.938  0.6806  1.4059 -0.2441
10103TIP3   OH251723   4.529   5.543  16.531 -0.1971 -0.4976 -0.2985
10103TIP3    H151724   4.580   5.623  16.534 -0.3271 -0.4376  0.4378
10103TIP3    H251725   4.449   5.567  16.485 -0.5384 -0.0289  0.5349
10104TIP3   OH251726   4.733   1.421   2.800 -0.3380 -0.1371  0.3451
10104TIP3    H151727   4.718   1.507   2.839 -1.5284 -0.2496  0.1497
10104TIP3    H251728   4.669   1.364   2.843  1.0453 -1.1266  1.1330
10105TIP3   OH251729   5.139   5.394   1.442  0.1235  0.3086 -0.1613
10105TIP3    H151730   5.134   5.300   1.426  1.4865  0.1569  0.2112
10105TIP3    H251731   5.055   5.428   1.414 -0.0679 -0.9096 -1.0835
10106TIP3   OH251732   2.835   4.014  13.796  0.3186  0.1030 -0.4931
10106TIP3    H151733   2.749   3.976  13.815  0.5046  0.1910  0.5487
10106TIP3    H251734   2.891   3.938  13.779  0.5676 -0.0869  1.0837
10107TIP3   OH251735   2.876   6.786  16.467 -0.5459  0.4540 -0.8431
10107TIP3    H151736   2.842   6.725  16.401  1.3611 -0.4403 -1.0538
10107TIP3    H251737   2.819   6.863  16.460 -1.7792 -0.5236 -1.9544
10108TIP3   OH251738   6.513   5.468  14.795  0.2393  0.4164  0.4624
10108TIP3    H151739   6.598   5.511  14.800 -0.0358  1.1106 -0.8264
10108TIP3    H251740   6.484   5.463  14.886  1.1372  1.2143  0.8015
10109TIP3   OH251741   0.487   2.529   5.651 -0.7159  0.7766 -0.0726
10109TIP3    H151742   0.446   2.507   5.734 -0.6741  0.5891 -0.1021
10109TIP3    H251743   0.437   2.480   5.585  0.4373 -0.5666  0.0279
10110TIP3   OH251744   3.772   2.426  15.645 -0.2446 -0.5058  0.1032
10110TIP3    H151745   3.707   2.407  15.578 -0.5448 -0.0253  0.2588
10110TIP3    H251746   3.778   2.345  15.696 -1.3449 -0.2558  0.6212
10111TIP3   OH251747   6.272   5.917  13.607  0.0201  0.4138 -0.6318
10111TIP3    H151748   6.247   5.939  13.697  1.2893 -1.2406  0.1538
10111TIP3    H251749   6.248   5.994  13.556  0.2146  1.7840  1.2896
10112TIP3   OH251750   4.227   2.639  13.577  0.5403 -0.1027  0.4049
10112TIP3    H151751   4.260   2.620  13.489  1.6683 -2.6482  1.3220
10112TIP3    H251752   4.145   2.590  13.583  0.9971 -0.7884  1.1210
10113TIP3   OH251753   1.681   3.443  16.972  0.6175 -0.3979  0.3402
10113TIP3    H151754   1.749   3.430  16.906  0.1049  1.6407 -0.6422
10113TIP3    H251755   1.723   3.498  17.039 -0.0305  0.8584 -0.2663
10114TIP3   OH251756   0.525   1.409   1.404  0.2497 -0.1512  0.5800
10114TIP3    H151757   0.537   1.327   1.450 -1.9487 -1.3592 -0.9085
10114TIP3    H251758   0.549   1.390   1.313  0.4896  1.0754  0.3661
10115TIP3   OH251759   2.763   1.966  12.503  0.2996 -0.2027  0.2249
10115TIP3    H151760   2.748   2.061  12.500  1.8216  0.0225 -1.0987
10115TIP3    H251761   2.754   1.943  12.595  0.6977  1.3711  0.6764
10116TIP3   OH251762   0.605   1.338   0.494 -0.0586 -0.2072  0.1241
10116TIP3    H151763   0.620   1.263   0.436  0.1230 -0.6024  0.6839
10116TIP3    H251764   0.555   1.400   0.440  1.9943  0.3582 -1.1756
10117TIP3   OH251765   3.791   6.560   6.186  0.0830 -0.0265  0.0698
10117TIP3    H151766   3.840   6.535   6.265 -0.8890 -0.6708  0.4865
10117TIP3    H251767   3.699   6.554   6.213 -0.2308  1.2446 -0.6724
10118TIP3   OH251768   5.278   3.400   4.328 -0.5633  0.4260  0.6110
10118TIP3    H151769   5.253   3.339   4.259 -2.6336  0.6269  1.1513
10118TIP3    H251770   5.374   3.402   4.325 -0.6161  0.2366 -2.0726
10119TIP3   OH251771   2.814   3.466  15.844  0.9619  0.5327 -0.2534
10119TIP3    H151772   2.782   3.436  15.929 -1.5084  0.7533 -1.0610
10119TIP3    H251773   2.809   3.561  15.849 -2.8863  0.5228 -1.9071
10120TIP3   OH251774   5.859   0.344  15.610  0.7685 -0.2139  0.0158
10120TIP3    H151775   5.777   0.364  15.565  0.5411 -0.3919  0.3432
10120TIP3    H251776   5.927   0.354  15.544  0.5583  0.6809 -0.0595
10121TIP3   OH251777   4.704   4.822   6.339  0.0072  0.0376  0.2828
10121TIP3    H151778   4.788   4.805   6.296 -0.7019  2.3679 -2.1465
10121TIP3    H251779   4.688   4.915   6.325 -3.9179 -0.7447 -1.0517
10122TIP3   OH251780   0.241   4.416  17.155 -0.5598  0.1772 -0.0737
10122TIP3    H151781   0.263   4.350  17.089 -0.5139  0.9493 -0.8433
10122TIP3    H251782   0.321   4.429  17.205 -0.6213 -0.4835  0.1996
10123TIP3   OH251783   3.121   4.896  16.861 -0.7141 -0.0815  0.2661
10123TIP3    H151784   3.192   4.837  16.835 -0.4726 -0.5041  1.8103
10123TIP3    H251785   3.163   4.980  16.877 -0.6578 -0.1618  0.5456
10124TIP3   OH251786   3.845   6.475  15.210 -0.0795 -0.1219 -0.4770
10124TIP3    H151787   3.828   6.455  15.118  0.7360 -0.3899 -0.5729
10124TIP3    H251788   3.807   6.402  15.259 -0.9067  0.2399 -0.5720
10125TIP3   OH251789   3.685   0.572   2.570 -0.2369  0.1855 -0.3148
10125TIP3    H151790   3.613   0.555   2.511  0.8473 -0.3108 -1.5219
10125TIP3    H251791   3.737   0.639   2.525  0.4301  0.0264  0.2138
10126TIP3   OH251792   0.037   2.002   5.683  0.3842 -0.2704 -0.2587
10126TIP3    H151793   0.123   1.974   5.714  0.6800  0.4109 -0.4410
10126TIP3    H251794   0.022   2.086   5.726 -0.8246 -1.0487  0.8702
10127TIP3   OH251795   6.105   1.550  16.614  0.2254  0.1763 -0.0003
10127TIP3    H151796   6.047   1.476  16.594  0.1021  0.0427  0.8222
10127TIP3    H251797   6.103   1.556  16.710  0.0304  1.4179 -0.0787
10128TIP3   OH251798   4.801   3.529  13.037 -0.1948 -0.3652  0.2553
10128TIP3    H151799   4.860   3.556  12.967 -0.7769 -1.6105 -0.7367
10128TIP3    H251800   4.718   3.572  13.016 -0.6276 -1.4779 -0.3441
10129TIP3   OH251801   0.912   2.882  16.727  0.1620  0.0326  0.4841
10129TIP3    H151802   0.928   2.973  16.752  3.4963 -0.6894  1.2957
10129TIP3    H251803   0.825   2.862  16.761 -0.0417  2.5228  1.4873
10130TIP3   OH251804   1.671   2.417  16.218  0.0278  0.0706  0.0716
10130TIP3    H151805   1.700   2.484  16.280 -1.5020  1.1241 -0.3282
10130TIP3    H251806   1.749   2.365  16.200  1.2407  1.7600  0.3783
10131TIP3   OH251807   3.348   6.429  16.906 -0.2133 -0.3876  0.0132
10131TIP3    H151808   3.304   6.400  16.985 -0.6629  0.8480  0.2171
10131TIP3    H251809   3.364   6.348  16.857  1.6086 -1.3589  2.1277
10132TIP3   OH251810   4.492   0.052   4.402 -0.3490 -0.5943  0.4555
10132TIP3    H151811   4.535  -0.033   4.409 -0.9446 -1.0930 -1.4998
10132TIP3    H251812   4.532   0.093   4.324 -0.5605  0.6235  0.9697
10133TIP3   OH251813   3.387   6.174   2.569 -0.4872  0.0447 -0.0524
10133TIP3    H151814   3.418   6.088   2.598 -1.6349 -0.5209 -0.4849
10133TIP3    H251815   3.296   6.179   2.600 -0.1178  1.5129  0.8448
10134TIP3   OH251816   4.248   4.078  10.907  0.1246 -0.2585 -0.0564
10134TIP3    H151817   4.230   4.059  10.815  1.3969  0.6407 -0.5058
10134TIP3    H251818   4.243   4.173  10.913 -0.5475 -0.3553  0.9442
10135TIP3   OH251819   1.869   0.013  13.399  0.1182  0.4350  0.0632
10135TIP3    H151820   1.957   0.019  13.437  0.4183 -0.1268 -0.5231
10135TIP3    H251821   1.825   0.092  13.428  0.3558  0.0435  1.5371
10136TIP3   OH251822   4.665   5.198  13.472  0.2598  0.0125 -0.6594
10136TIP3    H151823   4.688   5.178  13.563  0.4422 -1.0035 -0.9235
10136TIP3    H251824   4.574   5.228  13.477  0.3363  0.1705 -0.1190
10137TIP3   OH251825   0.160   5.061   0.971 -0.5291  0.0592 -0.4882
10137TIP3    H151826   0.208   5.039   1.050 -1.1945  1.1299  0.2286
10137TIP3    H251827   0.074   5.019   0.983 -0.6084  0.1674 -0.6722
10138TIP3   OH251828   5.116   3.204  12.805 -0.5258 -0.0498  0.2260
10138TIP3    H151829   5.151   3.271  12.747  0.5109 -0.5485  0.2667
10138TIP3    H251830   5.136   3.234  12.893  1.1940 -1.0819  0.2024
10139TIP3   OH251831   6.654   2.613  16.725 -0.0217  0.3859 -0.6705
10139TIP3    H151832   6.706   2.624  16.805 -0.5888  0.3161 -0.2897
10139TIP3    H251833   6.710   2.560  16.668 -0.3910 -1.1959  0.4126
10140TIP3   OH251834   3.120   4.181  12.703  0.1151  0.0069  0.2640
10140TIP3    H151835   3.117   4.086  12.698  1.0994 -0.0455  0.5329
10140TIP3    H251836   3.078   4.202  12.786 -0.9201 -0.1385 -0.2249
10141TIP3   OH251837   1.836   2.303   5.348  0.1169 -0.1378  0.9361
10141TIP3    H151838   1.840   2.246   5.270  0.7902 -0.0653  0.9107
10141TIP3    H251839   1.928   2.324   5.366 -0.0311 -0.2721  1.8398
10142TIP3   OH251840   1.708   5.309  14.158  0.2258 -0.0016  0.8159
10142TIP3    H151841   1.711   5.404  14.152  1.1275 -0.0887 -0.2554
10142TIP3    H251842   1.694   5.279  14.068 -0.3185 -0.8720  1.1798
10143TIP3   OH251843   0.292   4.068  16.800  0.3566  0.4319  0.0359
10143TIP3    H151844   0.351   4.065  16.725  0.8110 -0.2427  0.4232
10143TIP3    H251845   0.211   4.106  16.765  0.3322 -0.5274 -0.9605
10144TIP3   OH251846   2.433   2.249  11.658 -0.0393 -0.2093  0.5267
10144TIP3    H151847   2.354   2.198  11.674 -0.7978  0.7327 -0.1537
10144TIP3    H251848   2.438   2.257  11.563 -0.5340  1.8789  0.6455
10145TIP3   OH251849   2.095   2.418  16.807 -0.6012  0.1835  0.4071
10145TIP3    H151850   2.174   2.449  16.763 -0.0091  1.0998  2.0543
10145TIP3    H251851   2.115   2.427  16.901 -1.3038 -2.9842  0.9221
10146TIP3   OH251852   1.949   5.203   0.672  0.3774  0.2341  1.0445
10146TIP3    H151853   1.944   5.297   0.652  1.2229 -0.0145 -0.3741
10146TIP3    H251854   1.867   5.167   0.636  0.2886  0.3479  1.1315
10147TIP3   OH251855   0.944   2.426  11.425 -0.0353  0.1026  0.1146
10147TIP3    H151856   1.019   2.477  11.456  0.0804 -1.3229  2.2449
10147TIP3    H251857   0.954   2.425  11.329  2.5902  0.0456  0.3645
10148TIP3   OH251858   0.748   3.907   4.197  0.3746 -0.3469  0.3826
10148TIP3    H151859   0.822   3.957   4.164  0.0522 -0.2847 -0.2500
10148TIP3    H251860   0.700   3.880   4.119 -0.7427  0.3335  0.8175
10149TIP3   OH251861   3.985   5.191   3.433 -0.1003 -0.7111 -0.1996
10149TIP3    H151862   3.891   5.181   3.448  0.0276 -1.1242  0.3105
10149TIP3    H251863   4.026   5.161   3.513  0.3836  1.8930  0.5718
10150TIP3   OH251864   2.844   6.381  16.011 -0.1418  0.4539  0.2728
10150TIP3    H151865   2.765   6.327  16.015 -1.5305  2.1020 -3.1868
10150TIP3    H251866   2.823   6.458  16.064  0.5645 -0.7539  2.3681
10151TIP3   OH251867   4.831   1.062   4.864 -0.9661  0.1695 -0.9212
10151TIP3    H151868   4.830   1.103   4.950 -1.3860  1.2200 -1.4111
10151TIP3    H251869   4.754   1.097   4.820 -2.0298 -2.1153 -0.9374
10152TIP3   OH251870   0.972   0.515  15.413 -0.7297 -0.1836 -0.3968
10152TIP3    H151871   0.880   0.537  15.430  0.0976  2.3428  1.0954
10152TIP3    H251872   0.991   0.444  15.475 -0.5833  2.0557  2.1921
10153TIP3   OH251873   1.050   1.027  13.898  0.6717 -0.1414  0.2791
10153TIP3    H151874   1.020   1.115  13.917  0.3368  0.0094 -0.8929
10153TIP3    H251875   0.971   0.973  13.901  0.9111 -0.4482  1.2302
10154TIP3   OH251876   4.156   5.725  15.314  0.7900  0.1831  0.8218
10154TIP3    H151877   4.196   5.753  15.397 -0.0663 -1.1975  1.7144
10154TIP3    H251878   4.065   5.706  15.337  0.6195 -0.4571 -0.3861
10155TIP3   OH251879   6.420   1.067   1.062 -0.0065 -0.1581 -0.0701
10155TIP3    H151880   6.458   1.125   0.996  1.8063 -3.9149 -2.5025
10155TIP3    H251881   6.338   1.036   1.023  0.1661 -0.9694  0.1860
10156TIP3   OH251882   0.082   5.903  12.999  0.5912  0.0550 -0.1033
10156TIP3    H151883   0.052   5.960  12.928  0.0657 -0.3637 -0.2222
10156TIP3    H251884   0.177   5.910  12.997  0.6117 -0.4458 -1.2545
10157TIP3   OH251885   3.840   0.049   3.715 -0.1549  0.1081 -0.2074
10157TIP3    H151886   3.881   0.132   3.738 -0.0395  1.2832 -4.2250
10157TIP3    H251887   3.762   0.074   3.665  0.0200 -2.1717 -1.6887
10158TIP3   OH251888   0.300   6.655  14.414 -0.2749  0.4786  0.3657
10158TIP3    H151889   0.288   6.582  14.354 -2.0559  0.1437  1.1037
10158TIP3    H251890   0.395   6.669  14.416  0.0105 -1.1894 -0.5011
10159TIP3   OH251891   5.378   5.911  11.646 -0.1878  0.6455  0.3836
10159TIP3    H151892   5.298   5.865  11.673  0.7870 -0.8108  0.8571
10159TIP3    H251893   5.380   5.901  11.551 -1.0303  1.4609  0.2752
10160TIP3   OH251894   1.684   0.526   4.508  0.3244 -0.4684  0.1695
10160TIP3    H151895   1.773   0.502   4.484 -0.0366 -0.0119 -1.7928
10160TIP3    H251896   1.636   0.443   4.507  0.3528 -0.4866 -0.6376
10161TIP3   OH251897   2.946   4.864  11.392  0.1008  0.3242 -0.7678
10161TIP3    H151898   2.971   4.772  11.379 -0.9943  0.0016 -0.6659
10161TIP3    H251899   2.900   4.888  11.311 -1.5436  0.1059  0.0840
10162TIP3   OH251900   1.887   2.110  14.845  0.4048 -0.0568 -0.8262
10162TIP3    H151901   1.863   2.183  14.902 -1.6228 -0.5540 -0.9981
10162TIP3    H251902   1.804   2.084  14.804  1.0580 -2.6103 -0.5793
10163TIP3   OH251903   1.803   1.058   3.523 -0.1992  0.6028 -0.1162
10163TIP3    H151904   1.730   1.093   3.575 -0.3359  2.0405 -1.2471
10163TIP3    H251905   1.761   1.008   3.454 -0.1737  2.2336 -1.3414
10164TIP3   OH251906   3.452   6.288   0.280  0.6902 -0.2077 -0.5694
10164TIP3    H151907   3.361   6.319   0.274  0.8821  0.8085  1.4148
10164TIP3    H251908   3.497   6.334   0.209  0.4269  2.1657  0.7502
10165TIP3   OH251909   4.026   3.462   4.257  0.3305  0.4194 -0.2680
10165TIP3    H151910   3.942   3.440   4.215  0.1044 -0.8647  0.8049
10165TIP3    H251911   4.086   3.478   4.185  0.1678 -2.5620 -1.1237
10166TIP3   OH251912   1.726   5.373  16.550  0.0971 -0.3348  0.1602
10166TIP3    H151913   1.700   5.318  16.475 -0.6058  0.1811  0.0186
10166TIP3    H251914   1.801   5.327  16.588 -0.5970 -1.5051  0.1539
10167TIP3   OH251915   4.421   4.549   3.382 -0.6181  0.6285 -0.0150
10167TIP3    H151916   4.393   4.522   3.469 -1.3228 -2.2784 -1.0953
10167TIP3    H251917   4.343   4.590   3.344 -0.6030  0.9995  0.3476
10168TIP3   OH251918   3.367   3.479   5.752 -0.4621  0.6044  0.2487
10168TIP3    H151919   3.462   3.469   5.757 -0.0838  2.3757 -2.5697
10168TIP3    H251920   3.336   3.394   5.721  0.5740  1.1227 -2.3035
10169TIP3   OH251921   1.207   1.629   2.730  0.0201 -0.4473 -0.1604
10169TIP3    H151922   1.169   1.542   2.739  0.9353 -0.6954  1.5421
10169TIP3    H251923   1.191   1.653   2.639 -0.4187 -2.3098 -0.5909
10170TIP3   OH251924   4.438   1.114   6.364  0.0566  0.3420  0.2261
10170TIP3    H151925   4.508   1.093   6.302 -2.3451  0.8872 -2.8264
10170TIP3    H251926   4.412   1.030   6.402  1.0018 -0.1115 -0.1185
10171TIP3   OH251927   5.607   4.606  14.755  0.2425 -0.6900  0.0989
10171TIP3    H151928   5.574   4.684  14.711 -1.4956 -0.0831  2.3792
10171TIP3    H251929   5.700   4.624  14.770 -0.0017  0.6808  0.0079
10172TIP3   OH251930   2.869   5.728  15.681  0.4148 -0.1647 -0.0648
10172TIP3    H151931   2.775   5.745  15.689  0.5101 -0.3897  1.8072
10172TIP3    H251932   2.876   5.669  15.606 -1.0388 -0.8936  0.3450
10173TIP3   OH251933   5.658   3.623   6.408  0.1426  0.5567 -0.8519
10173TIP3    H151934   5.681   3.703   6.361  1.1146  0.4577 -0.5393
10173TIP3    H251935   5.739   3.594   6.448 -0.5153  0.1964  0.2410
10174TIP3   OH251936   5.763   4.023   3.204 -0.0441  0.1495  0.1372
10174TIP3    H151937   5.695   3.958   3.186 -0.1788  0.8348 -2.0127
10174TIP3    H251938   5.729   4.073   3.279 -1.0886 -0.6364  0.2068
10175TIP3   OH251939   2.895   1.360   2.743  0.0567  0.0730  0.3334
10175TIP3    H151940   2.910   1.266   2.739  1.9756  0.2439  2.7243
10175TIP3    H251941   2.845   1.373   2.824 -1.5032  0.9817 -0.7430
10176TIP3   OH251942   2.873   0.805  12.415  0.0836  0.0124  0.3432
10176TIP3    H151943   2.925   0.791  12.494 -0.8130  3.3721  1.6069
10176TIP3    H251944   2.794   0.849  12.446 -2.3590 -2.6052 -1.8880
10177TIP3   OH251945   6.030   2.177   4.881 -0.2743 -0.1552  0.2280
10177TIP3    H151946   5.984   2.160   4.963  0.4837 -0.5573  0.5775
10177TIP3    H251947   6.092   2.105   4.873  1.3571  1.1717  0.5545
10178TIP3   OH251948   0.729   0.165   3.113 -0.0760  0.0052 -0.3240
10178TIP3    H151949   0.741   0.089   3.056  1.5271 -0.8044  1.0483
10178TIP3    H251950   0.741   0.241   3.055  1.3329 -0.8033 -1.1282
10179TIP3   OH251951   3.079   2.983  17.162 -0.2946 -0.2378  0.4748
10179TIP3    H151952   3.066   3.075  17.138  1.6421 -0.0239  0.1699
10179TIP3    H251953   3.165   2.960  17.126  0.1031 -1.5988  2.1842
10180TIP3   OH251954   1.010   0.663   4.968  0.1947  0.1750  0.2459
10180TIP3    H151955   0.975   0.729   5.028  0.0895 -0.3048  0.7068
10180TIP3    H251956   0.960   0.676   4.887 -1.1436 -0.5940  0.9334
10181TIP3   OH251957   2.825   0.969  11.016 -0.1722 -0.2634  0.0970
10181TIP3    H151958   2.762   0.974  11.088  0.0118 -0.0561  0.2422
10181TIP3    H251959   2.911   0.979  11.058 -0.0155 -0.9090 -0.0511
10182TIP3   OH251960   1.363   5.354  13.500  0.1015 -0.9391 -0.1952
10182TIP3    H151961   1.336   5.306  13.578  0.2908 -0.8386 -0.0657
10182TIP3    H251962   1.429   5.298  13.459 -0.3620 -1.2197 -0.5504
10183TIP3   OH251963   4.070   6.703   0.564  0.0008 -0.8299  0.1825
10183TIP3    H151964   3.992   6.655   0.590 -0.5727 -0.1230 -0.1851
10183TIP3    H251965   4.036   6.786   0.530  0.8241 -1.0401 -1.1986
10184TIP3   OH251966   1.057   5.552  15.594 -0.8320 -0.2491  0.6945
10184TIP3    H151967   1.116   5.519  15.526 -0.2163  2.4285 -0.1299
10184TIP3    H251968   0.973   5.511  15.575 -0.2240 -0.9120 -0.6247
10185TIP3   OH251969   2.613   5.408  13.529  0.4100 -0.4526  0.2870
10185TIP3    H151970   2.560   5.352  13.586 -1.0445  0.2157 -0.3613
10185TIP3    H251971   2.548   5.463  13.484  1.6990  0.6590 -0.2393
10186TIP3   OH251972   4.331   3.034   2.572 -0.0375 -0.7327 -0.7074
10186TIP3    H151973   4.380   2.980   2.634  2.3144 -0.2660 -2.1288
10186TIP3    H251974   4.331   3.122   2.611 -0.9893 -1.0246 -0.0259
10187TIP3   OH251975   2.856   0.599   0.102  0.4514  0.3322 -0.0661
10187TIP3    H151976   2.898   0.513   0.109  1.6983  0.8891 -0.5386
10187TIP3    H251977   2.831   0.606   0.010 -1.5774 -0.3955  0.4090
10188TIP3   OH251978   5.762   0.776  11.153  0.5431  0.1548  0.3321
10188TIP3    H151979   5.741   0.689  11.119  0.5162 -0.6931  2.4221
10188TIP3    H251980   5.683   0.827  11.137  0.3380 -0.3732 -0.3731
10189TIP3   OH251981   4.627   3.233   0.376 -0.4198 -0.0153 -0.1165
10189TIP3    H151982   4.680   3.198   0.304 -1.5595  0.8441 -1.3878
10189TIP3    H251983   4.537   3.220   0.348 -0.9324 -1.7314  2.1611
10190TIP3   OH251984   2.504   4.881   0.583  0.5483 -0.3481  0.4969
10190TIP3    H151985   2.560   4.892   0.505 -2.6374 -2.0355 -2.1368
10190TIP3    H251986   2.512   4.788   0.605 -1.7610 -0.7636 -0.3580
10191TIP3   OH251987   2.569   1.087  13.620  0.1988 -0.0575 -0.5100
10191TIP3    H151988   2.490   1.134  13.646  0.1607  0.4296 -1.4647
10191TIP3    H251989   2.641   1.136  13.659  0.1045  0.2953 -0.7716
10192TIP3   OH251990   4.395   6.236   2.523  0.0392  0.2498  0.2227
10192TIP3    H151991   4.467   6.283   2.564  0.7039  0.8815 -1.6444
10192TIP3    H251992   4.425   6.145   2.517  0.7337  0.5344 -0.6527
10193TIP3   OH251993   0.250   3.712   0.642 -0.0493  0.1056 -0.4346
10193TIP3    H151994   0.324   3.677   0.592  0.6510  1.7232 -0.5702
10193TIP3    H251995   0.285   3.723   0.731  0.4096  2.3957 -0.8583
10194TIP3   OH251996   1.452   6.031   1.128 -0.6930  0.1485  0.0027
10194TIP3    H151997   1.490   6.118   1.118 -1.0113  0.1781 -1.0121
10194TIP3    H251998   1.493   5.996   1.208  1.6040  0.1193 -1.1373
10195TIP3   OH251999   1.044   5.807  10.861  0.0343  0.0050  0.4155
10195TIP3    H152000   1.077   5.767  10.781  0.0750  0.6727  0.0954
10195TIP3    H252001   0.953   5.778  10.866  0.4420 -1.2183  0.9006
10196TIP3   OH252002   3.239   2.624  17.238  0.1041  0.0127  1.3455
10196TIP3    H152003   3.283   2.707  17.220  0.3472 -0.7796 -2.1426
10196TIP3    H252004   3.153   2.650  17.271  0.6557  1.6528  1.5377
10197TIP3   OH252005   2.440   3.050  14.745  0.3710  0.1868 -0.4619
10197TIP3    H152006   2.387   3.034  14.666 -1.8920  1.3456  0.7607
10197TIP3    H252007   2.529   3.058  14.712 -0.4470  0.0795 -2.8624
10198TIP3   OH252008   1.159   6.578   3.495  0.0050  0.5081 -0.5813
10198TIP3    H152009   1.107   6.534   3.427  0.1660  1.2320 -1.1757
10198TIP3    H252010   1.151   6.521   3.571 -0.3699 -0.1967 -1.1390
10199TIP3   OH252011   5.059   0.545  10.879 -0.1984  0.2175 -0.0681
10199TIP3    H152012   5.055   0.634  10.844 -1.8059  0.6435  1.1342
10199TIP3    H252013   5.055   0.489  10.802  0.4769  1.1867 -0.8183
10200TIP3   OH252014   6.511   4.149   3.212 -0.5629  0.4185  0.3807
10200TIP3    H152015   6.496   4.090   3.286 -2.0836  0.6443  0.2850
10200TIP3    H252016   6.479   4.234   3.242  1.7357  1.2560  0.5579
10201TIP3   OH252017   2.576   6.629   4.159 -0.3407  0.0120  0.4780
10201TIP3    H152018   2.645   6.573   4.124 -0.7039 -1.1785  1.6167
10201TIP3    H252019   2.566   6.699   4.095 -0.4379 -1.6633 -1.3823
10202TIP3   OH252020   4.516   5.424   1.663  0.3927 -0.0574 -0.2254
10202TIP3    H152021   4.459   5.358   1.622 -0.8475  0.4447  0.6486
10202TIP3    H252022   4.540   5.386   1.747 -1.1421  0.9714  0.7267
10203TIP3   OH252023   6.453   6.622  15.931 -0.7252  0.3785  0.1188
10203TIP3    H152024   6.503   6.560  15.985  0.8878 -0.2710 -2.0573
10203TIP3    H252025   6.515   6.693  15.913 -1.8102  1.4622  0.5752
10204TIP3   OH252026   1.181   1.982   2.262 -0.3506  0.0585 -0.3721
10204TIP3    H152027   1.260   2.019   2.223 -0.0326  0.9013  1.0198
10204TIP3    H252028   1.212   1.936   2.340 -1.1973  0.2060  0.0567
10205TIP3   OH252029   4.344   6.229   3.314  0.1508  0.4520  0.0863
10205TIP3    H152030   4.256   6.251   3.283 -0.5879 -1.8356  0.5163
10205TIP3    H252031   4.343   6.250   3.407 -0.3818 -0.8856  0.3829
10206TIP3   OH252032   4.765   1.141  16.142  0.0592  0.6342 -0.4044
10206TIP3    H152033   4.758   1.058  16.095  0.0933  0.9040 -0.8848
10206TIP3    H252034   4.678   1.180  16.135  0.3750  1.2007 -1.2193
10207TIP3   OH252035   4.973   2.899   1.456  0.0038  0.0237 -1.0239
10207TIP3    H152036   4.978   2.897   1.552  2.7893 -0.1192 -1.1231
10207TIP3    H252037   4.880   2.894   1.436 -0.4595 -3.4735  1.5937
10208TIP3   OH252038   1.378   4.260   1.030  0.3091 -0.4378  0.0669
10208TIP3    H152039   1.390   4.312   1.109  0.6350 -1.6408  0.8277
10208TIP3    H252040   1.392   4.321   0.958  0.2978  0.6036  0.9395
10209TIP3   OH252041   4.048   3.864   2.591  0.2930  0.5988 -0.1390
10209TIP3    H152042   4.077   3.778   2.623  0.5465  0.6668 -0.1843
10209TIP3    H252043   4.117   3.924   2.619  1.8866  0.2575 -3.1604
10210TIP3   OH252044   0.613   1.124   0.073  0.2840 -0.3066 -0.2059
10210TIP3    H152045   0.580   1.035   0.083 -1.1496  0.1512 -0.7779
10210TIP3    H252046   0.652   1.145   0.158  0.2870 -1.3298  0.0518
10211TIP3   OH252047   2.716   4.901   2.834 -0.8093 -0.4813  0.6617
10211TIP3    H152048   2.661   4.823   2.844 -1.0595 -0.2806  0.8673
10211TIP3    H252049   2.722   4.937   2.922 -1.0049 -0.0546  0.4968
10212TIP3   OH252050   1.946   6.762  14.771  0.0809  0.3228 -0.0677
10212TIP3    H152051   2.025   6.809  14.799  0.1781  1.0617 -1.5601
10212TIP3    H252052   1.972   6.714  14.693  0.0203 -2.3985  1.5062
10213TIP3   OH252053   5.553   0.172  16.571  0.5847 -0.0820 -0.0581
10213TIP3    H152054   5.502   0.230  16.515 -0.6863 -1.5879 -0.4667
10213TIP3    H252055   5.500   0.093  16.580  1.5646 -0.5666  1.8232
10214TIP3   OH252056   1.294   6.284   3.006 -0.8314 -0.1667 -0.0135
10214TIP3    H152057   1.244   6.219   3.056  1.8720 -1.3893  1.1849
10214TIP3    H252058   1.294   6.362   3.062  1.4894 -1.2703  1.5644
10215TIP3   OH252059   3.116   4.388  11.572 -0.0067 -0.0836 -0.0554
10215TIP3    H152060   3.110   4.437  11.654 -0.2627 -0.4100  0.1202
10215TIP3    H252061   3.176   4.316  11.592 -0.3883 -0.3963 -0.0391
10216TIP3   OH252062   3.233   4.504  11.123  0.2030 -0.0694  0.4994
10216TIP3    H152063   3.230   4.511  11.218  2.8860  0.5078  0.5890
10216TIP3    H252064   3.253   4.412  11.106  0.0113 -0.1109  0.4949
10217TIP3   OH252065   3.182   4.099   2.019 -0.5941  0.2298 -1.2416
10217TIP3    H152066   3.275   4.097   2.039 -0.9038 -2.8084  0.1628
10217TIP3    H252067   3.153   4.187   2.045  1.4972  0.5716 -0.0006
10218TIP3   OH252068   1.833   3.478  14.646 -0.7211  0.5425 -0.0679
10218TIP3    H152069   1.924   3.451  14.636 -0.8646  0.6915 -2.0343
10218TIP3    H252070   1.822   3.491  14.740  1.1912  0.2221  0.2269
10219TIP3   OH252071   3.525   6.663   3.768  0.1954  0.0721 -0.2535
10219TIP3    H152072   3.569   6.704   3.694 -0.0063 -1.3754 -1.2092
10219TIP3    H252073   3.530   6.569   3.750 -2.8017 -0.1648 -0.1455
10220TIP3   OH252074   1.654   2.909  13.866  0.1559 -0.5210 -0.1931
10220TIP3    H152075   1.624   2.836  13.813 -0.3686 -0.8453  0.5427
10220TIP3    H252076   1.736   2.937  13.825  0.4336 -1.6182 -0.3869
10221TIP3   OH252077   2.689   5.391   0.919 -0.3137  0.0209  0.3869
10221TIP3    H152078   2.740   5.386   1.000  1.1083 -0.0963 -0.4774
10221TIP3    H252079   2.742   5.447   0.861 -2.3266  1.8328  0.2513
10222TIP3   OH252080   4.755   4.768   5.290 -0.0681  0.2207  0.3660
10222TIP3    H152081   4.731   4.733   5.375 -2.0607  1.0930  0.1963
10222TIP3    H252082   4.693   4.728   5.229  0.5200  0.5786 -0.4800
10223TIP3   OH252083   0.319   2.143  10.904 -0.5289  0.4810 -0.2910
10223TIP3    H152084   0.353   2.184  10.983 -0.0986 -2.7485  1.2975
10223TIP3    H252085   0.225   2.140  10.917 -0.6599  1.7492 -0.8451
10224TIP3   OH252086   6.362   3.726  15.048  0.4307 -0.3577 -0.1879
10224TIP3    H152087   6.441   3.777  15.069  0.6614 -0.6790 -0.2858
10224TIP3    H252088   6.355   3.731  14.953  1.0907 -1.4589 -0.3057
10225TIP3   OH252089   0.445   2.458   1.093  0.4337  0.1005 -0.4234
10225TIP3    H152090   0.350   2.466   1.086  0.2922 -1.7324 -0.8314
10225TIP3    H252091   0.464   2.472   1.186 -0.7073 -3.6423  0.4556
10226TIP3   OH252092   0.952   4.858   5.938  0.0206  0.2897 -0.0882
10226TIP3    H152093   0.986   4.817   5.858 -0.4271  0.4378 -0.3529
10226TIP3    H252094   0.865   4.820   5.949 -0.0667  0.5513  0.1219
10227TIP3   OH252095   0.691   0.499  15.455  0.8993  0.0211 -0.6015
10227TIP3    H152096   0.647   0.575  15.494 -0.7547 -1.4777  0.4968
10227TIP3    H252097   0.715   0.444  15.529  2.6649 -0.2688 -1.3515
10228TIP3   OH252098   5.669   1.601   0.798 -0.4658 -0.1645  0.3353
10228TIP3    H152099   5.592   1.645   0.834 -0.3418 -0.2328  0.6882
10228TIP3    H252100   5.743   1.650   0.833 -0.3427 -0.2695  0.2233
10229TIP3   OH252101   4.784   0.570   4.671  0.2794  0.3346 -0.4779
10229TIP3    H152102   4.845   0.607   4.734 -1.0691  1.3017  0.2841
10229TIP3    H252103   4.787   0.629   4.596  0.0740  0.5346 -0.3287
10230TIP3   OH252104   6.601   5.080  13.209  0.0349  0.1903 -0.0762
10230TIP3    H152105   6.594   5.155  13.150  0.1500  1.0608  0.9920
10230TIP3    H252106   6.647   5.115  13.286  0.2458 -1.0232  0.3524
10231TIP3   OH252107   3.205   0.809   1.018  0.1626 -0.3317  0.5257
10231TIP3    H152108   3.236   0.778   1.103  0.1216 -0.1869  0.5933
10231TIP3    H252109   3.126   0.759   1.001  1.1653 -1.6773 -0.2695
10232TIP3   OH252110   4.420   3.985  11.700 -0.1231 -0.4368  0.1935
10232TIP3    H152111   4.360   3.988  11.626 -1.6113 -1.0785  1.3577
10232TIP3    H252112   4.476   3.910  11.683 -0.1151 -0.2716 -0.5262
10233TIP3   OH252113   3.317   1.290   3.762 -0.1755  0.3748 -0.0293
10233TIP3    H152114   3.388   1.345   3.730  0.5297 -0.4018  0.1771
10233TIP3    H252115   3.344   1.264   3.850  0.4254 -1.8911 -0.8532
10234TIP3   OH252116   2.138   2.352  11.272 -0.7262  0.5092 -1.1089
10234TIP3    H152117   2.122   2.368  11.365  0.4149  1.5097 -1.0754
10234TIP3    H252118   2.157   2.438  11.236 -0.1663 -0.0055 -2.0660
10235TIP3   OH252119   2.194   4.963  16.961 -0.2700 -0.4116  0.1635
10235TIP3    H152120   2.250   4.978  16.885  0.3490 -1.8882  0.3250
10235TIP3    H252121   2.109   4.939  16.923 -0.8622  1.8920 -0.0825
10236TIP3   OH252122   3.816   0.450   5.494 -0.1238  0.1692  0.4940
10236TIP3    H152123   3.891   0.394   5.512 -1.3092 -1.9435 -0.9437
10236TIP3    H252124   3.834   0.531   5.543  2.6841 -0.5788  0.7748
10237TIP3   OH252125   3.712   3.817  12.472 -0.0687  0.1816  0.0756
10237TIP3    H152126   3.684   3.858  12.390  0.9182  2.5270  0.8581
10237TIP3    H252127   3.651   3.851  12.537  0.2651 -0.2304  0.6012
10238TIP3   OH252128   4.904   0.173   1.614  0.0785  0.3627  0.2661
10238TIP3    H152129   4.836   0.238   1.600 -0.0213  0.8206  2.7013
10238TIP3    H252130   4.951   0.169   1.530  0.1867  3.6680  0.0975
10239TIP3   OH252131   0.283   3.691  14.226 -0.3233 -0.3064  0.3063
10239TIP3    H152132   0.343   3.686  14.152 -1.1090  0.5368 -0.3966
10239TIP3    H252133   0.196   3.682  14.186 -0.8060  1.1914  1.0018
10240TIP3   OH252134   6.483   4.058   5.946 -0.1997 -0.4358 -0.1176
10240TIP3    H152135   6.437   4.090   6.024 -2.5266 -0.2565 -1.5296
10240TIP3    H252136   6.435   3.979   5.921  0.9911 -0.9043 -0.9432
10241TIP3   OH252137   5.840   4.795  13.438  0.4696 -0.0569 -0.2500
10241TIP3    H152138   5.788   4.797  13.358  0.0923  1.7943  0.0348
10241TIP3    H252139   5.930   4.783  13.408  0.3164  0.5195 -0.9485
10242TIP3   OH252140   5.060   5.877   0.861 -0.2324 -0.4117  0.1299
10242TIP3    H152141   5.096   5.798   0.903  0.8227 -1.2136 -2.2098
10242TIP3    H252142   5.123   5.946   0.884  0.5786 -0.9397 -0.4464
10243TIP3   OH252143   3.592   2.677  16.591  0.2156  0.3106 -0.5022
10243TIP3    H152144   3.665   2.656  16.649 -0.4518  0.7383  0.5068
10243TIP3    H252145   3.515   2.643  16.636 -0.1086 -1.0677 -2.0595
10244TIP3   OH252146   4.322   1.823  17.179 -0.1024 -0.1219  0.3728
10244TIP3    H152147   4.240   1.815  17.228 -1.0627  0.5068 -1.1036
10244TIP3    H252148   4.316   1.909  17.137  0.8998 -0.4629 -0.4904
10245TIP3   OH252149   0.770   1.515   2.304 -0.1463  0.5176 -0.4589
10245TIP3    H152150   0.803   1.508   2.394 -1.5136 -0.7212 -0.0392
10245TIP3    H252151   0.675   1.511   2.313 -0.3149  0.8120 -1.9366
10246TIP3   OH252152   4.609   4.919   6.040 -0.3165  0.3470 -0.6492
10246TIP3    H152153   4.537   4.945   5.982  0.3140 -0.2083 -1.6865
10246TIP3    H252154   4.566   4.903   6.125 -1.1215  1.9883 -0.7201
10247TIP3   OH252155   6.581   4.574   0.008  0.8639 -0.1443 -0.0008
10247TIP3    H152156   6.554   4.663  -0.015  1.5781 -0.1065 -0.6900
10247TIP3    H252157   6.603   4.580   0.101 -0.2378  0.1239  0.2510
10248TIP3   OH252158   5.878   5.109  13.553 -0.0882  0.1409  0.7324
10248TIP3    H152159   5.872   5.021  13.591  1.2794 -0.2602  0.0854
10248TIP3    H252160   5.962   5.143  13.585 -0.8643  1.4485  1.4303
10249TIP3   OH252161   4.560   5.981   3.953 -1.2076  0.4044  0.6224
10249TIP3    H152162   4.539   5.903   3.900 -1.6913  0.5430  0.6106
10249TIP3    H252163   4.568   5.947   4.042  1.4664 -0.1568  0.2139
10250TIP3   OH252164   4.643   4.602  16.462 -0.1851  0.2446  0.5425
10250TIP3    H152165   4.593   4.529  16.498 -1.3747  0.3766 -0.7583
10250TIP3    H252166   4.622   4.600  16.368 -1.4335  3.1598  0.7270
10251TIP3   OH252167   2.081   2.811   3.659 -0.2571  0.2890  0.2194
10251TIP3    H152168   2.105   2.898   3.625 -0.6333  0.3732  0.1694
10251TIP3    H252169   2.164   2.763   3.662 -0.2618  0.1585 -1.1525
10252TIP3   OH252170   5.749   2.731   5.550 -0.6034  0.1392  0.1218
10252TIP3    H152171   5.791   2.728   5.636  0.9644  0.1024 -0.6352
10252TIP3    H252172   5.717   2.642   5.536  1.4129 -0.5237 -0.4338
10253TIP3   OH252173   5.506   1.252  14.083 -0.1184  0.2535 -0.1613
10253TIP3    H152174   5.485   1.163  14.055 -1.2550  0.6108 -0.4510
10253TIP3    H252175   5.442   1.308  14.038  0.3563  1.1826  0.2980
10254TIP3   OH252176   6.302   3.309   2.143  0.0822  0.0390  0.5714
10254TIP3    H152177   6.335   3.346   2.225  3.3457  1.6293 -1.3497
10254TIP3    H252178   6.211   3.339   2.138  0.4146  1.5127  2.6797
10255TIP3   OH252179   0.622   2.957   5.568 -0.1119 -0.3765 -0.1220
10255TIP3    H152180   0.696   3.001   5.525 -0.7698 -0.3282 -1.2379
10255TIP3    H252181   0.649   2.866   5.574  1.2209  0.1358  2.1216
10256TIP3   OH252182   1.345   4.143   1.508  0.2205  0.6508 -0.4399
10256TIP3    H152183   1.355   4.232   1.541  1.0108  0.7448 -0.9245
10256TIP3    H252184   1.322   4.154   1.416  0.6301  0.3478 -0.5797
10257TIP3   OH252185   1.235   1.091   3.619 -0.5712 -0.3405  0.7287
10257TIP3    H152186   1.177   1.074   3.693  0.0897  0.2202  1.3870
10257TIP3    H252187   1.188   1.155   3.565 -0.6268  0.0010  1.1818
10258TIP3   OH252188   2.161   1.462  13.468  0.0486  0.1038 -0.5573
10258TIP3    H152189   2.204   1.380  13.495  2.2064  1.2142 -0.4828
10258TIP3    H252190   2.072   1.436  13.446  0.5934 -2.2184 -0.2032
10259TIP3   OH252191   1.400   2.706  11.047 -0.3246  0.4301  0.2670
10259TIP3    H152192   1.479   2.758  11.034  0.4984 -0.9297 -0.3195
10259TIP3    H252193   1.348   2.721  10.968  0.4935 -0.6147 -0.4856
10260TIP3   OH252194   0.784   2.775  13.395  0.4978 -0.3707 -0.1375
10260TIP3    H152195   0.779   2.870  13.404 -0.7262 -0.4735  0.5114
10260TIP3    H252196   0.835   2.760  13.316  0.0015  0.8487 -0.6989
10261TIP3   OH252197   5.873   5.249   2.531 -0.4147  0.2817  0.3308
10261TIP3    H152198   5.843   5.335   2.504 -0.1132 -0.1828 -1.5378
10261TIP3    H252199   5.809   5.188   2.493  1.7321 -0.5917 -2.0219
10262TIP3   OH252200   1.527   1.238   6.086 -0.7825  0.6588 -0.5604
10262TIP3    H152201   1.601   1.223   6.027 -0.5064  1.1482 -0.3426
10262TIP3    H252202   1.465   1.168   6.065  0.6870 -1.0814  0.7818
10263TIP3   OH252203   0.823   5.793   3.432  0.6740 -0.1693 -0.1536
10263TIP3    H152204   0.799   5.748   3.513  1.1555  0.8727  0.5914
10263TIP3    H252205   0.807   5.886   3.451  1.6416  0.1718 -0.9408
10264TIP3   OH252206   4.834   1.069   1.533 -0.2885  0.1933  0.5936
10264TIP3    H152207   4.799   1.023   1.609 -1.1665 -0.8643 -0.4246
10264TIP3    H252208   4.767   1.134   1.512 -0.9123 -0.7380 -0.3639
10265TIP3   OH252209   2.217   4.270   0.613 -0.0374  0.0206  0.0910
10265TIP3    H152210   2.287   4.206   0.606  0.8040  1.0914 -1.5918
10265TIP3    H252211   2.234   4.317   0.695  0.4234 -0.6098  0.3559
10266TIP3   OH252212   1.710   3.611  10.705  0.0995  0.0593  0.6209
10266TIP3    H152213   1.708   3.697  10.663  0.2384 -0.3855 -0.3150
10266TIP3    H252214   1.714   3.549  10.632 -3.2583 -0.9085  1.1718
10267TIP3   OH252215   3.711   1.659   6.061 -0.1763  0.2098  0.0667
10267TIP3    H152216   3.643   1.710   6.106  0.0835 -0.0495  0.7682
10267TIP3    H252217   3.735   1.591   6.124 -0.1431 -0.4610 -0.6565
10268TIP3   OH252218   6.709   4.982  12.797  0.1520 -0.1070  0.0819
10268TIP3    H152219   6.690   5.076  12.800  1.5724  0.1901 -0.0210
10268TIP3    H252220   6.771   4.967  12.869  0.1643 -0.9089 -0.0831
10269TIP3   OH252221   4.243   4.664   5.632 -0.3581  0.3447 -0.5276
10269TIP3    H152222   4.279   4.648   5.719  0.7414  0.6050 -0.9249
10269TIP3    H252223   4.188   4.588   5.615  0.5411 -0.4045 -0.1761
10270TIP3   OH252224   1.282   4.424   1.864 -0.0175 -0.5488 -0.3919
10270TIP3    H152225   1.216   4.370   1.908  0.0710  1.6162  2.5141
10270TIP3    H252226   1.239   4.454   1.784 -0.9892 -2.6878 -0.7240
10271TIP3   OH252227   3.952   0.996  16.736 -0.2448  0.2225  0.4297
10271TIP3    H152228   3.951   1.067  16.672 -0.4646  0.7997  1.0662
10271TIP3    H252229   3.863   0.995  16.773 -0.1522 -0.1710  0.6559
10272TIP3   OH252230   5.076   2.976   2.572  0.0788  0.4664 -0.4219
10272TIP3    H152231   5.042   3.050   2.622  0.1554  0.2865 -0.1088
10272TIP3    H252232   5.000   2.946   2.520  0.1230  0.9433 -0.7666
10273TIP3   OH252233   0.478   0.026  13.282  0.2951 -0.4359 -0.3628
10273TIP3    H152234   0.462  -0.035  13.210 -1.8033  3.4405 -3.3658
10273TIP3    H252235   0.524   0.100  13.242  2.8768 -0.0048  3.1772
10274TIP3   OH252236   4.511   6.231  13.277 -0.2689  0.1477 -0.5356
10274TIP3    H152237   4.584   6.240  13.338 -1.1200 -4.5131  1.4154
10274TIP3    H252238   4.548   6.182  13.203 -0.4791  1.3026 -1.4208
10275TIP3   OH252239   4.142   4.836   0.355 -0.3995  0.5690  0.1306
10275TIP3    H152240   4.176   4.861   0.441  0.9135  2.6018 -0.9576
10275TIP3    H252241   4.050   4.816   0.371  0.0782 -0.1278  2.2019
10276TIP3   OH252242   1.961   0.801   3.586 -0.4910 -0.0871  0.1987
10276TIP3    H152243   1.894   0.735   3.602 -0.5304  0.3894  2.1525
10276TIP3    H252244   1.913   0.882   3.567 -0.4619 -0.1468 -0.1259
10277TIP3   OH252245   5.880   6.318  11.805 -0.3033  0.0465  0.1182
10277TIP3    H152246   5.918   6.346  11.722 -1.7256  0.8487 -0.2632
10277TIP3    H252247   5.936   6.358  11.872 -0.1575  0.7550 -0.4286
10278TIP3   OH252248   6.494   1.332  12.871 -0.1049 -0.2798  0.0071
10278TIP3    H152249   6.519   1.414  12.830  0.8212 -0.5758 -0.0298
10278TIP3    H252250   6.551   1.266  12.831 -0.6616 -0.9039  0.2136
10279TIP3   OH252251   1.236   1.874  16.208 -0.4554 -0.2372 -0.3618
10279TIP3    H152252   1.315   1.831  16.240 -0.0062  0.2440 -0.8085
10279TIP3    H252253   1.165   1.816  16.234 -0.0206 -0.3214  0.6681
10280TIP3   OH252254   3.586   4.382   5.543  0.0025  0.3760  0.1161
10280TIP3    H152255   3.601   4.381   5.448  0.3066 -0.9430  0.1673
10280TIP3    H252256   3.492   4.372   5.553  0.1095 -0.7857 -0.0231
10281TIP3   OH252257   0.294   0.740   5.620  0.2782 -0.4594 -0.0316
10281TIP3    H152258   0.292   0.825   5.664 -0.8478 -0.8990  0.7739
10281TIP3    H252259   0.369   0.746   5.560  1.2264  0.5000  1.2246
10282TIP3   OH252260   5.088   1.409   2.902 -0.0546 -0.0574 -0.5048
10282TIP3    H152261   5.024   1.445   2.841  0.2787  1.0655 -0.1999
10282TIP3    H252262   5.130   1.485   2.942  0.7537 -0.7763  0.0590
10283TIP3   OH252263   4.228   2.063  15.848  0.1091  0.2665 -0.0855
10283TIP3    H152264   4.267   2.095  15.768 -1.0415  1.2784 -0.2467
10283TIP3    H252265   4.265   1.975  15.859  1.6450  0.8147 -0.7468
10284TIP3   OH252266   4.010   4.009   0.629  0.2085 -0.6775  0.4597
10284TIP3    H152267   4.097   3.973   0.648  1.1491  1.4096  0.2869
10284TIP3    H252268   3.949   3.950   0.673  1.7622 -1.8313  1.0997
10285TIP3   OH252269   1.979   4.188  16.301 -0.1939 -0.4778 -0.2426
10285TIP3    H152270   1.898   4.189  16.352  1.4578 -1.3293  2.5091
10285TIP3    H252271   2.020   4.272  16.320  1.2574 -1.4996  1.2714
10286TIP3   OH252272   0.352   2.065  15.192  0.2141 -0.3948 -0.7529
10286TIP3    H152273   0.422   2.051  15.128 -0.5106  0.0131 -1.6335
10286TIP3    H252274   0.271   2.053  15.143 -0.3526  0.0512  0.0567
10287TIP3   OH252275   0.065   3.417   3.474  0.4637 -0.5111 -0.3649
10287TIP3    H152276  -0.028   3.398   3.487  0.0704  1.2601 -0.5696
10287TIP3    H252277   0.068   3.478   3.401  1.8253 -0.8784 -0.6312
10288TIP3   OH252278   4.797   6.325  15.718 -0.5824 -0.1700 -0.2729
10288TIP3    H152279   4.822   6.417  15.706 -2.5032  0.2080 -1.7028
10288TIP3    H252280   4.770   6.319  15.810 -0.4814  0.7076 -0.1793
10289TIP3   OH252281   6.035   1.723  12.136  0.5624 -0.3226  0.0297
10289TIP3    H152282   6.029   1.805  12.086  1.2881 -0.3766 -0.1525
10289TIP3    H252283   6.110   1.737  12.194  0.0962 -0.4939  0.6704
10290TIP3   OH252284   6.538   6.139  16.287  0.4006  0.5012  1.0577
10290TIP3    H152285   6.565   6.221  16.245 -0.7926  0.6784  0.6349
10290TIP3    H252286   6.447   6.153  16.311  0.2170 -0.6816  1.0616
10291TIP3   OH252287   5.025   1.460   4.157 -0.0936 -0.3873 -0.3964
10291TIP3    H152288   5.112   1.429   4.134  0.0104 -0.1994 -0.2602
10291TIP3    H252289   5.023   1.551   4.125 -0.2719 -0.4221 -0.4838
10292TIP3   OH252290   1.965   2.746   4.795  0.4012 -0.1376  0.8565
10292TIP3    H152291   1.932   2.828   4.830  0.1023  0.5191 -0.9159
10292TIP3    H252292   1.892   2.685   4.802 -0.7462  0.8839 -1.5973
10293TIP3   OH252293   2.272   5.664   0.234  0.3623 -0.0492  0.5848
10293TIP3    H152294   2.203   5.638   0.295 -1.3008 -0.5594 -1.4395
10293TIP3    H252295   2.311   5.741   0.274 -2.1458  0.9334  1.2612
10294TIP3   OH252296   1.198   0.433  16.711 -0.0134  0.1593  1.0762
10294TIP3    H152297   1.260   0.452  16.641 -0.4069  0.6878  0.8695
10294TIP3    H252298   1.132   0.377  16.670  0.9600 -1.3824  1.5953
10295TIP3   OH252299   3.122   0.873   5.674  0.7155 -0.7632 -0.4184
10295TIP3    H152300   3.210   0.837   5.667  0.6437 -0.9027 -0.5946
10295TIP3    H252301   3.079   0.818   5.739  1.2530  0.2791  0.8519
10296TIP3   OH252302   0.835   4.947   2.284  0.3096  0.4068 -0.3297
10296TIP3    H152303   0.878   4.881   2.339 -0.1310  1.1535  0.9101
10296TIP3    H252304   0.905   5.010   2.263 -0.3590  2.1666  2.5183
10297TIP3   OH252305   0.308   3.248  13.934 -0.0969 -0.1884 -0.2327
10297TIP3    H152306   0.296   3.309  14.006  2.9957 -1.2873  1.2796
10297TIP3    H252307   0.370   3.292  13.875 -0.5444 -0.4329 -0.9010
10298TIP3   OH252308   2.887   3.748  15.829  0.3331 -0.0732  0.6225
10298TIP3    H152309   2.963   3.771  15.883  1.1067  0.8946 -0.8472
10298TIP3    H252310   2.904   3.790  15.745 -1.2801 -0.8356 -0.0989
10299TIP3   OH252311   0.619   0.209  12.739 -0.1630  0.5954 -0.2593
10299TIP3    H152312   0.711   0.226  12.762 -0.6356  2.5126  0.2797
10299TIP3    H252313   0.572   0.217  12.822 -0.6653 -1.7519 -0.2802
10300TIP3   OH252314   2.034   3.744  16.149  0.3275  0.3438  0.6357
10300TIP3    H152315   2.037   3.756  16.054 -1.0574 -2.0097  0.2570
10300TIP3    H252316   2.110   3.689  16.169 -1.2681 -2.0084  0.3920
10301TIP3   OH252317   1.360   3.879  12.080  0.3376  0.3451 -0.0689
10301TIP3    H152318   1.398   3.804  12.034 -2.6386 -0.8720 -0.7073
10301TIP3    H252319   1.434   3.933  12.104  2.4200 -1.8733 -1.2900
10302TIP3   OH252320   4.072   3.396   3.915 -0.3201 -0.3810 -0.0660
10302TIP3    H152321   4.105   3.306   3.914 -0.8023 -0.5607  0.0700
10302TIP3    H252322   4.148   3.449   3.939  0.3462 -0.5917 -1.6294
10303TIP3   OH252323   3.674   3.768   5.047  0.5999 -0.3003 -0.9166
10303TIP3    H152324   3.606   3.818   5.002 -0.7492  0.1555  1.5434
10303TIP3    H252325   3.637   3.680   5.054  0.5636 -0.2363 -0.2512
10304TIP3   OH252326   3.210   4.448  11.914  0.3267  0.0205  0.0275
10304TIP3    H152327   3.254   4.369  11.884  0.4317 -0.9623  2.6712
10304TIP3    H252328   3.174   4.425  12.000  0.4517  2.8446  0.8966
10305TIP3   OH252329   5.825   6.512   1.013  0.5673  0.0928 -0.1643
10305TIP3    H152330   5.849   6.469   1.095 -1.5284 -1.2350 -0.2141
10305TIP3    H252331   5.828   6.442   0.948 -1.5850  0.2650 -0.4907
10306TIP3   OH252332   1.823   6.274  15.785 -0.0693  0.2698 -0.2156
10306TIP3    H152333   1.901   6.296  15.835  0.7188  0.1720 -1.3862
10306TIP3    H252334   1.751   6.281  15.848  1.1013 -1.6408  1.3680
10307TIP3   OH252335   6.363   5.343  12.329  0.3150 -0.2854  0.2622
10307TIP3    H152336   6.306   5.269  12.351 -1.3612  0.7827 -0.4224
10307TIP3    H252337   6.355   5.351  12.234 -0.6043  1.6306  0.4808
10308TIP3   OH252338   5.292   1.285   5.783  0.4629 -0.3281 -0.4367
10308TIP3    H152339   5.285   1.237   5.865  0.5031  1.3197  0.5560
10308TIP3    H252340   5.386   1.290   5.766  0.7252  2.8303  1.5795
10309TIP3   OH252341   3.601   1.065   6.091 -0.1061 -0.1789 -0.0377
10309TIP3    H152342   3.555   1.050   6.173  0.4240 -0.7723  0.1579
10309TIP3    H252343   3.675   1.122   6.115 -0.3353  0.2051 -0.2284
10310TIP3   OH252344   4.674   4.351   5.569 -0.5574  0.2579 -0.3862
10310TIP3    H152345   4.656   4.366   5.662  0.3783 -0.8442 -0.0232
10310TIP3    H252346   4.766   4.327   5.565  0.1860  3.1907 -1.9543
10311TIP3   OH252347   0.097   4.883   6.520 -0.4384 -0.2560 -0.5959
10311TIP3    H152348   0.075   4.868   6.428  0.5671 -1.8704 -0.5988
10311TIP3    H252349   0.186   4.919   6.518 -0.0374 -1.2138 -0.2231
10312TIP3   OH252350   5.409   3.321   3.963  0.1902 -0.1241  0.2363
10312TIP3    H152351   5.498   3.287   3.956 -0.4184 -1.4088 -1.6425
10312TIP3    H252352   5.367   3.296   3.881 -2.6787 -1.8345  2.1129
10313TIP3   OH252353   5.209   1.629  16.704 -0.1518  0.2160  0.5021
10313TIP3    H152354   5.224   1.552  16.648 -1.9777  0.1409  0.0751
10313TIP3    H252355   5.244   1.702  16.654  1.6491 -0.3357  0.9371
10314TIP3   OH252356   5.683   3.496   0.409  0.2925 -0.4195  0.3230
10314TIP3    H152357   5.766   3.451   0.424  0.4966  0.2448  1.2759
10314TIP3    H252358   5.688   3.526   0.319  1.6883  0.8051  0.7881
10315TIP3   OH252359   1.103   4.667  15.498  0.2086  0.0796  0.0705
10315TIP3    H152360   1.083   4.622  15.416  4.4329 -1.8218 -0.0729
10315TIP3    H252361   1.131   4.755  15.471 -0.9544  0.3546 -0.2703
10316TIP3   OH252362   3.067   2.276  13.689  0.1457 -0.7381 -0.3565
10316TIP3    H152363   3.022   2.331  13.754  2.0896  1.1660 -0.5536
10316TIP3    H252364   3.128   2.223  13.742  1.5151  0.5988 -0.5554
10317TIP3   OH252365   0.937   6.007  15.655  0.0329 -0.2274  0.4425
10317TIP3    H152366   0.902   5.963  15.733  0.5360  0.4081  1.0297
10317TIP3    H252367   0.860   6.043  15.611 -0.3779 -1.6081  0.0084
10318TIP3   OH252368   4.051   5.008  15.365 -0.2954  0.1771  0.3290
10318TIP3    H152369   4.100   4.990  15.285 -1.5515 -0.3151 -0.3410
10318TIP3    H252370   4.079   5.095  15.392  1.5339 -0.4130  0.3966
10319TIP3   OH252371   6.640   6.234   6.059 -0.4711 -0.3503  0.0699
10319TIP3    H152372   6.641   6.161   6.120  1.4119 -0.2800  0.1452
10319TIP3    H252373   6.685   6.305   6.105 -1.3316  0.5284 -0.4090
10320TIP3   OH252374   0.292   6.200   4.935 -0.2898 -0.5722 -0.1053
10320TIP3    H152375   0.377   6.157   4.946  1.6623  2.4906 -2.5979
10320TIP3    H252376   0.300   6.282   4.983 -2.3016 -0.7969  0.6478
10321TIP3   OH252377   2.801   0.530  12.233  0.2170 -0.0338  0.1028
10321TIP3    H152378   2.815   0.623  12.216  0.6038 -0.1921 -0.4869
10321TIP3    H252379   2.716   0.511  12.194 -0.6270  0.4318  1.6867
10322TIP3   OH252380   1.865   5.597   0.343 -0.1646 -0.6865 -0.7484
10322TIP3    H152381   1.860   5.508   0.307 -0.8057 -0.9091 -0.1320
10322TIP3    H252382   1.939   5.637   0.298  0.2841 -1.6186 -0.8500
10323TIP3   OH252383   3.606   2.140   0.329  0.2351  0.1749 -0.1896
10323TIP3    H152384   3.543   2.213   0.332 -1.0990 -0.9805  0.7178
10323TIP3    H252385   3.602   2.109   0.239  0.6496  1.0863 -0.5300
10324TIP3   OH252386   0.521   1.168   4.372 -0.0544 -0.0110 -0.3533
10324TIP3    H152387   0.503   1.076   4.392 -1.4247  0.2362 -0.4447
10324TIP3    H252388   0.615   1.169   4.352 -0.1501 -1.5028 -0.9938
10325TIP3   OH252389   3.979   5.263   5.268 -0.1085 -0.3581  0.7474
10325TIP3    H152390   3.991   5.324   5.195 -0.5068 -1.1486  0.0112
10325TIP3    H252391   3.945   5.317   5.339 -1.2728  0.1178 -0.1619
10326TIP3   OH252392   0.770   6.108  16.188 -0.1234 -0.0613 -0.3194
10326TIP3    H152393   0.774   6.118  16.093 -0.3283  1.3113 -0.1970
10326TIP3    H252394   0.766   6.013  16.202 -1.0812 -0.2479 -1.7145
10327TIP3   OH252395   6.474   4.851  13.296  0.2710  0.4427 -0.0240
10327TIP3    H152396   6.499   4.937  13.262  1.3915  0.8535  1.8029
10327TIP3    H252397   6.492   4.790  13.224  0.9498  1.5346 -0.7790
10328TIP3   OH252398   3.572   1.862   0.464 -0.5070 -0.3309 -0.1928
10328TIP3    H152399   3.579   1.944   0.414 -0.6492 -0.0178  0.2975
10328TIP3    H252400   3.644   1.867   0.527 -1.2694 -0.0186  0.6552
10329TIP3   OH252401   4.743   4.803   1.573  0.5752 -0.1599  0.2979
10329TIP3    H152402   4.703   4.881   1.614  1.1115  2.8309 -4.4573
10329TIP3    H252403   4.678   4.775   1.508  1.7158 -1.7471 -0.1759
10330TIP3   OH252404   2.829   6.427   5.543  0.7658 -0.1891 -0.1944
10330TIP3    H152405   2.798   6.439   5.453 -0.2628  0.6142  0.2656
10330TIP3    H252406   2.824   6.333   5.558  0.7118 -0.2980 -0.9020
10331TIP3   OH252407   4.278   0.550  13.518  0.1813  0.0578 -0.0441
10331TIP3    H152408   4.268   0.604  13.597 -0.8598  0.3656 -0.3712
10331TIP3    H252409   4.188   0.527  13.494  0.5618 -1.0390 -0.4545
10332TIP3   OH252410   5.918   0.968   1.163 -0.2631  0.2175  0.1217
10332TIP3    H152411   5.931   1.062   1.168  0.0503  0.1803  0.0205
10332TIP3    H252412   5.829   0.954   1.197  0.0152  0.4563  0.9593
10333TIP3   OH252413   3.108   1.415  15.789  0.1023 -0.5353 -0.5379
10333TIP3    H152414   3.018   1.431  15.762  0.6227  0.3575 -1.8128
10333TIP3    H252415   3.107   1.329  15.830 -1.5168 -0.0912  0.3786
10334TIP3   OH252416   2.928   4.802  13.599  0.3556  0.1182 -0.3358
10334TIP3    H152417   2.851   4.749  13.578 -0.5086  0.1026  2.7198
10334TIP3    H252418   2.894   4.891  13.610  0.3271 -0.2816  3.3324
10335TIP3   OH252419   2.682   4.858   0.131 -0.4583  0.8688  0.3224
10335TIP3    H152420   2.679   4.884   0.223  0.7418 -1.1071  0.9440
10335TIP3    H252421   2.749   4.914   0.092  0.6305  0.1732  1.1764
10336TIP3   OH252422   6.534   3.885  13.653  0.0426 -0.4111  0.1452
10336TIP3    H152423   6.530   3.848  13.564 -0.8061 -0.6429  0.2773
10336TIP3    H252424   6.606   3.948  13.649 -0.9691  0.6870 -1.1277
10337TIP3   OH252425   3.126   0.728  15.073  0.0254  0.5484  0.1872
10337TIP3    H152426   3.184   0.695  15.004 -1.0234  1.3815 -1.1209
10337TIP3    H252427   3.110   0.652  15.129  0.0623 -0.3948 -1.0692
10338TIP3   OH252428   0.227   6.155  16.380 -0.1828 -0.0040 -0.7121
10338TIP3    H152429   0.239   6.237  16.333  1.5694 -0.4251 -1.0429
10338TIP3    H252430   0.177   6.099  16.320  1.5299 -0.3325 -1.8643
10339TIP3   OH252431   2.545   5.923  13.413 -0.0878  0.4497 -0.2258
10339TIP3    H152432   2.580   5.870  13.485 -2.6532  0.6911  1.2578
10339TIP3    H252433   2.535   5.861  13.341 -1.1089 -0.6480  0.8377
10340TIP3   OH252434   2.915   0.225   1.912 -0.3417 -0.1858 -0.4940
10340TIP3    H152435   2.919   0.172   1.992  2.6687  1.8794  0.8501
10340TIP3    H252436   2.958   0.171   1.846  3.1397  0.6206  0.9825
10341TIP3   OH252437   4.830   2.170  12.620  0.1891 -0.2703  0.3041
10341TIP3    H152438   4.776   2.220  12.558  0.7861 -0.0757 -0.0748
10341TIP3    H252439   4.913   2.219  12.623  0.3621 -0.5942  0.8270
10342TIP3   OH252440   2.675   5.570  13.915 -0.4161 -0.6667 -0.2199
10342TIP3    H152441   2.730   5.537  13.844  0.6659 -0.9069  0.7216
10342TIP3    H252442   2.614   5.499  13.933 -1.2131 -0.3029 -1.4392
10343TIP3   OH252443   0.350   5.409  12.735  0.9403 -0.1802  0.1331
10343TIP3    H152444   0.400   5.359  12.670  3.0587  2.4161 -0.2903
10343TIP3    H252445   0.259   5.391  12.713  1.6436 -2.0110 -1.4390
10344TIP3   OH252446   3.546   6.605   0.731 -0.2899  0.0525 -0.6622
10344TIP3    H152447   3.488   6.672   0.696 -0.1174 -0.1160 -1.2910
10344TIP3    H252448   3.503   6.522   0.710  0.6387 -0.1104 -2.0200
10345TIP3   OH252449   1.558   2.945   2.534 -0.2865 -0.8617  0.7025
10345TIP3    H152450   1.626   3.007   2.561  0.2988 -1.8125  1.4521
10345TIP3    H252451   1.482   3.000   2.515  0.6174  0.2004  0.0518
10346TIP3   OH252452   1.743   5.838  12.226 -0.0179  0.2658  0.3630
10346TIP3    H152453   1.658   5.862  12.189 -0.5993  0.9462  2.0664
10346TIP3    H252454   1.734   5.746  12.249 -0.1010  0.1865  0.0129
10347TIP3   OH252455   2.474   1.944   4.592  0.0077 -0.4268  0.2861
10347TIP3    H152456   2.507   2.034   4.593 -1.1043 -0.0215  0.3852
10347TIP3    H252457   2.413   1.941   4.666  1.6376 -1.8547  1.6073
10348TIP3   OH252458   4.483   0.823  11.182  0.2375 -0.4612 -0.1176
10348TIP3    H152459   4.509   0.794  11.095  1.3275 -0.6491  0.2643
10348TIP3    H252460   4.412   0.765  11.207 -0.7153  0.2041 -1.2710
10349TIP3   OH252461   2.987   0.348   3.982  0.1413 -0.4740 -0.7113
10349TIP3    H152462   3.039   0.429   3.981 -1.4248  0.5885  0.8947
10349TIP3    H252463   2.995   0.315   4.071 -1.2752 -0.7184 -0.6547
10350TIP3   OH252464   0.784   5.957  13.534 -0.6236 -0.0564  0.0394
10350TIP3    H152465   0.696   5.974  13.500 -1.2584 -1.1081  1.0801
10350TIP3    H252466   0.843   5.989  13.467 -1.8131  0.7221 -0.6491
10351TIP3   OH252467   0.391   6.147   1.165  0.1946  0.1918  0.8962
10351TIP3    H152468   0.351   6.230   1.140 -0.1111  0.2231  1.4924
10351TIP3    H252469   0.451   6.127   1.093 -1.7602 -0.4543 -0.6057
10352TIP3   OH252470   4.908   2.452  11.933  0.4999 -0.2327  0.5597
10352TIP3    H152471   4.993   2.487  11.957  0.5043  0.0532  0.1104
10352TIP3    H252472   4.850   2.528  11.927  0.0715 -0.4691  1.4172
10353TIP3   OH252473   5.327   2.679  11.768 -0.3760  0.4726 -0.3926
10353TIP3    H152474   5.393   2.634  11.716 -0.0516 -0.4273  0.7574
10353TIP3    H252475   5.244   2.639  11.742  0.1071 -2.3425  2.0946
10354TIP3   OH252476   0.373   3.874  13.018  0.3971  0.1831 -0.0196
10354TIP3    H152477   0.439   3.848  12.954  1.4725 -1.8600  1.8623
10354TIP3    H252478   0.326   3.946  12.976  2.3233  0.1628 -2.3075
10355TIP3   OH252479   4.791   4.501  11.569 -0.0950 -0.0743 -0.0221
10355TIP3    H152480   4.773   4.532  11.658 -0.0072  1.8377 -0.6496
10355TIP3    H252481   4.713   4.525  11.519 -0.0822 -1.0083 -0.5065
10356TIP3   OH252482   0.089   0.715   6.032 -0.5772  0.0437  0.6115
10356TIP3    H152483  -0.002   0.744   6.031 -0.6952 -0.2749  1.4565
10356TIP3    H252484   0.097   0.665   6.114 -0.2480 -1.8612 -0.5328
10357TIP3   OH252485   2.840   6.317   2.857 -0.1762  0.3832  0.3389
10357TIP3    H152486   2.869   6.240   2.905 -0.2946  0.3970  0.4308
10357TIP3    H252487   2.835   6.386   2.923  0.1621  0.5306  0.2146
10358TIP3   OH252488   4.038   5.466   1.950 -0.1194  0.2561  0.2667
10358TIP3    H152489   4.025   5.382   1.907  0.1827  0.9422 -1.1932
10358TIP3    H252490   4.133   5.480   1.949 -0.2256  0.9818 -0.2183
10359TIP3   OH252491   5.602   4.148  16.110  0.1782  0.2751 -0.3825
10359TIP3    H152492   5.535   4.174  16.046 -1.1052  1.4176  1.3672
10359TIP3    H252493   5.582   4.201  16.187  3.5301  1.1414 -0.0476
10360TIP3   OH252494   6.670   0.670   4.647  0.1398 -0.6090 -0.0222
10360TIP3    H152495   6.622   0.748   4.621 -0.9056 -0.8626  1.0999
10360TIP3    H252496   6.708   0.692   4.733  1.4154 -0.6714 -0.5604
10361TIP3   OH252497   5.551   6.079  13.242 -0.2050  0.2538  0.4510
10361TIP3    H152498   5.536   6.151  13.181 -2.0323  1.2755  2.0656
10361TIP3    H252499   5.520   6.001  13.195  0.6682  0.6592 -0.8343
10362TIP3   OH252500   2.893   2.206  15.402 -0.3701  0.0786  0.2381
10362TIP3    H152501   2.875   2.249  15.319 -0.0028 -1.5832 -0.7106
10362TIP3    H252502   2.987   2.186  15.399 -0.0363  1.2856  1.6702
10363TIP3   OH252503   5.837   2.708   3.023 -0.0662  0.5836  0.0191
10363TIP3    H152504   5.923   2.750   3.019 -0.1002  0.5846 -0.8643
10363TIP3    H252505   5.822   2.677   2.933 -0.0573 -1.2793  0.6336
10364TIP3   OH252506   5.055   6.436  16.395 -0.1846  0.2635 -0.4127
10364TIP3    H152507   4.969   6.399  16.377  0.2834 -1.2051  0.2908
10364TIP3    H252508   5.080   6.481  16.314 -1.4142  0.3104 -0.7662
10365TIP3   OH252509   6.442   5.170   0.760  0.2009  0.3528 -0.8019
10365TIP3    H152510   6.524   5.122   0.756 -0.8139 -1.5262 -0.0020
10365TIP3    H252511   6.419   5.169   0.853 -1.2407 -0.0788 -1.1486
10366TIP3   OH252512   4.159   0.897   1.612  0.1382  0.0087 -0.2075
10366TIP3    H152513   4.072   0.935   1.622 -0.2752 -0.4638 -1.8467
10366TIP3    H252514   4.144   0.810   1.576  1.2195 -0.6761  0.9351
10367TIP3   OH252515   1.281   2.820   6.235  0.2572 -0.1960  0.0701
10367TIP3    H152516   1.188   2.824   6.213  0.8862  0.6276 -2.7440
10367TIP3    H252517   1.311   2.910   6.227  1.8820 -0.8764 -2.1707
10368TIP3   OH252518   2.775   0.641   3.830  0.2042  0.3741 -0.2032
10368TIP3    H152519   2.772   0.595   3.914 -1.6526  2.4843  0.9453
10368TIP3    H252520   2.739   0.579   3.767  2.0028 -1.3955  0.4539
10369TIP3   OH252521   2.290   6.270  12.737  0.1916 -0.2643 -0.8874
10369TIP3    H152522   2.197   6.260  12.716 -0.0985 -0.0079  0.2456
10369TIP3    H252523   2.335   6.218  12.671 -0.6439  1.1827 -2.6253
10370TIP3   OH252524   4.440   2.654  15.042  0.3022  0.4203 -0.1552
10370TIP3    H152525   4.395   2.659  14.958  0.7377  0.6190 -0.3704
10370TIP3    H252526   4.452   2.745  15.069 -2.5001  0.3888  1.5306
10371TIP3   OH252527   2.290   4.162  10.846 -0.5166  0.3097  0.2819
10371TIP3    H152528   2.223   4.207  10.794  0.6939  1.4045 -0.3717
10371TIP3    H252529   2.330   4.100  10.785 -1.3184 -0.7837  0.8376
10372TIP3   OH252530   4.438   2.787   2.199 -0.0626 -0.5275  0.3433
10372TIP3    H152531   4.528   2.819   2.211  0.2227 -0.6322 -1.3859
10372TIP3    H252532   4.402   2.843   2.130 -2.4312  1.6689  3.2157
10373TIP3   OH252533   4.745   3.165  13.977  0.1014 -0.1733 -0.6565
10373TIP3    H152534   4.758   3.236  14.040 -1.0074  0.1219 -0.7572
10373TIP3    H252535   4.820   3.107  13.991 -0.4882 -0.4618  1.3851
10374TIP3   OH252536   4.472   2.368   0.928  0.0681  0.1152  0.1181
10374TIP3    H152537   4.557   2.385   0.887  0.3260  0.4878  0.8079
10374TIP3    H252538   4.408   2.405   0.867  0.3248 -1.1583 -0.9534
10375TIP3   OH252539   4.349   3.153  17.225 -0.0853 -0.0733 -0.2531
10375TIP3    H152540   4.299   3.083  17.267 -0.8661  0.1235 -0.8586
10375TIP3    H252541   4.320   3.233  17.270  2.4434 -0.3604  2.0004
10376TIP3   OH252542   6.600   2.518  16.088  0.1804  0.7077  0.6840
10376TIP3    H152543   6.509   2.548  16.079  0.0565  0.6965  1.8595
10376TIP3    H252544   6.623   2.539  16.178  0.9906 -0.2868  0.7078
10377TIP3   OH252545   4.524   1.284   1.870 -0.0690 -0.2273  0.2456
10377TIP3    H152546   4.522   1.380   1.874 -0.7993 -0.1647 -1.1428
10377TIP3    H252547   4.438   1.257   1.902  0.5830 -0.4787  1.8018
10378TIP3   OH252548   4.496   5.588   4.845 -0.2931 -0.1496 -0.6945
10378TIP3    H152549   4.472   5.681   4.851  2.0176  0.4576 -0.5336
10378TIP3    H252550   4.452   5.548   4.920  1.9303  1.5649  1.6015
10379TIP3   OH252551   3.621   0.520  16.651 -0.6748 -0.0964  0.9484
10379TIP3    H152552   3.592   0.603  16.688 -1.5786 -0.2595  0.6105
10379TIP3    H252553   3.692   0.492  16.708  0.2822  1.3728  0.5203
10380TIP3   OH252554   1.827   3.550   0.797 -0.0672 -0.2954 -0.5362
10380TIP3    H152555   1.741   3.512   0.777 -0.0800 -0.2686 -0.5323
10380TIP3    H252556   1.848   3.602   0.719  0.7271 -1.6770 -1.2607
10381TIP3   OH252557   4.929   3.451   5.392  0.8677 -0.1256  0.1079
10381TIP3    H152558   4.997   3.392   5.359  0.2119  0.2356 -2.0020
10381TIP3    H252559   4.937   3.530   5.338 -0.4775  0.3589  0.5844
10382TIP3   OH252560   3.659   2.091   2.790  0.1011 -0.3009  0.2194
10382TIP3    H152561   3.614   2.087   2.706 -0.0322 -0.2980  0.2903
10382TIP3    H252562   3.663   2.184   2.811 -1.9398 -0.4427  1.3218
10383TIP3   OH252563   3.566   2.206  12.669 -0.3257  0.3728  0.4421
10383TIP3    H152564   3.555   2.299  12.654 -0.3413  0.1862 -0.7219
10383TIP3    H252565   3.480   2.175  12.696 -0.3835  0.6379  0.5622
10384TIP3   OH252566   0.192   3.118  12.152  0.2157  0.2731  0.0760
10384TIP3    H152567   0.103   3.152  12.144  0.0980  0.4533  1.9550
10384TIP3    H252568   0.191   3.066  12.232  1.4810 -0.7758 -0.5532
10385TIP3   OH252569   2.938   1.555  11.565  0.2331  0.4412 -0.4810
10385TIP3    H152570   2.930   1.648  11.586 -1.9136 -0.1068  1.2459
10385TIP3    H252571   2.965   1.554  11.473 -0.4118  2.7554 -0.7400
10386TIP3   OH252572   0.179   4.233   3.072 -0.3964  0.0480  0.1172
10386TIP3    H152573   0.251   4.266   3.126 -1.4343 -0.7575  2.0155
10386TIP3    H252574   0.137   4.166   3.126 -1.1104 -1.1722 -1.9271
10387TIP3   OH252575   0.078   2.234   0.086  0.1884  0.0563 -0.1663
10387TIP3    H152576  -0.005   2.239   0.037 -0.0793 -0.5068  0.2350
10387TIP3    H252577   0.110   2.324   0.086 -0.4528  0.2884 -0.2717
10388TIP3   OH252578   1.749   3.075   4.714  0.2234  0.0473  0.2569
10388TIP3    H152579   1.745   2.982   4.694  0.9996  0.1431 -0.3429
10388TIP3    H252580   1.737   3.119   4.630 -0.7980  0.5076  0.6267
10389TIP3   OH252581   2.822   6.019  11.827  0.5805 -0.2505 -0.5614
10389TIP3    H152582   2.783   5.934  11.809  0.8280 -0.8485  1.5204
10389TIP3    H252583   2.768   6.055  11.897  1.0625  0.8743 -0.7665
10390TIP3   OH252584   0.302   2.507   1.510 -0.0881  0.6836  0.3986
10390TIP3    H152585   0.206   2.508   1.515 -0.2080  3.0601 -1.3870
10390TIP3    H252586   0.329   2.436   1.568 -3.0020 -1.1034 -0.3638
10391TIP3   OH252587   2.501   3.877   5.976  0.3223  0.1879 -0.0537
10391TIP3    H152588   2.417   3.922   5.960  1.2000  0.7479 -3.4309
10391TIP3    H252589   2.477   3.785   5.987 -0.9923  0.7311  1.9557
10392TIP3   OH252590   3.048   4.846   4.263 -0.2435 -0.4850 -0.3757
10392TIP3    H152591   3.067   4.772   4.206  0.1262 -1.1578  0.6094
10392TIP3    H252592   3.097   4.828   4.344  0.8832  1.4441 -0.5805
10393TIP3   OH252593   0.995   4.175  14.492 -0.0989 -0.1401  0.3163
10393TIP3    H152594   0.952   4.247  14.446 -0.7176 -0.0115  1.0995
10393TIP3    H252595   0.927   4.108  14.500 -0.1197  0.0101  1.4300
10394TIP3   OH252596   6.424   2.221   5.595 -0.3362 -0.1389 -0.3098
10394TIP3    H152597   6.375   2.281   5.651  0.8317 -0.0318  0.6159
10394TIP3    H252598   6.475   2.278   5.537 -1.0329 -0.2492 -1.0424
10395TIP3   OH252599   1.622   6.257   0.076  0.1506 -0.5254 -0.4096
10395TIP3    H152600   1.598   6.189   0.139 -2.1674  1.1135  0.5695
10395TIP3    H252601   1.563   6.242   0.001  1.3237 -1.0799 -1.2326
10396TIP3   OH252602   5.789   6.130   2.909  0.3784 -0.1348  0.0253
10396TIP3    H152603   5.783   6.223   2.888 -1.3042 -0.2812 -0.1855
10396TIP3    H252604   5.720   6.115   2.974 -0.1654 -1.4795 -0.8469
10397TIP3   OH252605   2.488   6.340  15.013  0.3650  0.1877 -0.2679
10397TIP3    H152606   2.500   6.317  15.105 -2.3403 -0.6008 -0.0579
10397TIP3    H252607   2.543   6.279  14.965 -0.9126 -1.7739  0.6750
10398TIP3   OH252608   2.769   6.324  16.679  0.2194  0.0499  0.3757
10398TIP3    H152609   2.846   6.351  16.730  1.0556 -2.3796  0.4686
10398TIP3    H252610   2.726   6.259  16.734 -0.8834  0.0425 -0.4859
10399TIP3   OH252611   1.895   3.820  15.711  0.1156  0.7645 -0.4294
10399TIP3    H152612   1.801   3.806  15.701  0.3135  0.3881 -1.8359
10399TIP3    H252613   1.902   3.890  15.775 -1.0801 -0.4228  1.0412
10400TIP3   OH252614   6.692   4.659   0.255  0.3598 -0.4459 -0.4349
10400TIP3    H152615   6.686   4.755   0.254 -0.9894 -0.5142 -0.4353
10400TIP3    H252616   6.784   4.641   0.275  0.7076  0.8463 -0.7895
10401TIP3   OH252617   2.358   6.783  13.597 -0.1985  0.1124  0.4835
10401TIP3    H152618   2.453   6.780  13.590 -0.3074 -0.2898 -0.8676
10401TIP3    H252619   2.338   6.875  13.613  0.1718  0.9167 -3.2357
10402TIP3   OH252620   3.992   2.252  16.830  0.6012  0.4164 -0.1421
10402TIP3    H152621   3.986   2.225  16.739  0.6893 -1.9066  0.5117
10402TIP3    H252622   4.046   2.332  16.828 -0.2079  0.9481 -2.1890
10403TIP3   OH252623   5.814   0.412  13.677 -0.3249 -0.3768  0.3610
10403TIP3    H152624   5.746   0.452  13.730 -1.3595  0.0228 -1.2208
10403TIP3    H252625   5.807   0.456  13.592  1.5506 -0.7015  0.0140
10404TIP3   OH252626   4.954   4.853  11.158 -0.0769  0.6878 -0.1986
10404TIP3    H152627   4.898   4.929  11.143 -2.1124 -0.2594  2.4003
10404TIP3    H252628   4.950   4.804  11.076 -2.5445  0.9768 -0.2777
10405TIP3   OH252629   1.955   3.273   3.318 -0.0621 -0.1011 -0.1758
10405TIP3    H152630   1.874   3.323   3.308  0.0354  0.6033  2.3049
10405TIP3    H252631   2.024   3.339   3.315  0.1325 -0.1913  2.1484
10406TIP3   OH252632   6.156   4.151  14.997  0.0317  0.4107 -0.0938
10406TIP3    H152633   6.166   4.219  15.064  0.0405  0.1278  0.1960
10406TIP3    H252634   6.068   4.166  14.961  0.3219  1.0356 -0.5489
10407TIP3   OH252635   0.817   3.003   6.357 -0.0808  0.1054  0.4055
10407TIP3    H152636   0.904   3.044   6.353 -0.0641  0.0986  0.7327
10407TIP3    H252637   0.758   3.073   6.383 -0.7152  0.9506 -3.0851
10408TIP3   OH252638   2.617   0.574   4.319 -0.2564  0.4346  0.3941
10408TIP3    H152639   2.676   0.618   4.380 -0.5391  1.5484 -0.1240
10408TIP3    H252640   2.561   0.521   4.375 -0.4465  1.3687  1.1104
10409TIP3   OH252641   1.953   3.345  15.526 -0.2725  0.2845 -0.1286
10409TIP3    H152642   2.008   3.312  15.597  0.0268 -0.3065 -0.6322
10409TIP3    H252643   1.882   3.392  15.570 -0.9719 -1.4325  0.6002
10410TIP3   OH252644   3.287   4.390  15.957  0.2573  0.3948 -0.3201
10410TIP3    H152645   3.298   4.392  16.053 -0.9663  1.3140 -0.1852
10410TIP3    H252646   3.345   4.459  15.925  0.8153 -0.0418 -0.2671
10411TIP3   OH252647   5.855   4.267  15.427  0.1110  0.3259  0.0717
10411TIP3    H152648   5.886   4.179  15.450  0.2936  0.7232  1.3602
10411TIP3    H252649   5.935   4.318  15.416  0.1009 -0.2106 -2.9997
10412TIP3   OH252650   2.704   3.113  14.885 -0.2786 -0.3004  0.0831
10412TIP3    H152651   2.797   3.138  14.887  0.0404 -1.2453 -1.9476
10412TIP3    H252652   2.705   3.017  14.888 -1.2621 -0.2826  1.5758
10413TIP3   OH252653   2.613   5.777   3.095  0.5435  0.3012 -0.3178
10413TIP3    H152654   2.632   5.692   3.055  0.5004  0.4653 -0.6956
10413TIP3    H252655   2.595   5.835   3.020  0.5245  0.6286 -0.0616
10414TIP3   OH252656   4.512   0.061  12.448 -0.5087  0.1019 -0.5039
10414TIP3    H152657   4.500  -0.029  12.478  0.8128 -0.2564 -1.0066
10414TIP3    H252658   4.551   0.106  12.522 -0.8812  0.1825 -0.3573
10415TIP3   OH252659   2.871   6.404   1.725 -0.2201  1.0131 -0.1085
10415TIP3    H152660   2.784   6.443   1.719 -0.7954 -0.2268  0.0676
10415TIP3    H252661   2.875   6.367   1.813 -1.3778 -3.1717 -1.7049
10416TIP3   OH252662   0.988   5.201  16.971 -0.0330 -0.3343 -0.2177
10416TIP3    H152663   1.057   5.253  17.014  0.8429 -2.7063  1.3672
10416TIP3    H252664   0.908   5.227  17.016  0.3630 -0.1584  0.4076
10417TIP3   OH252665   4.669   3.164  13.379  0.2931  0.2584  0.1642
10417TIP3    H152666   4.663   3.202  13.291 -0.1408  1.7982  0.8466
10417TIP3    H252667   4.753   3.193  13.412  0.7115 -0.8101  0.0401
10418TIP3   OH252668   5.072   5.618   2.499  0.0397  0.1917  0.5504
10418TIP3    H152669   5.071   5.559   2.574 -1.1113 -0.2577  0.1798
10418TIP3    H252670   5.075   5.561   2.423  1.9101  0.6549  0.2524
10419TIP3   OH252671   5.600   1.166  10.953 -0.1436 -0.2658 -0.1515
10419TIP3    H152672   5.518   1.172  10.905 -0.4458 -0.4861  0.3452
10419TIP3    H252673   5.665   1.146  10.885 -0.4925 -0.0890 -0.5427
10420TIP3   OH252674   0.687   6.405   4.643  0.0395 -0.4529  0.1837
10420TIP3    H152675   0.721   6.455   4.570 -0.4607 -0.3741  0.0091
10420TIP3    H252676   0.598   6.382   4.618 -0.5454  0.5846  1.2733
10421TIP3   OH252677   4.459   4.942  12.231 -0.2057  0.4000 -0.6981
10421TIP3    H152678   4.389   4.946  12.167  0.7873 -1.0074 -1.9018
10421TIP3    H252679   4.451   4.856  12.271 -0.0206  0.7686  0.1561
10422TIP3   OH252680   1.647   4.428  14.327  0.5905 -0.2291 -0.0155
10422TIP3    H152681   1.599   4.504  14.359  0.8189 -0.6217  1.2605
10422TIP3    H252682   1.622   4.422  14.234 -0.8067  0.3383  0.3040
10423TIP3   OH252683   5.475   3.529   2.723  0.1121  0.3632 -0.4721
10423TIP3    H152684   5.560   3.512   2.684  0.3862  1.5628 -0.4210
10423TIP3    H252685   5.494   3.575   2.805 -0.6136  1.7029 -1.0367
10424TIP3   OH252686   3.824   5.708  11.689 -0.5825  0.4094 -0.0976
10424TIP3    H152687   3.735   5.726  11.661 -0.5804 -1.7012 -1.5019
10424TIP3    H252688   3.816   5.682  11.781 -1.6439 -1.6190 -0.7469
10425TIP3   OH252689   2.233   1.722  15.135  0.1786 -0.4286 -0.5876
10425TIP3    H152690   2.325   1.745  15.132  1.0639 -3.5428  1.0270
10425TIP3    H252691   2.223   1.653  15.069 -0.7332 -0.9089  0.0324
10426TIP3   OH252692   5.117   6.586  16.595  0.3490 -0.1705  0.2186
10426TIP3    H152693   5.054   6.652  16.623  1.2789  1.1524 -0.7376
10426TIP3    H252694   5.072   6.538  16.525  0.2973  0.5920 -0.2740
10427TIP3   OH252695   5.268   2.031  14.258  0.0641  0.2220 -0.2072
10427TIP3    H152696   5.221   1.953  14.230 -0.9493  0.3745  1.0083
10427TIP3    H252697   5.202   2.100  14.259  0.5570  0.6982  0.4002
10428TIP3   OH252698   1.412   4.094  10.864  0.0454 -0.0412  0.3741
10428TIP3    H152699   1.415   4.060  10.775  0.1534  1.2394 -0.1178
10428TIP3    H252700   1.328   4.063  10.899 -0.1825 -0.2040 -0.3116
10429TIP3   OH252701   1.855   1.053   3.184  0.1991 -0.3667 -0.3758
10429TIP3    H152702   1.928   1.016   3.232  1.6665  2.0172 -0.6988
10429TIP3    H252703   1.867   1.148   3.190 -3.5395  0.1592  0.6334
10430TIP3   OH252704   5.642   4.869   2.887 -0.2887  0.7947 -0.7037
10430TIP3    H152705   5.582   4.818   2.941  1.6361  1.0581  1.7282
10430TIP3    H252706   5.611   4.855   2.797 -1.0058 -3.0212  0.0681
10431TIP3   OH252707   3.243   0.660   0.793 -0.3330 -0.1247  0.5583
10431TIP3    H152708   3.167   0.613   0.827 -0.1913 -0.0931  0.9191
10431TIP3    H252709   3.268   0.720   0.863  1.3506 -1.6581  1.3082
10432TIP3   OH252710   5.222   2.568   2.472  0.1671 -0.1004 -0.2942
10432TIP3    H152711   5.174   2.524   2.402 -0.1958 -0.9769  0.4879
10432TIP3    H252712   5.306   2.521   2.476 -0.8028 -1.7486  1.5449
10433TIP3   OH252713   2.598   1.000  15.420 -0.0966 -0.6930 -0.3744
10433TIP3    H152714   2.628   0.909  15.425 -0.0368 -0.5935  1.1482
10433TIP3    H252715   2.600   1.020  15.326  0.6277 -2.0146 -0.6589
10434TIP3   OH252716   5.932   3.536   5.532  0.5596 -0.1364 -0.1862
10434TIP3    H152717   5.964   3.590   5.460  1.8363 -1.9084 -0.9969
10434TIP3    H252718   5.942   3.446   5.500 -2.3886 -0.8540  0.7611
10435TIP3   OH252719   1.988   2.623   2.112  0.9425  0.5939  0.2064
10435TIP3    H152720   1.937   2.671   2.046 -0.7287 -0.3592  0.7830
10435TIP3    H252721   2.077   2.623   2.077  0.8465  3.4438 -0.1671
10436TIP3   OH252722   3.197   3.781  16.906  0.0622  0.3097  0.1493
10436TIP3    H152723   3.191   3.705  16.847  0.7785 -0.0596  0.5490
10436TIP3    H252724   3.289   3.786  16.930  0.0200  1.3328  0.1085
10437TIP3   OH252725   1.759   6.619  17.068  0.2928 -0.2829  0.2933
10437TIP3    H152726   1.845   6.656  17.048 -0.0085 -0.4786 -1.3914
10437TIP3    H252727   1.696   6.677  17.025 -0.5811  1.1507  3.3822
10438TIP3   OH252728   5.798   6.714   0.442  0.4655 -0.1062 -0.0379
10438TIP3    H152729   5.856   6.670   0.503  1.1151  1.2443  0.3509
10438TIP3    H252730   5.711   6.707   0.483  0.6055 -0.7682  0.1519
10439TIP3   OH252731   2.315   4.514  15.013  0.2585 -0.5153 -0.7572
10439TIP3    H152732   2.401   4.516  14.972  0.5357 -2.3650 -0.3140
10439TIP3    H252733   2.323   4.575  15.087  1.2533 -0.8003 -0.6152
10440TIP3   OH252734   6.648   1.737  15.615  0.3741 -0.2552 -0.2230
10440TIP3    H152735   6.630   1.665  15.555  1.7062 -0.8917  0.1393
10440TIP3    H252736   6.629   1.816  15.564 -0.8389 -0.8376 -0.7024
10441TIP3   OH252737   0.726   1.864   2.742  0.2960  0.2123  0.0262
10441TIP3    H152738   0.690   1.953   2.743  0.0860  0.1257  1.1602
10441TIP3    H252739   0.723   1.838   2.650 -2.8359  0.0930  0.0907
10442TIP3   OH252740   1.212   2.006  10.912 -0.4517  0.1781 -0.2898
10442TIP3    H152741   1.277   2.023  10.844 -0.2564 -1.7801 -0.6133
10442TIP3    H252742   1.136   1.972  10.865 -0.1243 -1.6912  0.5064
10443TIP3   OH252743   4.107   5.753   3.779  0.1461 -0.5091  0.6062
10443TIP3    H152744   4.057   5.757   3.860  0.2295  0.8153  0.5980
10443TIP3    H252745   4.181   5.695   3.799 -0.8072 -1.6495  0.9184
10444TIP3   OH252746   1.164   1.922  15.929  0.0520 -0.4202  0.5799
10444TIP3    H152747   1.173   1.827  15.933  3.4427 -0.1735  0.8848
10444TIP3    H252748   1.193   1.952  16.015  0.4839  0.9594 -0.0331
10445TIP3   OH252749   1.012   4.801   5.085 -0.7975 -0.0611  0.4562
10445TIP3    H152750   1.030   4.861   5.158 -3.0577  0.0292  0.9698
10445TIP3    H252751   0.971   4.856   5.019 -0.0494 -0.4384 -0.3341
10446TIP3   OH252752   3.320   2.829   2.068  0.1675  0.2638 -0.5028
10446TIP3    H152753   3.225   2.827   2.055  0.0696  1.0464  0.1095
10446TIP3    H252754   3.351   2.896   2.007  0.2760  0.3626 -0.3371
10447TIP3   OH252755   5.766   3.132  16.086 -0.2756 -0.0749 -0.0503
10447TIP3    H152756   5.770   3.125  15.990  0.4135 -2.7846  0.1348
10447TIP3    H252757   5.848   3.176  16.109 -1.3583  2.4438 -0.8081
10448TIP3   OH252758   1.144   6.091   0.387  0.3068  0.0674  0.3891
10448TIP3    H152759   1.093   6.094   0.468 -0.3810  0.5498 -0.0635
10448TIP3    H252760   1.108   6.162   0.333  0.3061 -0.6983 -0.6172
10449TIP3   OH252761   4.945   4.978  13.215  0.4543  0.1659  0.3414
10449TIP3    H152762   4.858   4.943  13.227  0.2835  1.0028  1.7198
10449TIP3    H252763   5.002   4.902  13.204 -0.3489 -0.3923  0.0980
10450TIP3   OH252764   1.576   3.433   0.712  0.5393  0.2104 -1.1298
10450TIP3    H152765   1.581   3.382   0.632  0.8297  0.8474 -1.5165
10450TIP3    H252766   1.500   3.490   0.700  0.6510  0.3882 -0.9958
10451TIP3   OH252767   2.448   1.842   4.872 -0.0822 -0.4103 -0.1797
10451TIP3    H152768   2.465   1.868   4.963  1.7564  1.8549 -1.1367
10451TIP3    H252769   2.532   1.813   4.839 -0.3367  0.5005 -1.6953
10452TIP3   OH252770   6.552   3.618   5.953 -0.1052 -0.3744 -0.0268
10452TIP3    H152771   6.618   3.612   6.022 -0.5742 -0.1541  0.4377
10452TIP3    H252772   6.469   3.626   5.999 -0.6276 -2.2048 -0.5908
10453TIP3   OH252773   4.898   2.320   3.846  0.0294  0.1980 -0.2708
10453TIP3    H152774   4.927   2.306   3.756 -4.0171 -1.5214 -1.4232
10453TIP3    H252775   4.863   2.410   3.845  0.4195  0.3525 -0.2747
10454TIP3   OH252776   2.237   6.191   2.021  0.2834  0.2601  0.0717
10454TIP3    H152777   2.177   6.165   1.951  0.8006  1.6039 -0.8883
10454TIP3    H252778   2.317   6.142   2.003  1.3534  2.6414 -1.9000
10455TIP3   OH252779   3.982   5.755   5.531  0.2104 -0.4586  0.1009
10455TIP3    H152780   3.995   5.793   5.444 -4.0903  0.6914 -0.1847
10455TIP3    H252781   3.993   5.828   5.591 -1.2052 -0.2521  0.1255
10456TIP3   OH252782   5.065   5.579   3.873  0.0924 -0.0878 -0.3147
10456TIP3    H152783   5.025   5.637   3.937 -0.1122  1.4577 -1.8068
10456TIP3    H252784   5.123   5.635   3.822 -0.1802 -1.1733 -1.8516
10457TIP3   OH252785   4.682   5.075   0.046  0.4874 -0.0487 -0.1038
10457TIP3    H152786   4.644   5.106   0.128  1.3147  0.3059  0.1521
10457TIP3    H252787   4.714   5.155   0.003  0.6347 -0.3037 -0.4689
10458TIP3   OH252788   3.701   0.781  15.831  0.1406  0.2652 -0.0073
10458TIP3    H152789   3.652   0.843  15.777  0.2702  1.9943  1.7762
10458TIP3    H252790   3.767   0.744  15.773  0.0411  1.7972 -1.1114
10459TIP3   OH252791   0.321   4.968   2.925 -0.2336  0.0798 -0.4522
10459TIP3    H152792   0.405   4.928   2.948 -0.6240 -0.7519 -0.4345
10459TIP3    H252793   0.331   5.061   2.946 -1.0366 -0.8227  4.3200
10460TIP3   OH252794   0.662   1.441  12.439 -0.5226 -0.2579 -0.1412
10460TIP3    H152795   0.629   1.383  12.371 -0.0596 -2.7645  1.7200
10460TIP3    H252796   0.758   1.437  12.430 -0.4783  0.0958  0.1416
10461TIP3   OH252797   4.071   1.635   2.575  0.3777  0.0587 -0.5938
10461TIP3    H152798   4.084   1.661   2.484 -0.3250  1.9183 -0.1832
10461TIP3    H252799   4.156   1.648   2.616  0.0687  1.6241 -0.4265
10462TIP3   OH252800   2.808   1.203  16.627  0.3230  0.1972  0.3605
10462TIP3    H152801   2.828   1.288  16.586  1.2061  0.1046  0.5849
10462TIP3    H252802   2.720   1.181  16.596  0.3035  0.9461 -0.1200
10463TIP3   OH252803   2.106   2.238   0.550  0.3254  0.2108 -0.1773
10463TIP3    H152804   2.036   2.178   0.521  0.1393  0.4486 -0.2223
10463TIP3    H252805   2.171   2.180   0.589 -0.6812  0.1245  1.4264
10464TIP3   OH252806   6.133   0.032  17.099 -0.2384  0.0815  0.3583
10464TIP3    H152807   6.059   0.050  17.158 -0.3846 -1.8620  0.8094
10464TIP3    H252808   6.125  -0.061  17.079 -0.2338  0.7295 -2.8341
10465TIP3   OH252809   2.409   5.622  14.616  0.2741  0.1797 -0.0363
10465TIP3    H152810   2.491   5.635  14.663  0.9155  0.6179 -1.2593
10465TIP3    H252811   2.347   5.683  14.657  0.6437  0.0915  0.6576
10466TIP3   OH252812   3.103   3.177  12.064  0.3290  0.2141 -0.0663
10466TIP3    H152813   3.190   3.204  12.035  1.6937 -1.8192  1.9422
10466TIP3    H252814   3.077   3.109  12.001  0.3052  0.6344 -0.5134
10467TIP3   OH252815   5.473   2.979   2.131  1.0424  0.4540 -0.0194
10467TIP3    H152816   5.551   2.986   2.187  0.9547 -0.7173  0.2609
10467TIP3    H252817   5.406   2.942   2.188  1.8372 -3.8972 -1.6765
10468TIP3   OH252818   1.079   1.373  14.775  0.2728  0.1173 -0.0497
10468TIP3    H152819   1.101   1.398  14.864 -0.0050  1.1650 -0.2663
10468TIP3    H252820   1.155   1.324  14.744  0.0126 -0.9790  1.0449
10469TIP3   OH252821   0.379   1.031   2.700  0.6535  0.0814  0.5658
10469TIP3    H152822   0.283   1.025   2.705  0.6811  0.2059  1.4209
10469TIP3    H252823   0.404   1.069   2.784  1.5329 -1.0106  0.8146
10470TIP3   OH252824   6.129   6.024  13.346  0.3183  0.0106  0.5140
10470TIP3    H152825   6.044   5.987  13.322  0.4785  0.9967 -1.5816
10470TIP3    H252826   6.191   5.953  13.329  0.2625  0.2452 -0.7034
10471TIP3   OH252827   1.468   2.446   1.546  0.1983  0.0803 -0.5596
10471TIP3    H152828   1.424   2.391   1.481 -1.3401  1.2045 -0.4903
10471TIP3    H252829   1.440   2.411   1.630  0.0839  0.2940 -0.5094
10472TIP3   OH252830   4.382   5.436  12.546  0.1742 -0.7716 -0.4818
10472TIP3    H152831   4.302   5.460  12.595  1.2783  1.0992  0.4814
10472TIP3    H252832   4.388   5.502  12.477 -0.1282 -2.0587 -1.7680
10473TIP3   OH252833   4.822   3.295   4.800  0.2227  0.2593 -0.0584
10473TIP3    H152834   4.914   3.323   4.795 -0.1141  1.4403  0.1860
10473TIP3    H252835   4.813   3.258   4.887  0.0340  1.7582  0.5693
10474TIP3   OH252836   0.227   0.782   3.367 -0.2940  0.5667 -0.2920
10474TIP3    H152837   0.169   0.705   3.368  0.6266 -0.1305 -0.4976
10474TIP3    H252838   0.302   0.756   3.421 -0.4765  1.7147  0.5299
10475TIP3   OH252839   3.232   2.034   1.404 -0.6095 -0.3079 -0.0326
10475TIP3    H152840   3.245   2.124   1.372 -2.2225 -0.3347 -0.7934
10475TIP3    H252841   3.311   2.016   1.455  2.3318 -0.4076 -4.3044
10476TIP3   OH252842   2.938   1.625   3.074 -0.8069  0.0690 -0.4664
10476TIP3    H152843   3.017   1.571   3.070  0.3248  1.5298  1.1828
10476TIP3    H252844   2.943   1.679   2.996  0.7410  1.3102  0.4428
10477TIP3   OH252845   3.557   4.624  16.506  0.1294  0.1746 -0.1691
10477TIP3    H152846   3.640   4.649  16.466 -0.7873 -1.7092 -3.3977
10477TIP3    H252847   3.512   4.707  16.521  2.0730  1.1519  0.5386
10478TIP3   OH252848   3.055   3.070  16.296  0.9558 -0.1583 -0.2553
10478TIP3    H152849   3.147   3.064  16.322  0.9759  1.7462  0.2340
10478TIP3    H252850   3.055   3.130  16.222  0.1230 -0.2763 -0.3530
10479TIP3   OH252851   3.199   3.950  12.558  0.9388  0.1247 -0.0455
10479TIP3    H152852   3.171   3.923  12.470 -1.3823 -0.5285  0.8612
10479TIP3    H252853   3.232   3.870  12.598 -2.2593 -0.6319  1.2430
10480TIP3   OH252854   2.878   1.206   6.005  0.4166 -0.2718 -0.3049
10480TIP3    H152855   2.962   1.177   5.969  0.4440 -1.0360  0.3607
10480TIP3    H252856   2.900   1.246   6.089  0.6274  3.6804 -2.1404
10481TIP3   OH252857   0.842   4.133  16.270  0.3986  0.5455 -0.4498
10481TIP3    H152858   0.900   4.189  16.219  0.0927  0.2023 -1.1885
10481TIP3    H252859   0.872   4.044  16.251 -0.0239  0.3918 -0.4071
10482TIP3   OH252860   4.732   2.418   5.819  0.1076 -0.0295 -0.0706
10482TIP3    H152861   4.700   2.411   5.909  0.2481  0.6866  0.0396
10482TIP3    H252862   4.686   2.494   5.784 -2.1424 -2.0153 -1.5324
10483TIP3   OH252863   1.294   2.260   3.144 -0.3048  0.7878  0.3343
10483TIP3    H152864   1.250   2.186   3.185  0.4144 -0.7553 -1.6241
10483TIP3    H252865   1.226   2.304   3.093 -0.8347  1.7764  1.8567
10484TIP3   OH252866   3.707   6.172   3.153 -0.5971  0.0397  1.0656
10484TIP3    H152867   3.752   6.132   3.228  0.7609 -2.6213 -1.0611
10484TIP3    H252868   3.624   6.124   3.146 -0.2058 -0.5307  0.1989
10485TIP3   OH252869   4.633   5.604   0.736  0.1922  0.3542  0.2607
10485TIP3    H152870   4.698   5.675   0.737 -0.9926  1.4650  0.9990
10485TIP3    H252871   4.555   5.644   0.698 -1.7841  0.6776  4.3551
10486TIP3   OH252872   1.845   3.054  17.136 -0.7329  0.0434  0.4434
10486TIP3    H152873   1.781   3.018  17.074 -1.8283 -0.3433  1.7843
10486TIP3    H252874   1.923   3.070  17.082 -0.7151 -2.8724 -0.5195
10487TIP3   OH252875   1.908   0.498   1.165 -0.1139  0.4980 -0.3148
10487TIP3    H152876   1.984   0.492   1.107  0.2326  2.3209 -0.0893
10487TIP3    H252877   1.845   0.436   1.129  0.7125  0.4384 -1.6819
10488TIP3   OH252878   3.198   2.263  14.064  0.2765  0.2730  0.3153
10488TIP3    H152879   3.167   2.216  13.986  0.4445 -0.7181  0.8341
10488TIP3    H252880   3.240   2.195  14.117  2.1833  1.3632  0.2238
10489TIP3   OH252881   1.325   4.707   2.540 -0.8123 -0.0438  0.2226
10489TIP3    H152882   1.331   4.619   2.576 -1.8813 -0.5038 -0.7029
10489TIP3    H252883   1.372   4.762   2.602  0.5852 -1.3948  0.3720
10490TIP3   OH252884   5.297   2.343  12.157 -0.0761  0.1219 -0.4081
10490TIP3    H152885   5.373   2.389  12.192  0.3071 -0.8070 -0.0044
10490TIP3    H252886   5.331   2.258  12.128 -0.5307  0.5723 -2.3348
10491TIP3   OH252887   5.965   4.644  15.850 -0.3600  0.1426 -0.0103
10491TIP3    H152888   5.917   4.652  15.932  1.6153  1.5880  1.0316
10491TIP3    H252889   5.960   4.551  15.828 -0.8706 -0.2608  1.7603
10492TIP3   OH252890   3.239   5.901  13.125  0.0775  0.0627  0.0264
10492TIP3    H152891   3.288   5.822  13.103  1.5680  0.9689  0.0571
10492TIP3    H252892   3.288   5.941  13.197 -0.5963  1.0724 -0.0660
10493TIP3   OH252893   3.061   1.117  12.491 -0.5801  0.2364  0.5162
10493TIP3    H152894   3.144   1.079  12.461 -1.3801 -0.9421 -0.2467
10493TIP3    H252895   3.084   1.206  12.517  0.7556  0.2499 -0.6061
10494TIP3   OH252896   0.020   0.582   4.077 -0.0231  0.3219  0.4454
10494TIP3    H152897   0.033   0.614   4.167 -0.9225 -0.3543  0.8221
10494TIP3    H252898  -0.075   0.573   4.069  0.1831 -1.9708  0.2565
10495TIP3   OH252899   3.395   6.553   0.418  0.5219 -0.5771 -0.3376
10495TIP3    H152900   3.441   6.485   0.468  3.1672  0.4495 -1.3070
10495TIP3    H252901   3.374   6.620   0.484 -1.5782 -1.9979  0.5104
10496TIP3   OH252902   1.580   2.808  15.904 -0.4995 -0.2171 -0.0503
10496TIP3    H152903   1.587   2.841  15.814 -0.0473 -0.4413 -0.0970
10496TIP3    H252904   1.529   2.728  15.896 -0.9712  0.0771 -0.0295
10497TIP3   OH252905   1.703   2.288  12.714  0.0042 -0.6139  0.3969
10497TIP3    H152906   1.744   2.331  12.639  0.7237  0.2414  1.2649
10497TIP3    H252907   1.767   2.223  12.743 -0.1455 -0.7302  0.4681
10498TIP3   OH252908   1.238   0.869   3.893 -0.2035  0.9150  0.1719
10498TIP3    H152909   1.200   0.785   3.868  1.4660  0.4239 -0.8009
10498TIP3    H252910   1.167   0.932   3.882 -1.7541 -0.4886  1.8604
10499TIP3   OH252911   2.663   4.327  10.955 -0.3635 -0.7528  0.7030
10499TIP3    H152912   2.645   4.295  10.867 -0.3619 -2.0284  1.1526
10499TIP3    H252913   2.728   4.395  10.943 -2.5215  1.1536 -0.5654
10500TIP3   OH252914   2.364   2.103   1.575 -0.2249 -0.1875 -0.0449
10500TIP3    H152915   2.348   2.112   1.669  0.6062  0.4478  0.0359
10500TIP3    H252916   2.383   2.011   1.562  1.3767  0.0395  0.6730
10501TIP3   OH252917   6.060   1.096   2.556  0.3152 -0.1272  0.3099
10501TIP3    H152918   6.113   1.018   2.577  0.8883  0.8818  2.7915
10501TIP3    H252919   6.017   1.073   2.474  2.6807 -1.9554 -0.5098
10502TIP3   OH252920   2.701   5.920   5.522 -1.0770  0.3590  0.5585
10502TIP3    H152921   2.606   5.910   5.519 -0.9490 -0.7595 -0.0066
10502TIP3    H252922   2.733   5.836   5.557 -0.2545  0.4501  0.0337
10503TIP3   OH252923   2.756   0.784  13.237  0.6375  0.0926  0.4527
10503TIP3    H152924   2.841   0.762  13.198  0.2042  0.6440 -0.8476
10503TIP3    H252925   2.745   0.721  13.308  1.8131 -0.4371  0.1796
10504TIP3   OH252926   0.244   1.685   2.182 -0.0737 -0.3895 -0.3049
10504TIP3    H152927   0.228   1.638   2.264  0.0854 -2.0374 -1.1934
10504TIP3    H252928   0.228   1.620   2.113  0.4601  0.7748 -1.5609
10505TIP3   OH252929   1.998   5.310  14.470 -0.6501  0.5655 -0.0788
10505TIP3    H152930   1.905   5.327  14.461 -0.6475  0.8656  0.3989
10505TIP3    H252931   2.018   5.336  14.560 -0.5438 -1.5402  0.5356
10506TIP3   OH252932   2.995   3.416  12.107 -0.1521  0.0828 -0.4829
10506TIP3    H152933   3.005   3.426  12.012 -1.8144 -2.1166 -0.9465
10506TIP3    H252934   3.039   3.334  12.127 -2.2263 -0.9090  0.1596
10507TIP3   OH252935   1.713   6.734  13.899  0.2046 -0.2299  0.3981
10507TIP3    H152936   1.660   6.758  13.976 -0.0309  1.0872 -0.1612
10507TIP3    H252937   1.781   6.677  13.934 -0.3705 -0.2855  1.4636
10508TIP3   OH252938   2.932   1.201   3.311 -0.2136 -0.4456  0.1934
10508TIP3    H152939   2.916   1.110   3.335 -1.7020 -0.1519  0.3471
10508TIP3    H252940   3.023   1.217   3.337 -0.5806 -1.2843  2.0531
10509TIP3   OH252941   6.779   1.853   0.791 -0.2174  0.1359 -0.1207
10509TIP3    H152942   6.868   1.840   0.824 -0.7693 -2.6262  0.3716
10509TIP3    H252943   6.736   1.908   0.857  1.1910  1.8321 -0.5663
10510TIP3   OH252944   3.947   6.272   5.201 -0.2775 -0.8166 -0.0369
10510TIP3    H152945   3.973   6.265   5.293 -0.6077 -2.1691 -0.0435
10510TIP3    H252946   4.025   6.246   5.153  0.4489  1.5108 -0.2020
10511TIP3   OH252947   1.768   6.015   3.361  0.3610 -0.2653 -0.2883
10511TIP3    H152948   1.705   6.084   3.340  0.1131 -0.5237 -0.3861
10511TIP3    H252949   1.768   5.957   3.285  1.9674  0.6511 -1.0097
10512TIP3   OH252950   2.908   4.045  17.063 -0.4391 -0.2587  0.3142
10512TIP3    H152951   2.942   4.012  17.146 -0.8081 -1.1589  0.1139
10512TIP3    H252952   2.813   4.040  17.072 -0.4949  0.6162  0.2222
10513TIP3   OH252953   2.370   1.814  13.129 -0.0908  0.5229  0.8165
10513TIP3    H152954   2.446   1.836  13.183  0.3282  0.8892  0.1035
10513TIP3    H252955   2.406   1.760  13.058 -0.4156  1.0481  0.2379
10514TIP3   OH252956   1.944   1.851  15.283  0.2091  0.4002  0.1468
10514TIP3    H152957   1.937   1.755  15.281  0.6265  0.3832 -0.6387
10514TIP3    H252958   1.920   1.878  15.194  0.9152  0.9681  0.1257
10515TIP3   OH252959   0.080   0.147  11.250 -0.4286  0.1607 -0.3019
10515TIP3    H152960   0.169   0.176  11.269  0.5127 -0.9509 -2.7810
10515TIP3    H252961   0.063   0.078  11.314  0.4227  0.4646  0.2622
10516TIP3   OH252962   3.938   6.151   3.982 -0.4779  0.5796  0.3778
10516TIP3    H152963   3.933   6.082   4.048 -2.6711  0.2943 -0.0517
10516TIP3    H252964   3.866   6.132   3.922 -1.2581  3.3400  0.3746
10517TIP3   OH252965   4.928   4.657  11.365  0.9076  0.1596 -0.2429
10517TIP3    H152966   4.949   4.717  11.294  0.1741  0.5418 -0.1424
10517TIP3    H252967   4.835   4.637  11.353  1.2634 -1.3624 -0.5914
10518TIP3   OH252968   4.805   3.796  13.754  0.0373  0.1338 -0.3252
10518TIP3    H152969   4.771   3.883  13.771 -0.1809  0.0248 -0.2017
10518TIP3    H252970   4.728   3.743  13.733  0.0508 -0.2567  0.5592
10519TIP3   OH252971   5.963   4.314   4.264  0.1364  0.1202 -0.5373
10519TIP3    H152972   5.968   4.270   4.349  0.6635 -0.0544 -0.6586
10519TIP3    H252973   5.888   4.373   4.272 -1.0188 -1.3242 -0.6171
10520TIP3   OH252974   4.731   2.925   5.521  0.0665 -0.4519  0.6294
10520TIP3    H152975   4.767   2.976   5.449 -0.6110  1.0880  1.3642
10520TIP3    H252976   4.691   2.989   5.579 -2.6719 -1.9945  0.5321
10521TIP3   OH252977   4.043   6.754   1.946 -0.4184  0.3913  0.2450
10521TIP3    H152978   3.999   6.708   1.874 -0.7775 -0.4476  0.9952
10521TIP3    H252979   4.129   6.713   1.952 -0.5304  0.2024  0.5500
10522TIP3   OH252980   0.826   4.079   1.602 -0.0016  0.7681  0.0917
10522TIP3    H152981   0.870   3.995   1.616 -1.4930  0.1016  0.9233
10522TIP3    H252982   0.897   4.142   1.598  1.0690 -0.3296  1.0597
10523TIP3   OH252983   3.177   1.531  16.409 -0.4628  0.2959  0.4147
10523TIP3    H152984   3.102   1.505  16.356 -0.5560 -0.1837  0.7731
10523TIP3    H252985   3.207   1.612  16.369 -1.6449  0.9085  0.7235
10524TIP3   OH252986   3.913   3.304  16.354 -0.4723 -0.1352  0.1864
10524TIP3    H152987   4.008   3.296  16.365 -0.4623 -0.3190 -0.0294
10524TIP3    H252988   3.878   3.219  16.380 -0.5983  0.0043  0.4805
10525TIP3   OH252989   3.670   5.413   5.720 -0.8266  0.7508 -0.2873
10525TIP3    H152990   3.758   5.404   5.757 -1.5011 -0.0037  1.1459
10525TIP3    H252991   3.670   5.501   5.681  0.2553  1.1251  0.5170
10526TIP3   OH252992   4.364   0.268   6.149  0.7748  0.2533  0.1204
10526TIP3    H152993   4.373   0.347   6.096  0.0585  0.8763  0.8966
10526TIP3    H252994   4.395   0.294   6.236 -1.8093  0.4299  1.0277
10527TIP3   OH252995   4.288   6.764  15.428 -0.0375  0.4710  0.3091
10527TIP3    H152996   4.324   6.781  15.341  0.1854 -0.1969  0.2705
10527TIP3    H252997   4.322   6.678  15.452 -2.1053 -0.4609  0.0130
10528TIP3   OH252998   3.728   3.071   4.929 -0.0475 -0.0446  0.7486
10528TIP3    H152999   3.808   3.108   4.965 -0.1993  3.5196 -2.3186
10528TIP3    H253000   3.758   3.004   4.868  0.6558  1.3689 -0.4902
10529TIP3   OH253001   4.986   0.909  11.792  0.2049 -0.2056  0.0288
10529TIP3    H153002   5.016   0.956  11.869  1.6795 -0.9718 -0.0611
10529TIP3    H253003   4.895   0.888  11.811  0.6430 -0.6772  1.6933
10530TIP3   OH253004   1.534   2.496  12.298 -0.1214 -0.3346  0.2451
10530TIP3    H153005   1.478   2.571  12.317  0.0930  0.3903 -1.8694
10530TIP3    H253006   1.478   2.437  12.248 -0.4797 -1.9212  2.4107
10531TIP3   OH253007   0.602   1.231  12.908  0.2681  0.6943  0.3401
10531TIP3    H153008   0.617   1.143  12.873  0.0151  0.4956  0.7296
10531TIP3    H253009   0.645   1.289  12.845  0.0471  0.3208 -0.1575
10532TIP3   OH253010   3.119   0.410   4.652  0.5320  0.2328  0.0840
10532TIP3    H153011   3.156   0.324   4.674  1.4958 -0.4899 -3.9258
10532TIP3    H253012   3.158   0.469   4.716  1.7136 -1.9480  1.4649
10533TIP3   OH253013   4.676   4.889  13.282  0.5491 -0.3057  0.5576
10533TIP3    H153014   4.622   4.829  13.231  1.8884 -0.2212 -1.0186
10533TIP3    H253015   4.619   4.964  13.300 -0.3659 -0.9542  0.4074
10534TIP3   OH253016   3.560   4.553   1.084 -0.3472  0.2156 -0.1711
10534TIP3    H153017   3.478   4.579   1.042  0.1718 -0.4104 -1.6041
10534TIP3    H253018   3.554   4.458   1.092 -0.2763  0.2931  0.8161
10535TIP3   OH253019   4.722   4.071  17.056  0.1771  0.1112 -0.9434
10535TIP3    H153020   4.727   4.010  17.130 -2.8617  0.7543 -0.1295
10535TIP3    H253021   4.673   4.023  16.989 -2.1171  1.5227 -0.3450
10536TIP3   OH253022   3.600   6.021   6.589 -0.4809  0.5652  0.4559
10536TIP3    H153023   3.627   6.038   6.679 -2.0228  0.6973  0.8999
10536TIP3    H253024   3.514   6.062   6.581  0.1383  1.5836 -1.4357
10537TIP3   OH253025   4.062   4.585   2.880  0.3070 -0.4811  0.5060
10537TIP3    H153026   4.156   4.601   2.891  0.2947  0.0753 -0.1871
10537TIP3    H253027   4.044   4.611   2.790 -0.4837 -0.7472  0.5880
10538TIP3   OH253028   0.032   3.658  15.807 -0.1597 -0.1250 -0.1187
10538TIP3    H153029   0.114   3.621  15.841 -0.8423  0.3741  2.1008
10538TIP3    H253030   0.060   3.733  15.754  0.7374  1.0091  1.9299
10539TIP3   OH253031   2.457   6.404  17.111  0.1339  0.9248  0.2557
10539TIP3    H153032   2.457   6.447  17.196 -1.8070  2.4719 -0.4997
10539TIP3    H253033   2.382   6.345  17.114  1.4730 -0.8250  0.4601
10540TIP3   OH253034   3.532   2.756  14.966  0.2271  0.1033  0.4276
10540TIP3    H153035   3.518   2.781  14.874  0.7062 -0.7408  0.1242
10540TIP3    H253036   3.540   2.661  14.964 -2.1811 -0.1523  1.6768
10541TIP3   OH253037   6.718   2.679   0.103  0.8417 -0.0685  0.3040
10541TIP3    H153038   6.632   2.718   0.090  1.0817  0.7801  1.1325
10541TIP3    H253039   6.712   2.592   0.064 -0.9004 -0.6396  1.7748
10542TIP3   OH253040   4.119   2.942  12.849 -0.0824 -0.2721  0.0250
10542TIP3    H153041   4.031   2.916  12.875 -0.2624  1.4995  1.3360
10542TIP3    H253042   4.130   2.906  12.761 -2.3630  0.0160 -0.4221
10543TIP3   OH253043   1.888   4.483   4.786 -0.4911 -0.8274 -0.4943
10543TIP3    H153044   1.836   4.476   4.866 -1.0042 -1.5730 -0.8915
10543TIP3    H253045   1.857   4.412   4.730 -0.3215 -0.1482 -1.4706
10544TIP3   OH253046   0.063   2.026   3.896 -0.0862 -0.4824 -0.1037
10544TIP3    H153047   0.089   2.084   3.968 -0.2638 -1.6518  0.9163
10544TIP3    H253048   0.112   2.058   3.821  1.9904 -0.7429  1.0884
10545TIP3   OH253049   1.267   1.902  11.736 -0.6573 -0.0434 -0.0553
10545TIP3    H153050   1.343   1.919  11.791 -1.1663 -1.9883  1.2753
10545TIP3    H253051   1.302   1.854  11.661 -0.3352  0.4799 -0.2422
10546TIP3   OH253052   3.716   5.438   2.461  0.5681 -0.7951  0.1536
10546TIP3    H153053   3.733   5.504   2.528 -0.2505 -1.5237  1.0736
10546TIP3    H253054   3.645   5.475   2.408  0.5501 -0.6566  0.2753
10547TIP3   OH253055   0.123   2.715  13.984 -0.3982  0.7113  0.1233
10547TIP3    H153056   0.190   2.754  14.042 -0.5360  0.3844  0.5021
10547TIP3    H253057   0.086   2.644  14.035 -1.6880  1.4759  0.2727
10548TIP3   OH253058   1.772   1.523  14.838 -0.0533  0.0750 -0.0879
10548TIP3    H153059   1.734   1.528  14.926 -0.2391 -0.6789 -0.1249
10548TIP3    H253060   1.731   1.596  14.790 -1.5480 -0.7755 -0.1559
10549TIP3   OH253061   2.335   0.195   6.308 -0.1906 -0.1759  0.5205
10549TIP3    H153062   2.281   0.271   6.327 -2.5087 -1.7332  0.4243
10549TIP3    H253063   2.310   0.131   6.375  0.3212 -1.5091 -0.5428
10550TIP3   OH253064   3.243   1.706  11.328 -0.3066 -0.4684  0.0612
10550TIP3    H153065   3.167   1.649  11.317 -0.6352 -0.0434  0.1098
10550TIP3    H253066   3.251   1.717  11.423 -0.3344 -0.3158  0.0461
10551TIP3   OH253067   6.089   6.433  14.968  0.0070 -0.3303 -0.6411
10551TIP3    H153068   6.015   6.443  15.027  2.0083 -1.7508  2.1683
10551TIP3    H253069   6.118   6.523  14.951 -1.6646  0.1720 -0.9586
10552TIP3   OH253070   0.399   4.838  12.466  0.0871  0.2421  0.0877
10552TIP3    H153071   0.456   4.862  12.393  0.7755  0.1342  0.5851
10552TIP3    H253072   0.314   4.877  12.444 -0.1598 -1.2106 -1.5771
10553TIP3   OH253073   2.304   1.455  13.758  0.0155 -0.1152  0.4409
10553TIP3    H153074   2.379   1.482  13.705 -0.6869 -0.2741 -0.6528
10553TIP3    H253075   2.313   1.360  13.766  1.2440  0.1451  2.3642
10554TIP3   OH253076   1.590   2.696  14.036 -0.1478 -0.3488  0.2173
10554TIP3    H153077   1.624   2.785  14.040 -1.5431  0.1792  0.5409
10554TIP3    H253078   1.581   2.679  13.942  0.6047 -0.3399  0.1411
10555TIP3   OH253079   5.489   5.330   1.438 -0.2844 -0.2716 -0.2859
10555TIP3    H153080   5.444   5.308   1.520 -2.6559 -3.4012 -2.3223
10555TIP3    H253081   5.578   5.354   1.466 -1.4670  0.3189  3.3045
10556TIP3   OH253082   6.532   5.207   0.414 -0.2050  0.1487 -0.4900
10556TIP3    H153083   6.469   5.279   0.420 -0.9451 -0.4987 -0.3103
10556TIP3    H253084   6.508   5.161   0.333 -0.3400 -0.4495 -0.1130
10557TIP3   OH253085   2.156   0.188  16.373  0.3186  0.4447 -0.0288
10557TIP3    H153086   2.152   0.228  16.460  2.0600 -0.7764  0.6512
10557TIP3    H253087   2.181   0.259  16.315 -1.5215  1.4244  0.3430
10558TIP3   OH253088   0.015   0.206  13.538  0.2640 -0.1948 -0.4541
10558TIP3    H153089  -0.041   0.192  13.462  0.0976 -1.6090 -0.1015
10558TIP3    H253090   0.092   0.151  13.522 -0.2465 -1.3336  0.8533
10559TIP3   OH253091   0.329   3.355  16.042  0.1285 -0.2111 -0.3300
10559TIP3    H153092   0.408   3.406  16.059 -1.8509  2.5492  0.9309
10559TIP3    H253093   0.345   3.271  16.085  2.0060  0.6463  0.7103
10560TIP3   OH253094   3.486   4.339   1.394 -0.5954  0.0476  0.4558
10560TIP3    H153095   3.458   4.392   1.469  0.5123  0.9652  0.2295
10560TIP3    H253096   3.551   4.279   1.431 -1.9679 -1.2957  0.7463
10561TIP3   OH253097   0.493   0.776  13.617 -0.0901  0.1936  0.1782
10561TIP3    H153098   0.523   0.818  13.537  1.0969  1.3216  1.1758
10561TIP3    H253099   0.567   0.721  13.644 -0.1587  0.4697  0.9351
10562TIP3   OH253100   4.700   4.904   1.267 -0.2143 -0.2067 -0.0721
10562TIP3    H153101   4.780   4.860   1.239 -0.1815  1.0075 -2.0185
10562TIP3    H253102   4.637   4.833   1.279  1.0131 -1.1318  1.0103
10563TIP3   OH253103   0.082   4.622   0.887 -0.1174  0.4225 -0.5608
10563TIP3    H153104   0.046   4.710   0.891 -2.8058 -0.6577  0.0604
10563TIP3    H253105   0.149   4.620   0.956 -2.8740  0.8048  2.2616
10564TIP3   OH253106   3.837   2.642  11.876 -0.6390 -0.6676 -0.2193
10564TIP3    H153107   3.766   2.608  11.821 -1.9849  2.1343 -0.3253
10564TIP3    H253108   3.909   2.657  11.816 -0.9685 -0.7333 -0.6369
10565TIP3   OH253109   6.123   6.085   2.064 -0.3101 -0.1090  0.0732
10565TIP3    H153110   6.029   6.101   2.059 -0.4099 -1.3245 -2.6607
10565TIP3    H253111   6.134   5.995   2.036  1.8409  0.5792 -1.4171
10566TIP3   OH253112   0.028   3.437  13.999 -0.1344 -0.3694 -0.3562
10566TIP3    H153113   0.098   3.450  14.063  0.8380  1.4879 -1.7350
10566TIP3    H253114   0.057   3.361  13.947  0.1241 -0.5375  0.0293
10567TIP3   OH253115   1.587   3.273   5.706 -0.8401  0.1081 -0.1786
10567TIP3    H153116   1.531   3.257   5.782  1.8701 -0.4280  1.7624
10567TIP3    H253117   1.601   3.187   5.668  0.6608 -0.0942  0.8048
10568TIP3   OH253118   2.930   2.333  17.239  0.1281 -0.0453  0.1873
10568TIP3    H153119   2.854   2.335  17.181  0.0337  0.7989  0.3341
10568TIP3    H253120   2.927   2.247  17.280  0.9722 -1.2238 -2.1007
10569TIP3   OH253121   6.232   1.490   4.499 -0.0324  0.1889 -0.3282
10569TIP3    H153122   6.153   1.494   4.444  0.7807  2.7522 -1.3739
10569TIP3    H253123   6.305   1.488   4.436  0.8262  0.6817  0.6421
10570TIP3   OH253124   2.103   2.294  12.219  0.3608 -0.1993 -0.0832
10570TIP3    H153125   2.130   2.353  12.149 -0.1955 -0.1145 -0.2271
10570TIP3    H253126   2.153   2.214  12.204  0.1128 -0.2434 -0.6759
10571TIP3   OH253127   2.157   1.808   3.377 -0.2224 -0.0969 -0.1746
10571TIP3    H153128   2.112   1.758   3.446  0.4480 -2.3558 -1.3230
10571TIP3    H253129   2.089   1.829   3.314 -0.9970  2.6491  1.4797
10572TIP3   OH253130   0.947   6.540  13.147 -0.0557  0.4482  0.5125
10572TIP3    H153131   0.863   6.558  13.189  1.0620  2.6953  1.8376
10572TIP3    H253132   0.924   6.517  13.057 -2.1900 -0.5826  1.2899
10573TIP3   OH253133   5.410   5.543  12.297  0.7422  0.2560  0.0598
10573TIP3    H153134   5.445   5.599  12.367  2.0573 -3.0722  2.1793
10573TIP3    H253135   5.317   5.533  12.318  1.0088 -0.2499  1.0398
10574TIP3   OH253136   0.969   0.015   5.486 -0.0455 -0.4603 -0.6379
10574TIP3    H153137   0.877  -0.003   5.467 -0.1258 -0.3656 -0.3382
10574TIP3    H253138   0.968   0.101   5.529  0.3893  0.5361 -2.5750
10575TIP3   OH253139   4.586   2.560  11.997  0.2496 -0.1421 -1.0189
10575TIP3    H153140   4.664   2.610  12.020 -0.7199  0.7202  0.4391
10575TIP3    H253141   4.527   2.570  12.072 -1.9928  0.7017 -2.8348
10576TIP3   OH253142   1.783   3.490  10.154 -0.0045  0.1115 -0.3595
10576TIP3    H153143   1.742   3.436  10.087 -1.3336  1.2336 -0.4732
10576TIP3    H253144   1.761   3.580  10.129  1.1088  0.6295  0.5167
10577TIP3   OH253145   3.991   3.055  10.706 -0.4473  0.4814  0.0895
10577TIP3    H153146   3.920   3.076  10.767 -0.8757  2.3138 -0.9997
10577TIP3    H253147   3.949   3.053  10.620  0.5016 -0.1968 -0.3705
10578TIP3   OH253148   6.253   4.281   0.690 -0.1193 -0.0858  0.0982
10578TIP3    H153149   6.249   4.198   0.737 -0.7154 -0.4142 -0.5073
10578TIP3    H253150   6.163   4.296   0.661  0.2150  0.1626 -0.8300
10579TIP3   OH253151   1.139   1.065  15.115 -0.2583 -0.1081 -0.4251
10579TIP3    H153152   1.225   1.023  15.117  0.3327  1.1072  0.9514
10579TIP3    H253153   1.105   1.047  15.028  2.1548  0.9175 -1.6205
10580TIP3   OH253154   4.591   3.613  12.043 -0.2828 -0.1746 -0.8194
10580TIP3    H153155   4.612   3.524  12.072  0.0350  0.2913  0.3817
10580TIP3    H253156   4.578   3.662  12.124 -0.4357  0.8853 -1.4858
10581TIP3   OH253157   3.558   1.500  14.658  0.3829 -0.3980  0.1273
10581TIP3    H153158   3.507   1.422  14.678  0.9749 -1.1893 -1.3832
10581TIP3    H253159   3.625   1.503  14.726  1.3449 -2.1114 -0.7197
10582TIP3   OH253160   2.510   1.193   2.937  0.1747 -0.3719  0.5509
10582TIP3    H153161   2.555   1.227   2.861  0.0853  1.9161  1.4916
10582TIP3    H253162   2.434   1.146   2.902 -1.3644  2.9121 -0.7000
10583TIP3   OH253163   5.461   6.234   4.889  0.3353 -0.0733  0.0606
10583TIP3    H153164   5.373   6.269   4.893 -0.2569 -1.4118 -0.8659
10583TIP3    H253165   5.518   6.312   4.883 -0.8931  0.7537 -1.2677
10584TIP3   OH253166   2.640   4.700   4.654  0.6546 -0.8815 -0.8206
10584TIP3    H153167   2.625   4.641   4.580 -2.1943  0.5540 -1.4433
10584TIP3    H253168   2.558   4.697   4.704  1.4177  0.5975  0.5563
10585TIP3   OH253169   1.242   2.952  11.861  0.0194 -0.8975 -0.1326
10585TIP3    H153170   1.146   2.947  11.863  0.0142 -0.9831 -0.6778
10585TIP3    H253171   1.262   3.041  11.891 -0.2440 -0.7438 -0.4147
10586TIP3   OH253172   4.675   5.951  16.777 -0.0753 -0.2352 -0.4022
10586TIP3    H153173   4.757   5.963  16.824 -0.5214 -1.6085  0.7787
10586TIP3    H253174   4.607   5.979  16.840 -0.6429 -1.5963 -0.3900
10587TIP3   OH253175   3.131   3.118   3.990 -0.3071  0.2977  0.2824
10587TIP3    H153176   3.038   3.102   3.974 -0.1824 -1.6354  1.4031
10587TIP3    H253177   3.168   3.032   4.011  1.5391  1.1927  0.8558
10588TIP3   OH253178   2.212   6.691  17.061  0.3485 -0.1291 -0.7190
10588TIP3    H153179   2.206   6.596  17.052  1.0312 -0.2085 -0.3452
10588TIP3    H253180   2.208   6.724  16.971  1.0448 -0.5635 -0.9100
10589TIP3   OH253181   2.126   0.870   3.199  0.0629  0.0425 -0.3345
10589TIP3    H153182   2.102   0.924   3.275  4.2603 -1.7545  2.4364
10589TIP3    H253183   2.056   0.805   3.193 -1.0410  1.0373  1.1037
10590TIP3   OH253184   5.367   1.876  13.323 -0.3119 -0.4188  0.1106
10590TIP3    H153185   5.332   1.935  13.256 -0.5334 -0.9355 -0.2364
10590TIP3    H253186   5.298   1.871  13.389 -0.7711 -1.1716 -0.4094
10591TIP3   OH253187   6.173   6.371   2.347  0.2733 -0.0369 -0.3163
10591TIP3    H153188   6.130   6.294   2.386 -0.1064  0.7634  0.8855
10591TIP3    H253189   6.264   6.345   2.338 -0.1502 -1.1993 -1.4175
10592TIP3   OH253190   2.444   0.984  17.081 -0.5676 -0.1115 -0.2008
10592TIP3    H153191   2.370   0.988  17.020 -1.3046  0.9895  0.7331
10592TIP3    H253192   2.520   1.005  17.027 -1.2467  1.1037 -0.7120
10593TIP3   OH253193   6.552   4.006   1.028 -0.2768 -0.7268  0.1542
10593TIP3    H153194   6.626   3.971   1.079 -0.0481 -0.0537  0.2868
10593TIP3    H253195   6.586   4.014   0.939 -0.4968 -1.3469  0.0125
10594TIP3   OH253196   6.171   4.403  12.261  0.1481  0.5728  0.1133
10594TIP3    H153197   6.179   4.337  12.192  0.4045 -1.8372  2.3714
10594TIP3    H253198   6.209   4.482  12.222  3.1928 -1.5281 -1.4757
10595TIP3   OH253199   2.231   2.710   2.033 -0.0657  0.3269  0.0798
10595TIP3    H153200   2.224   2.789   2.086  2.5973 -0.0867  1.1226
10595TIP3    H253201   2.196   2.736   1.947  0.8076  2.6404  0.3785
10596TIP3   OH253202   2.835   3.263  16.975 -0.2027 -0.6845  0.3404
10596TIP3    H153203   2.828   3.215  16.893 -0.0813 -0.7410  0.3620
10596TIP3    H253204   2.746   3.266  17.009 -0.2950 -0.4430  0.0786
10597TIP3   OH253205   4.166   2.666   2.115 -0.0140 -0.3621 -0.7024
10597TIP3    H153206   4.194   2.606   2.046  0.9433  1.7438 -2.2277
10597TIP3    H253207   4.248   2.695   2.156 -0.3457  0.8390 -0.8547
10598TIP3   OH253208   0.001   6.566   5.118  0.4212 -0.2021 -0.1464
10598TIP3    H153209   0.066   6.636   5.117 -0.2095  0.3856 -0.7383
10598TIP3    H253210  -0.045   6.574   5.034 -0.4598 -0.5629  0.2882
10599TIP3   OH253211   2.996   0.973  12.016 -0.2345 -0.1829 -0.3120
10599TIP3    H153212   2.920   1.017  11.979 -1.3582 -0.0125  2.0829
10599TIP3    H253213   3.059   1.044  12.032  0.2073 -0.2427 -1.7135
10600TIP3   OH253214   4.793   0.050  14.410 -0.2079 -0.1147  0.0564
10600TIP3    H153215   4.729   0.002  14.357  0.9181 -0.3901 -1.0863
10600TIP3    H253216   4.783   0.141  14.383 -0.4592 -0.0916  0.2311
10601TIP3   OH253217   2.427   3.064  14.197 -0.2349  0.6275  0.2688
10601TIP3    H153218   2.499   3.102  14.147  0.8102 -1.6541 -0.0061
10601TIP3    H253219   2.356   3.055  14.134  0.5760 -0.8171 -0.4609
10602TIP3   OH253220   0.941   3.406   4.238 -0.0868  0.1068 -0.5122
10602TIP3    H153221   0.860   3.455   4.226  1.3010  1.9835 -2.4689
10602TIP3    H253222   0.999   3.466   4.285  0.0653 -1.3878  1.2979
10603TIP3   OH253223   1.086   2.902   0.001  0.4547  0.1322  0.2398
10603TIP3    H153224   1.155   2.885  -0.063 -0.2384 -1.3014 -0.1616
10603TIP3    H253225   1.131   2.909   0.085  1.2501  0.8539 -0.2431
10604TIP3   OH253226   5.217   5.756   4.107  0.3051 -0.1300  0.0434
10604TIP3    H153227   5.121   5.762   4.099  0.5405  0.7109 -2.5447
10604TIP3    H253228   5.243   5.841   4.142  0.2890  0.5308 -1.4946
10605TIP3   OH253229   1.681   6.525   2.686  0.3593  0.1974 -0.1488
10605TIP3    H153230   1.607   6.471   2.714 -0.8079  1.0367 -1.5786
10605TIP3    H253231   1.670   6.607   2.734 -0.8095  1.0857 -1.8965
10606TIP3   OH253232   4.866   3.360  12.392 -0.3593 -0.1132  0.1972
10606TIP3    H153233   4.786   3.352  12.339  0.0736 -1.1779 -0.3132
10606TIP3    H253234   4.834   3.370  12.481 -1.0776  0.4179 -0.1109
10607TIP3   OH253235   2.386   3.832  12.278 -0.0076  0.0314 -0.1408
10607TIP3    H153236   2.417   3.861  12.192  2.1675  1.4973  1.0924
10607TIP3    H253237   2.357   3.912  12.322 -0.5609 -0.6250  0.7269
10608TIP3   OH253238   1.960   1.666  12.249  0.1315 -0.5744 -0.0036
10608TIP3    H153239   1.878   1.679  12.202  0.5422 -1.5074 -0.9977
10608TIP3    H253240   1.937   1.680  12.341 -0.5284  1.9682 -0.5136
10609TIP3   OH253241   1.572   3.916  13.454  0.1692 -0.3032  0.9278
10609TIP3    H153242   1.496   3.949  13.406  0.7941  0.6423  0.5781
10609TIP3    H253243   1.571   3.822  13.437  0.1214 -0.0488 -0.5721
10610TIP3   OH253244   0.015   2.096  12.084  0.4041  0.1636 -0.1117
10610TIP3    H153245  -0.007   2.160  12.017  0.3712 -0.6691 -0.9075
10610TIP3    H253246  -0.061   2.038  12.087  1.1227 -0.8154 -0.5811
10611TIP3   OH253247   1.977   1.577  16.929  0.0167  0.6430 -0.2176
10611TIP3    H153248   1.914   1.505  16.925  1.5053 -0.6456 -0.7397
10611TIP3    H253249   1.946   1.639  16.864 -0.4080 -0.2405 -0.8742
10612TIP3   OH253250   4.264   6.232  10.887  0.6014  0.0027  0.1187
10612TIP3    H153251   4.218   6.189  10.959  0.3697 -1.1183 -0.6747
10612TIP3    H253252   4.241   6.180  10.810 -1.4026  2.7891 -1.2369
10613TIP3   OH253253   4.845   4.660  14.347  0.4094  0.6745  0.3175
10613TIP3    H153254   4.852   4.700  14.434 -0.3229 -0.6696  1.0061
10613TIP3    H253255   4.927   4.612  14.336 -0.6215 -1.3994  1.4280
10614TIP3   OH253256   2.529   5.749   0.073 -0.0271 -0.7248 -0.9207
10614TIP3    H153257   2.557   5.797  -0.005  0.4065 -1.6835 -1.3724
10614TIP3    H253258   2.434   5.755   0.072  0.0058 -0.2289 -1.1998
10615TIP3   OH253259   2.580   3.664   0.666  0.7546 -0.0171 -0.1068
10615TIP3    H153260   2.592   3.748   0.710 -0.8144  0.7169 -0.9949
10615TIP3    H253261   2.624   3.600   0.721  1.9740  1.3939  0.5816
10616TIP3   OH253262   6.174   6.002  16.100  0.2882 -0.6260  0.1783
10616TIP3    H153263   6.190   6.004  16.005  0.5739 -0.6759  0.2274
10616TIP3    H253264   6.080   5.986  16.107  0.1463  0.0474 -0.0999
10617TIP3   OH253265   0.721   6.640  13.274 -0.4071  0.2122 -0.3883
10617TIP3    H153266   0.627   6.650  13.259 -0.3740 -0.9112 -1.4160
10617TIP3    H253267   0.749   6.725  13.308 -1.6799  0.7584 -0.6758
10618TIP3   OH253268   3.658   4.642   1.834  0.7156  0.0680 -0.1428
10618TIP3    H153269   3.677   4.736   1.833  1.0193  0.0446  1.4998
10618TIP3    H253270   3.582   4.635   1.892  0.0268 -0.5867 -1.1280
10619TIP3   OH253271   5.949   3.302  13.406  0.2745  0.1800 -0.1128
10619TIP3    H153272   5.981   3.386  13.372 -0.5228  0.5237 -0.0170
10619TIP3    H253273   5.875   3.325  13.462 -0.4284 -0.6408 -0.6915
10620TIP3   OH253274   4.689   3.291   5.301  0.5676 -0.1386  0.2234
10620TIP3    H153275   4.646   3.265   5.383  0.4488  0.7475  0.4479
10620TIP3    H253276   4.760   3.349   5.329  1.1812 -0.6551 -0.2372
10621TIP3   OH253277   4.325   2.689  16.497  0.3949 -0.2597  0.4421
10621TIP3    H153278   4.366   2.713  16.581  1.6460  2.9366 -0.9736
10621TIP3    H253279   4.397   2.692  16.434 -1.2140  1.2810 -1.3989
10622TIP3   OH253280   3.404   5.313  12.726  0.0255 -0.4402 -0.2205
10622TIP3    H153281   3.469   5.383  12.718  0.0410 -0.4374 -0.0656
10622TIP3    H253282   3.444   5.238  12.683  0.3535 -0.5923  0.3488
10623TIP3   OH253283   4.939   2.627   1.779 -0.2921 -0.5087 -0.1243
10623TIP3    H153284   4.878   2.592   1.715 -1.3433  1.0179  0.0333
10623TIP3    H253285   4.889   2.633   1.860  0.2606  0.1192  0.1784
10624TIP3   OH253286   2.082   6.452  12.971 -0.0634  0.0635 -0.4238
10624TIP3    H153287   2.145   6.388  13.004 -1.6577 -0.3572  1.8818
10624TIP3    H253288   2.116   6.537  13.000  0.6380  0.0451 -1.1747
10625TIP3   OH253289   1.828   0.571  12.872 -0.1614 -0.0391 -0.3184
10625TIP3    H153290   1.788   0.641  12.925 -0.3989  0.5191 -1.2311
10625TIP3    H253291   1.780   0.574  12.789 -0.1821 -1.3020 -0.3584
10626TIP3   OH253292   4.809   2.335  16.184 -0.2766  0.0062  0.4462
10626TIP3    H153293   4.726   2.377  16.205 -0.7197 -0.6727  0.0592
10626TIP3    H253294   4.871   2.408  16.176 -0.6004  0.4442  1.7422
10627TIP3   OH253295   5.088   6.341   2.566  0.0796 -0.0221  0.4568
10627TIP3    H153296   5.008   6.303   2.602  0.0881 -0.9475 -0.4796
10627TIP3    H253297   5.159   6.298   2.614  0.0590 -0.4841  0.0793
10628TIP3   OH253298   4.488   0.285   5.720 -0.5417 -0.6373  0.7953
10628TIP3    H153299   4.517   0.204   5.763  3.1246  0.3076  0.3079
10628TIP3    H253300   4.567   0.340   5.719 -2.0114  1.5018 -2.1437
10629TIP3   OH253301   3.560   6.236  14.211 -0.7609  0.2465 -0.8384
10629TIP3    H153302   3.535   6.269  14.298 -1.2600  0.3779 -1.0292
10629TIP3    H253303   3.568   6.315  14.157 -1.2718  0.1105 -1.1193
10630TIP3   OH253304   5.116   2.735  13.480 -0.1079  0.1654  0.4909
10630TIP3    H153305   5.209   2.758  13.487 -0.1483  0.6554 -0.5959
10630TIP3    H253306   5.092   2.707  13.569  0.7008  1.4720  1.1429
10631TIP3   OH253307   2.876   3.398  11.588 -0.2777  0.1894 -0.5667
10631TIP3    H153308   2.970   3.412  11.574 -0.5055  2.2464 -0.1806
10631TIP3    H253309   2.837   3.484  11.573 -1.9475 -0.3738  0.5116
10632TIP3   OH253310   1.333   0.750  11.422  0.3153  0.4318 -0.5431
10632TIP3    H153311   1.380   0.667  11.428  0.9732  0.7417 -1.3375
10632TIP3    H253312   1.242   0.728  11.443  0.2159 -0.7502 -2.1273
10633TIP3   OH253313   1.777   6.646   4.905 -0.1937  0.5027  0.0191
10633TIP3    H153314   1.712   6.672   4.971 -0.9151 -1.3670  0.0918
10633TIP3    H253315   1.740   6.676   4.822 -1.4492 -1.0416  0.0007
10634TIP3   OH253316   5.990   1.039   0.434  0.3531 -1.1676 -0.4654
10634TIP3    H153317   5.938   1.036   0.354  0.5524  2.6858 -0.8454
10634TIP3    H253318   6.080   1.020   0.405 -0.0979 -3.4396 -0.4983
10635TIP3   OH253319   5.437   2.411   0.372 -0.2141  0.0167 -0.4713
10635TIP3    H153320   5.444   2.344   0.440 -0.2340  1.9227  1.4485
10635TIP3    H253321   5.523   2.411   0.330 -0.6906 -2.2698 -1.5529
10636TIP3   OH253322   4.481   3.133  12.652 -0.3159  0.3671 -0.1282
10636TIP3    H153323   4.474   3.083  12.733  2.5426  0.2555  0.0827
10636TIP3    H253324   4.554   3.193  12.666  0.1380  0.4441 -2.5649
10637TIP3   OH253325   2.001   4.229  15.513 -0.0025  0.3260  0.8982
10637TIP3    H153326   2.066   4.253  15.579 -1.2315 -2.6897  3.3276
10637TIP3    H253327   1.917   4.255  15.551 -0.7859 -2.0493  0.8656
10638TIP3   OH253328   5.620   2.432  10.900  0.1071 -0.5799 -0.0563
10638TIP3    H153329   5.638   2.526  10.909 -1.3899 -0.1326 -1.5355
10638TIP3    H253330   5.629   2.415  10.806 -2.1658 -1.3636 -0.1598
10639TIP3   OH253331   5.017   2.719   4.543 -1.0623  0.1219 -0.4845
10639TIP3    H153332   5.105   2.686   4.562  0.0253  1.7002 -2.5984
10639TIP3    H253333   4.994   2.772   4.619  0.9083  1.8093 -1.0022
10640TIP3   OH253334   6.121   6.541   4.379 -0.6630 -0.3503  0.9205
10640TIP3    H153335   6.103   6.577   4.466  0.6441  0.0130  1.0494
10640TIP3    H253336   6.169   6.460   4.396  0.7614  0.3975  0.5115
10641TIP3   OH253337   1.234   2.401   2.169  0.3108  0.0715  0.1667
10641TIP3    H153338   1.316   2.379   2.125 -0.4734  1.7515 -2.2599
10641TIP3    H253339   1.261   2.455   2.243  1.4600  0.0117 -0.1904
10642TIP3   OH253340   5.545   6.569  16.795  0.1047  0.5869 -0.4635
10642TIP3    H153341   5.631   6.604  16.771  1.5200 -2.5363 -0.1934
10642TIP3    H253342   5.510   6.534  16.713  0.2916 -0.5493 -0.0645
10643TIP3   OH253343   4.498   3.853   2.058 -0.3353 -0.1796 -0.2237
10643TIP3    H153344   4.420   3.799   2.055 -0.8200  0.4572  0.5091
10643TIP3    H253345   4.569   3.792   2.077 -0.7113 -0.7032 -0.4924
10644TIP3   OH253346   4.422   4.506   5.470  0.0513  0.4388  0.3296
10644TIP3    H153347   4.462   4.501   5.557 -0.2815  0.7824  0.5025
10644TIP3    H253348   4.341   4.456   5.477  0.3147 -0.0394  0.0469
10645TIP3   OH253349   1.236   3.724  14.994 -0.2500  0.2386 -0.2373
10645TIP3    H153350   1.224   3.633  14.967 -1.7581  0.6563 -1.0356
10645TIP3    H253351   1.314   3.754  14.946  0.2150 -0.6061 -0.0105
10646TIP3   OH253352   5.521   5.503  11.070 -0.4974  0.1646 -0.4569
10646TIP3    H153353   5.434   5.540  11.055 -0.7483 -1.0417 -2.2311
10646TIP3    H253354   5.577   5.578  11.090 -1.0794  1.4832 -3.5495
10647TIP3   OH253355   1.071   1.367  16.970 -0.3190 -0.0499 -0.1756
10647TIP3    H153356   1.001   1.418  17.009  0.2478  0.7579 -0.2161
10647TIP3    H253357   1.122   1.335  17.044 -0.3144 -0.0469 -0.1772
10648TIP3   OH253358   4.002   2.126  12.021  0.6659 -0.5272 -0.4740
10648TIP3    H153359   3.909   2.115  12.039  0.5103  0.2054 -0.8270
10648TIP3    H253360   4.005   2.177  11.940  1.3812  1.8565  1.0300
10649TIP3   OH253361   6.775   4.913  13.094  0.3094  0.4777  0.5884
10649TIP3    H153362   6.858   4.961  13.098 -0.1357  1.3568 -0.3884
10649TIP3    H253363   6.719   4.956  13.159  0.3503  0.4090  0.6693
10650TIP3   OH253364   2.464   0.234  17.138  0.0468 -0.0899  0.1627
10650TIP3    H153365   2.483   0.141  17.126 -0.0440  0.0588 -1.1405
10650TIP3    H253366   2.372   0.237  17.163  0.3161 -0.4172  1.2412
10651TIP3   OH253367   5.801   6.403   4.946  0.1676 -0.2935 -0.0625
10651TIP3    H153368   5.856   6.479   4.965 -0.0933  0.0763 -0.7480
10651TIP3    H253369   5.860   6.328   4.954  0.0817 -0.1689  2.1384
10652TIP3   OH253370   0.722   1.555   3.657 -0.2711 -0.5617 -0.1338
10652TIP3    H153371   0.717   1.638   3.704 -0.1726 -1.5718  1.7116
10652TIP3    H253372   0.724   1.489   3.726  1.4231 -2.0094 -1.5279
10653TIP3   OH253373   5.597   3.984  11.979  0.7297 -0.2420 -0.3813
10653TIP3    H153374   5.521   4.023  11.936  0.5027 -0.4621 -0.1768
10653TIP3    H253375   5.672   4.023  11.933  0.5109  0.6019 -0.0418
10654TIP3   OH253376   3.905   1.224   4.730 -0.0118 -0.4757 -0.3934
10654TIP3    H153377   3.815   1.233   4.761  0.5077 -0.7157  1.2228
10654TIP3    H253378   3.930   1.313   4.703  0.7229  0.4874  3.2842
10655TIP3   OH253379   3.545   3.369   1.624  0.1552 -0.2406 -0.1441
10655TIP3    H153380   3.460   3.336   1.597  0.0961 -0.0582 -0.1802
10655TIP3    H253381   3.540   3.463   1.610 -0.0690 -0.0700  1.0232
10656TIP3   OH253382   1.580   0.704  15.583  0.1229  0.1578 -0.8505
10656TIP3    H153383   1.638   0.628  15.587 -0.4448 -0.2752 -0.6364
10656TIP3    H253384   1.534   0.694  15.499 -0.9157 -0.4749 -0.2340
10657TIP3   OH253385   0.165   2.408  11.684 -0.0167  1.2491  0.1271
10657TIP3    H153386   0.181   2.502  11.674 -1.4263  1.4126 -0.7349
10657TIP3    H253387   0.117   2.401  11.767 -1.7015  1.5274 -0.7990
10658TIP3   OH253388   5.801   6.071  14.248  0.3233 -0.3558 -0.3902
10658TIP3    H153389   5.728   6.125  14.279  0.7409  0.0060 -0.0154
10658TIP3    H253390   5.848   6.048  14.328  1.1110  0.1348 -0.7095
10659TIP3   OH253391   5.802   3.643  15.482 -0.2955  0.0505  0.2851
10659TIP3    H153392   5.867   3.574  15.469 -0.5904 -0.2538  0.4253
10659TIP3    H253393   5.819   3.706  15.412  0.2060  0.0124  0.3719
10660TIP3   OH253394   0.172   3.273  16.633 -0.4939 -0.2378 -0.6386
10660TIP3    H153395   0.143   3.319  16.712  0.8420 -0.5820  0.0590
10660TIP3    H253396   0.121   3.192  16.632 -0.1225 -0.4835  0.1666
10661TIP3   OH253397   3.584   6.157   1.023  0.5068 -0.1174 -0.1544
10661TIP3    H153398   3.527   6.229   1.049 -0.7666 -0.9893 -0.4725
10661TIP3    H253399   3.672   6.189   1.040 -0.0086  1.7265 -0.8264
10662TIP3   OH253400   5.896   0.219   3.443 -0.3064  0.5691  0.1422
10662TIP3    H153401   5.959   0.225   3.371 -0.8027  2.0428 -0.1822
10662TIP3    H253402   5.830   0.157   3.412  1.0952 -1.1837  0.5851
10663TIP3   OH253403   5.702   4.690  17.131 -0.1627  0.5923 -0.4420
10663TIP3    H153404   5.704   4.755  17.201  0.7214  0.8467 -0.6973
10663TIP3    H253405   5.716   4.607  17.175  1.2029  0.8310 -0.4000
10664TIP3   OH253406   0.738   5.702   3.192  0.0644  0.1784  0.3523
10664TIP3    H153407   0.819   5.649   3.187  1.6024  2.4481  0.4759
10664TIP3    H253408   0.747   5.752   3.273 -0.9798  1.2354 -0.1707
10665TIP3   OH253409   0.348   0.201  12.902 -0.1209 -0.0065  0.1435
10665TIP3    H153410   0.299   0.119  12.916 -1.1418  0.5506 -0.1372
10665TIP3    H253411   0.295   0.250  12.839 -0.3971  1.6143  1.6106
10666TIP3   OH253412   2.373   5.274   5.653 -0.1823 -0.3462 -0.0225
10666TIP3    H153413   2.425   5.345   5.689 -1.6862  0.9441 -0.3626
10666TIP3    H253414   2.343   5.225   5.730  1.4290 -1.0531  0.1781
10667TIP3   OH253415   0.564   0.890   1.665 -0.6043 -0.7518  0.5647
10667TIP3    H153416   0.632   0.955   1.650  0.9088 -2.0833  1.4470
10667TIP3    H253417   0.612   0.808   1.677 -2.2369 -1.4224  2.9135
10668TIP3   OH253418   2.986   4.375  13.457 -0.9508 -0.2386  0.6635
10668TIP3    H153419   3.031   4.459  13.449  0.5704 -0.9675  1.5672
10668TIP3    H253420   2.893   4.399  13.465 -0.5369  1.3484  0.8800
10669TIP3   OH253421   4.819   1.758   1.103 -0.4634  0.3052  0.5833
10669TIP3    H153422   4.791   1.667   1.113  0.4606 -0.0702 -0.1029
10669TIP3    H253423   4.871   1.776   1.182 -0.5717  0.2012  0.6782
10670TIP3   OH253424   5.659   4.071  14.795  0.0782  0.5790  0.0923
10670TIP3    H153425   5.661   4.010  14.868  0.2069  2.6437  1.8732
10670TIP3    H253426   5.570   4.108  14.797 -0.5656 -0.7957 -2.0424
10671TIP3   OH253427   5.800   3.072  16.992 -0.0573 -0.4151 -0.4613
10671TIP3    H153428   5.804   3.084  16.897 -0.7957 -2.9339 -0.8697
10671TIP3    H253429   5.712   3.099  17.016  0.5231  1.3821 -0.2759
10672TIP3   OH253430   4.037   5.145   5.604 -0.0647 -0.1841  0.0419
10672TIP3    H153431   3.994   5.060   5.598 -0.3641 -0.0203 -0.1606
10672TIP3    H253432   3.980   5.196   5.662  0.2528 -0.2061  0.3744
10673TIP3   OH253433   3.241   6.333  12.703 -0.1784 -0.3939 -0.6166
10673TIP3    H153434   3.256   6.313  12.796 -0.1122  1.7341 -0.1463
10673TIP3    H253435   3.325   6.318  12.661  0.2043  0.1670 -0.0497
10674TIP3   OH253436   6.625   0.566  14.387  0.2690 -0.0650  0.4694
10674TIP3    H153437   6.621   0.570  14.291  0.0345  1.7608  0.5341
10674TIP3    H253438   6.588   0.481  14.409  3.6672 -2.0947 -1.2398
10675TIP3   OH253439   1.546   2.205  14.596  0.2809  0.2802  0.2637
10675TIP3    H153440   1.620   2.257  14.565  1.0834 -0.6602  0.5862
10675TIP3    H253441   1.583   2.146  14.660 -0.7761 -0.1334  0.5028
10676TIP3   OH253442   1.392   6.627   4.267 -0.4991 -0.2589  1.1213
10676TIP3    H153443   1.316   6.569   4.271 -0.3098 -0.7469 -1.3153
10676TIP3    H253444   1.402   6.647   4.174  3.2835 -1.4579  1.1712
10677TIP3   OH253445   2.799   3.698   5.245 -0.0111 -0.1882 -0.3601
10677TIP3    H153446   2.733   3.659   5.186  1.7479 -1.4293 -1.5914
10677TIP3    H253447   2.842   3.764   5.191 -0.1449  0.5114  0.3930
10678TIP3   OH253448   3.387   6.555   0.156 -0.8263 -0.6634 -0.5624
10678TIP3    H153449   3.391   6.557   0.252  0.1006 -0.7568 -0.5974
10678TIP3    H253450   3.375   6.647   0.132  1.3304 -0.3213 -0.4445
10679TIP3   OH253451   5.596   2.850   0.746  0.5430 -0.3798  0.3797
10679TIP3    H153452   5.570   2.765   0.712 -0.2190 -0.2630  0.6784
10679TIP3    H253453   5.592   2.842   0.841  0.8452 -0.1254  0.4184
10680TIP3   OH253454   0.929   0.451  13.031  0.1738  0.2359 -0.0421
10680TIP3    H153455   0.954   0.542  13.045  1.2904 -0.1294  0.3493
10680TIP3    H253456   0.849   0.456  12.979 -0.1134  1.4522  0.5077
10681TIP3   OH253457   6.583   5.951  13.580  0.1657  0.6574 -0.4996
10681TIP3    H153458   6.600   6.010  13.654 -0.0328 -0.4079  0.4165
10681TIP3    H253459   6.493   5.921  13.594 -0.3193  1.4430 -1.8911
10682TIP3   OH253460   4.633   2.378   6.073 -0.5700  0.0203 -0.0495
10682TIP3    H153461   4.589   2.302   6.035 -1.4871  1.1656 -1.2963
10682TIP3    H253462   4.685   2.341   6.145  0.8323 -2.1111 -2.0685
10683TIP3   OH253463   4.362   1.075   1.679 -0.4447 -0.6335 -0.7775
10683TIP3    H153464   4.438   1.035   1.719 -0.8656 -1.4709 -0.8142
10683TIP3    H253465   4.303   1.002   1.660 -0.1701 -0.2883 -3.1188
10684TIP3   OH253466   3.619   4.825  16.019 -0.0354  0.2226  0.4693
10684TIP3    H153467   3.567   4.839  15.939  2.3862  0.9589 -1.0412
10684TIP3    H253468   3.593   4.738  16.048 -2.8079  0.9469  0.3271
10685TIP3   OH253469   3.943   1.168  15.526 -0.3551  0.4275  0.0659
10685TIP3    H153470   3.851   1.155  15.503  0.0553 -0.7122 -0.9870
10685TIP3    H253471   3.954   1.127  15.611 -0.9727  1.1950  0.5266
10686TIP3   OH253472   1.539   5.797  12.499 -0.2338 -0.6247 -0.3707
10686TIP3    H153473   1.620   5.768  12.540 -0.1424  0.1382 -0.0056
10686TIP3    H253474   1.528   5.739  12.424  0.8400 -0.4899 -0.6325
10687TIP3   OH253475   5.543   0.132   2.451  0.7204  0.2126  0.6734
10687TIP3    H153476   5.599   0.134   2.528 -0.3038  0.0448  1.4214
10687TIP3    H253477   5.517   0.223   2.438  1.4241  0.3451  0.1204
10688TIP3   OH253478   4.476   1.004  13.268 -0.2109  0.6202  0.0301
10688TIP3    H153479   4.463   0.924  13.319  1.1641 -0.4908 -1.2928
10688TIP3    H253480   4.548   1.049  13.312 -1.9367  1.8945  1.6292
10689TIP3   OH253481   0.793   4.616   0.679  0.1852  0.0761  0.2441
10689TIP3    H153482   0.827   4.584   0.762 -0.5670  0.2999  0.6410
10689TIP3    H253483   0.710   4.570   0.667  1.4101 -1.7238 -1.5391
10690TIP3   OH253484   3.303   6.344   2.104 -0.1638 -0.5944 -0.2462
10690TIP3    H153485   3.214   6.314   2.086 -0.7429  0.6905  0.3809
10690TIP3    H253486   3.336   6.283   2.170 -0.7089 -0.8868 -0.2423
10691TIP3   OH253487   4.646   2.970   6.635 -0.2006 -0.5646 -0.3122
10691TIP3    H153488   4.734   2.990   6.604  0.2570 -0.0398  1.2317
10691TIP3    H253489   4.660   2.922   6.717 -1.3484 -2.1603 -1.0199
10692TIP3   OH253490   5.367   6.018   0.181  0.1277 -0.5943  0.4414
10692TIP3    H153491   5.361   6.110   0.204 -1.3071 -0.4472 -0.4488
10692TIP3    H253492   5.355   6.016   0.086 -0.2496 -1.7298  0.5025
10693TIP3   OH253493   2.509   0.055  14.478 -0.9774 -0.2756 -0.1898
10693TIP3    H153494   2.569   0.062  14.404 -0.8142 -3.7443 -0.4911
10693TIP3    H253495   2.538   0.122  14.540  1.6091 -0.2218 -1.4180
10694TIP3   OH253496   1.897   1.663   6.119  0.6572  0.3584  0.3005
10694TIP3    H153497   1.975   1.661   6.175 -0.1820  0.8557  1.4913
10694TIP3    H253498   1.829   1.703   6.173  0.1549  1.9817 -1.4611
10695TIP3   OH253499   6.651   4.332  13.340  0.0559 -0.3963 -0.1387
10695TIP3    H153500   6.715   4.403  13.343 -0.6937  0.3149 -0.5627
10695TIP3    H253501   6.567   4.376  13.351 -0.4002 -1.2535 -0.1571
10696TIP3   OH253502   5.954   4.295   2.321  0.0095  0.3502 -0.4457
10696TIP3    H153503   6.049   4.292   2.307  0.2437 -1.2438  1.2995
10696TIP3    H253504   5.940   4.246   2.402 -2.1878  1.6978  0.0308
10697TIP3   OH253505   3.230   6.113   5.172  0.2391  0.2839 -0.0849
10697TIP3    H153506   3.260   6.145   5.087  0.0514 -0.3410 -0.3900
10697TIP3    H253507   3.160   6.051   5.151  1.5078 -1.3659  0.4243
10698TIP3   OH253508   0.637   1.099  14.085 -0.4041 -0.0441  0.1944
10698TIP3    H153509   0.553   1.064  14.117 -0.4352 -1.3323 -1.2385
10698TIP3    H253510   0.613   1.155  14.012  0.0063 -0.8482 -0.5700
10699TIP3   OH253511   3.096   3.349  13.183 -0.0687  0.2576 -0.0083
10699TIP3    H153512   3.024   3.339  13.246  1.1661  0.2579  1.4388
10699TIP3    H253513   3.123   3.259  13.163 -0.9630  0.2381 -1.1300
10700TIP3   OH253514   6.229   5.519  14.246 -0.3122  0.2731 -0.3663
10700TIP3    H153515   6.277   5.437  14.240 -0.2039  0.4290 -2.0145
10700TIP3    H253516   6.192   5.519  14.334  1.3633 -0.5905  0.3710
10701TIP3   OH253517   4.254   5.196   4.355  0.1926 -0.3993  0.0225
10701TIP3    H153518   4.206   5.223   4.277  1.8003  1.4293 -0.3566
10701TIP3    H253519   4.218   5.249   4.426  0.2603 -0.4938  0.1280
10702TIP3   OH253520   4.144   4.833  15.545  0.0630  0.5988  0.0954
10702TIP3    H153521   4.105   4.904  15.495  0.6613  2.2090  1.8561
10702TIP3    H253522   4.219   4.804  15.493 -0.5646  0.8081 -0.9307
10703TIP3   OH253523   5.497   0.189  10.657 -0.1303  0.2321 -0.6165
10703TIP3    H153524   5.451   0.250  10.714 -1.0608 -0.3815 -0.7173
10703TIP3    H253525   5.429   0.152  10.601  0.6240  0.0694 -1.4391
10704TIP3   OH253526   4.915   6.383   3.335 -0.5081  0.0484  0.3118
10704TIP3    H153527   4.899   6.477   3.344 -0.6913  0.0712 -0.2596
10704TIP3    H253528   4.848   6.353   3.273 -0.0277 -0.3398 -0.0210
10705TIP3   OH253529   4.237   2.101   4.654 -0.2958 -0.1830  0.2470
10705TIP3    H153530   4.203   2.182   4.615  0.6059 -0.9773 -2.3179
10705TIP3    H253531   4.168   2.036   4.640 -0.2031 -0.3423  0.5149
10706TIP3   OH253532   6.512   6.222  11.623 -0.1298 -0.3576  0.5035
10706TIP3    H153533   6.517   6.283  11.549 -0.9469  1.0173  1.5522
10706TIP3    H253534   6.427   6.241  11.664  1.3300  0.5818  3.1944
10707TIP3   OH253535   4.049   1.669   5.706  0.4611 -0.1438  0.0965
10707TIP3    H153536   3.961   1.690   5.737  1.1703  1.2947  1.1967
10707TIP3    H253537   4.066   1.732   5.637  0.6303 -0.4131 -0.1071
10708TIP3   OH253538   4.806   3.718   6.116  0.5789 -0.1057  0.0292
10708TIP3    H153539   4.897   3.689   6.108  0.0531 -1.6788 -0.4371
10708TIP3    H253540   4.773   3.720   6.026  0.1225  0.3355  0.2069
10709TIP3   OH253541   6.482   2.060  14.239 -0.1242 -0.0402 -0.3302
10709TIP3    H153542   6.464   2.127  14.173  0.4165  0.5723  0.1370
10709TIP3    H253543   6.468   2.104  14.323  1.0079 -0.2794 -0.0070
10710TIP3   OH253544   2.788   5.743  11.760 -0.4372  0.6030 -0.4805
10710TIP3    H153545   2.755   5.677  11.820 -0.4072 -0.8834 -2.0609
10710TIP3    H253546   2.877   5.715  11.739  0.2542  2.1684  0.2756
10711TIP3   OH253547   6.684   5.892   1.000  0.0165 -0.4517  0.5284
10711TIP3    H153548   6.652   5.817   0.950  1.9049 -2.0454  1.6164
10711TIP3    H253549   6.767   5.915   0.957 -1.0050  1.6613 -0.3926
10712TIP3   OH253550   4.278   4.958  12.842  0.4331 -0.1909 -0.6828
10712TIP3    H153551   4.252   4.969  12.933  1.4971 -1.6526 -0.1840
10712TIP3    H253552   4.366   4.996  12.837 -0.4864  1.9140 -1.6383
10713TIP3   OH253553   5.758   6.210  13.361 -0.2034  0.7258 -0.5285
10713TIP3    H153554   5.688   6.151  13.337 -0.5447  1.2092 -0.7277
10713TIP3    H253555   5.807   6.225  13.280 -0.1186  0.7212 -0.4797
10714TIP3   OH253556   5.147   6.528   1.604 -0.1044  0.0556 -0.0715
10714TIP3    H153557   5.227   6.570   1.635  0.4195 -1.3864  0.5675
10714TIP3    H253558   5.133   6.455   1.665 -2.6771  1.1353  0.6763
10715TIP3   OH253559   3.822   4.644   0.830 -0.3333  0.1369 -0.0595
10715TIP3    H153560   3.777   4.682   0.906  1.1451  4.3039 -1.1255
10715TIP3    H253561   3.752   4.625   0.768 -1.2106  0.0999  0.9161
10716TIP3   OH253562   2.861   5.377   6.020  0.2217  1.0119  0.6317
10716TIP3    H153563   2.831   5.292   6.051  1.2302  0.1981 -0.5350
10716TIP3    H253564   2.842   5.376   5.926 -0.4597  2.3859  0.7545
10717TIP3   OH253565   3.802   3.667   1.524 -0.5939 -0.6377  0.3806
10717TIP3    H153566   3.875   3.606   1.514 -0.9946 -1.3067  1.5217
10717TIP3    H253567   3.836   3.735   1.583 -0.1853  0.1989 -0.7993
10718TIP3   OH253568   5.740   1.994   0.381 -0.2276  0.3219 -0.1979
10718TIP3    H153569   5.796   2.026   0.311  2.0815 -0.0366  1.4174
10718TIP3    H253570   5.729   1.900   0.362 -1.0966  0.5769 -1.0216
10719TIP3   OH253571   5.880   6.405  12.293  0.0620 -0.4594  0.2320
10719TIP3    H153572   5.906   6.494  12.319 -1.1815 -0.0960  0.2454
10719TIP3    H253573   5.820   6.376  12.362  1.3035 -1.7366  0.8009
10720TIP3   OH253574   1.037   4.004  17.076  0.0616  0.1589 -0.3087
10720TIP3    H153575   0.952   3.962  17.062  0.0341 -0.6642  2.1489
10720TIP3    H253576   1.029   4.088  17.032 -0.9383 -1.1374 -2.7370
10721TIP3   OH253577   1.337   3.143   0.137  0.2183 -0.3836  0.1067
10721TIP3    H153578   1.314   3.200   0.063 -0.2252 -1.1903 -0.3761
10721TIP3    H253579   1.400   3.081   0.101  1.9907  0.8147  1.0404
10722TIP3   OH253580   5.873   4.919  14.333  0.5006  0.7129  0.0234
10722TIP3    H153581   5.917   4.895  14.252  3.1379  0.7199  1.3988
10722TIP3    H253582   5.842   4.837  14.370 -0.1169  0.6391 -0.6611
10723TIP3   OH253583   5.644   3.365  16.985 -0.2770  0.8423  0.0817
10723TIP3    H153584   5.605   3.281  16.961  0.0627  0.7045  0.0161
10723TIP3    H253585   5.680   3.350  17.073 -0.0941  0.8770  0.0145
10724TIP3   OH253586   5.085   3.568   3.087 -0.3157  0.1478 -0.0843
10724TIP3    H153587   5.053   3.643   3.137  0.3093 -0.8350  1.8266
10724TIP3    H253588   5.076   3.494   3.146  2.4657 -0.7075 -0.6498
10725TIP3   OH253589   5.654   1.312   4.984  0.0793  0.3088  0.3257
10725TIP3    H153590   5.608   1.379   5.035  2.2731  0.8795  1.5978
10725TIP3    H253591   5.726   1.359   4.942  1.6627 -1.2463  1.2595
10726TIP3   OH253592   2.924   5.836   6.589 -0.2833 -0.5040  0.4903
10726TIP3    H153593   2.920   5.789   6.672 -1.2048 -1.3318 -0.0102
10726TIP3    H253594   2.989   5.905   6.604 -0.5865 -0.5069  1.9597
10727TIP3   OH253595   5.284   2.439  14.995 -0.1068  0.3135  0.2729
10727TIP3    H153596   5.357   2.377  15.003 -0.3318 -0.0571 -0.5642
10727TIP3    H253597   5.280   2.460  14.902  0.4085  2.1346  0.6485
10728TIP3   OH253598   1.559   3.650  14.290 -0.5860 -0.7039 -0.2277
10728TIP3    H153599   1.478   3.671  14.336 -1.6767 -1.6213 -1.6713
10728TIP3    H253600   1.591   3.570  14.332  0.1000  0.2030  0.9884
10729TIP3   OH253601   1.219   0.221  16.391 -0.0651  0.2202  0.6651
10729TIP3    H153602   1.155   0.239  16.460 -0.6787  1.1019 -0.1205
10729TIP3    H253603   1.189   0.272  16.316  1.1879  0.1165  0.0721
10730TIP3   OH253604   1.790   2.614   1.881  0.1659 -0.4584  0.5845
10730TIP3    H153605   1.696   2.630   1.873  0.1853  0.5842  2.2531
10730TIP3    H253606   1.831   2.692   1.844  0.3965 -0.9382 -0.1978
10731TIP3   OH253607   6.367   2.455   5.700  0.3752 -0.2280  0.5384
10731TIP3    H153608   6.311   2.523   5.662  1.6835 -0.2985 -1.5907
10731TIP3    H253609   6.393   2.490   5.785 -1.9340  0.3023  1.0713
10732TIP3   OH253610   0.299   5.790  13.776 -0.0961  0.2573  0.2785
10732TIP3    H153611   0.215   5.793  13.821 -0.7323 -3.6025 -0.5322
10732TIP3    H253612   0.281   5.746  13.693  3.0542 -2.6058  1.0034
10733TIP3   OH253613   6.648   3.929   1.375 -0.5037 -0.3980 -0.3807
10733TIP3    H153614   6.554   3.931   1.393 -0.2814  0.1812  0.7592
10733TIP3    H253615   6.673   4.021   1.370  0.2540 -0.5364  0.7261
10734TIP3   OH253616   5.273   3.297  13.451  0.9333  0.3834 -0.0448
10734TIP3    H153617   5.271   3.260  13.363  1.0392 -0.4420  0.2859
10734TIP3    H253618   5.233   3.383  13.443 -1.8208 -0.8582 -0.3581
10735TIP3   OH253619   3.209   5.149   4.413  0.0970  0.3761 -0.2415
10735TIP3    H153620   3.191   5.241   4.434  0.8626  0.4568  0.0616
10735TIP3    H253621   3.225   5.149   4.319  3.0708  1.0513  0.2130
10736TIP3   OH253622   2.358   4.551   3.840 -0.0353  0.0122 -0.2177
10736TIP3    H153623   2.310   4.535   3.921 -0.8019  0.3170 -0.6054
10736TIP3    H253624   2.361   4.647   3.833  0.8315 -0.0007 -0.0808
10737TIP3   OH253625   1.533   4.531  14.592 -0.3216 -0.1949 -0.4520
10737TIP3    H153626   1.485   4.524  14.509 -1.0846  1.8974 -0.2262
10737TIP3    H253627   1.567   4.621  14.592 -0.3057 -0.1794  1.4811
10738TIP3   OH253628   0.348   0.327  16.877  0.5142 -0.0615  0.2736
10738TIP3    H153629   0.370   0.268  16.949  0.9456 -0.6876 -0.3497
10738TIP3    H253630   0.424   0.321  16.818 -0.6820 -1.1036 -1.1905
10739TIP3   OH253631   0.964   5.503   2.815 -0.0786  0.0292  0.0440
10739TIP3    H153632   0.873   5.474   2.819 -0.4403  0.8374 -1.6756
10739TIP3    H253633   0.974   5.536   2.725  1.6572  0.7432  0.4897
10740TIP3   OH253634   5.834   0.451  14.046 -0.0440  0.0980 -0.0240
10740TIP3    H153635   5.876   0.466  13.962 -1.1582  2.9252 -0.1264
10740TIP3    H253636   5.906   0.424  14.104  0.9319 -0.6035 -1.5172
10741TIP3   OH253637   4.487   6.075   3.548 -0.4264 -0.2400 -0.3483
10741TIP3    H153638   4.471   6.015   3.475  1.1424 -1.5292  0.3463
10741TIP3    H253639   4.408   6.128   3.552 -0.8553 -0.6481 -2.5067
10742TIP3   OH253640   5.928   3.829  15.302 -0.3302 -0.1686  0.7007
10742TIP3    H153641   6.005   3.874  15.267 -0.4344  0.8333  1.7305
10742TIP3    H253642   5.891   3.783  15.226  1.3942 -0.8447  0.2437
10743TIP3   OH253643   6.623   3.324   0.782  0.2890 -1.0667  0.1567
10743TIP3    H153644   6.702   3.378   0.781 -0.4158  0.0102  1.1687
10743TIP3    H253645   6.648   3.245   0.830  1.3564 -1.7159 -1.4181
10744TIP3   OH253646   6.192   0.301  12.105  0.1244  0.3150 -0.0078
10744TIP3    H153647   6.140   0.229  12.140  0.2146  0.1950 -0.1196
10744TIP3    H253648   6.131   0.374  12.099 -0.1748  0.0116 -0.6895
10745TIP3   OH253649   6.233   5.706  13.114  0.3429  0.6712  0.0044
10745TIP3    H153650   6.233   5.712  13.019  1.8769 -1.1669 -0.1452
10745TIP3    H253651   6.151   5.748  13.141 -0.8705 -0.1854 -2.2131
10746TIP3   OH253652   2.245   2.056  11.611 -0.1453  0.1922 -0.0511
10746TIP3    H153653   2.179   2.030  11.547  0.4712  0.3983 -0.7768
10746TIP3    H253654   2.310   1.985  11.608  0.8062  1.0923 -0.9831
10747TIP3   OH253655   5.565   1.553   2.557 -0.2380  0.7976  0.2546
10747TIP3    H153656   5.635   1.561   2.622 -0.1675 -0.1653  0.3053
10747TIP3    H253657   5.485   1.573   2.606 -0.1508  0.4128  0.5601
10748TIP3   OH253658   4.136   3.606  14.010  0.2887 -0.9119 -0.2291
10748TIP3    H153659   4.118   3.564  13.926 -3.8487  1.9529 -0.9508
10748TIP3    H253660   4.092   3.550  14.074 -2.3905  0.3635 -0.8369
10749TIP3   OH253661   0.779   3.541  10.641  0.3949  0.7506 -0.2540
10749TIP3    H153662   0.851   3.578  10.589  0.5200  1.4695  0.4180
10749TIP3    H253663   0.809   3.453  10.665  1.2907  1.2437  0.4782
10750TIP3   OH253664   6.105   4.060   2.630  0.5134  0.2017  0.0346
10750TIP3    H153665   6.057   4.032   2.707  1.3061  0.6717  0.7132
10750TIP3    H253666   6.196   4.067   2.660  0.6604  1.4054 -0.6672
10751TIP3   OH253667   1.221   0.618   3.737 -0.3180 -0.1579 -0.0049
10751TIP3    H153668   1.193   0.647   3.650 -0.7063  0.0465  0.1859
10751TIP3    H253669   1.312   0.592   3.726 -0.0279  0.9512 -0.2246
10752TIP3   OH253670   3.109   1.725   4.732  0.2377 -0.0922  0.3062
10752TIP3    H153671   3.175   1.735   4.801 -0.5861 -0.6585  1.1917
10752TIP3    H253672   3.090   1.814   4.704  1.4180  0.0682  0.0110
10753TIP3   OH253673   6.208   3.377   3.181  0.2952 -0.3363 -0.1718
10753TIP3    H153674   6.177   3.440   3.115 -0.6211 -2.1498 -1.5010
10753TIP3    H253675   6.288   3.341   3.143  0.6706 -0.1853  0.4726
10754TIP3   OH253676   4.363   1.422  15.821 -0.0967 -0.3106 -0.7209
10754TIP3    H153677   4.274   1.402  15.792 -0.2959 -0.0596 -0.2822
10754TIP3    H253678   4.413   1.431  15.740 -0.5124 -0.2695 -0.9741
10755TIP3   OH253679   3.510   3.263  13.386  0.0585 -0.1342 -0.0155
10755TIP3    H153680   3.582   3.229  13.439  0.6098 -0.2863 -0.8556
10755TIP3    H253681   3.543   3.260  13.296  0.1353  2.6836 -0.1192
10756TIP3   OH253682   0.645   5.475  16.089  0.0511 -0.5664  0.0533
10756TIP3    H153683   0.638   5.554  16.035 -1.2525  0.1596  1.2520
10756TIP3    H253684   0.556   5.461  16.122  0.3449 -2.3377  0.1386
10757TIP3   OH253685   2.752   2.265  11.804 -0.2863  0.2307 -0.8456
10757TIP3    H153686   2.847   2.269  11.792 -0.2176 -0.4153 -0.5312
10757TIP3    H253687   2.727   2.179  11.771 -1.0663  1.2318 -2.9952
10758TIP3   OH253688   3.319   0.134   0.371 -0.5497  0.3436 -0.0807
10758TIP3    H153689   3.265   0.188   0.314 -0.6514 -0.2971 -0.5948
10758TIP3    H253690   3.391   0.191   0.398 -0.4613  0.6261 -0.9042
10759TIP3   OH253691   4.319   0.120   2.952  0.0925 -0.0213 -0.3499
10759TIP3    H153692   4.231   0.134   2.987 -0.0701  0.2441 -0.8436
10759TIP3    H253693   4.332   0.194   2.893  0.1330 -0.7639 -1.2790
10760TIP3   OH253694   0.324   5.174   2.095  0.4629  0.0601  0.1689
10760TIP3    H153695   0.368   5.111   2.039  0.2534  1.1310 -1.2459
10760TIP3    H253696   0.355   5.154   2.183  0.4041 -1.9829 -0.2458
10761TIP3   OH253697   0.999   3.660   1.995  0.1451 -0.2435 -0.3572
10761TIP3    H153698   0.945   3.739   1.995 -0.4416 -0.6256  0.7418
10761TIP3    H253699   1.071   3.680   1.936 -0.3710  0.8538 -0.6332
10762TIP3   OH253700   6.560   3.874   2.547  0.3414  0.1962 -0.1409
10762TIP3    H153701   6.643   3.888   2.501  0.5185 -1.2828 -0.3105
10762TIP3    H253702   6.565   3.933   2.623  1.8249 -0.3014  0.1860
10763TIP3   OH253703   3.534   0.891  13.709 -0.2405  0.4819  0.3647
10763TIP3    H153704   3.492   0.955  13.766  2.6731  1.4627  1.5537
10763TIP3    H253705   3.470   0.872  13.642 -2.3676  2.2001  1.8471
10764TIP3   OH253706   6.463   2.102  15.235  0.2437  0.0747 -0.2854
10764TIP3    H153707   6.411   2.113  15.315  1.3046 -1.5635  0.6679
10764TIP3    H253708   6.451   2.010  15.211  0.5014  0.3740 -1.6256
10765TIP3   OH253709   1.904   1.975   2.422  0.3338 -0.0083  0.0693
10765TIP3    H153710   1.952   2.042   2.470  1.4960 -1.3604  0.8247
10765TIP3    H253711   1.965   1.943   2.356  1.1951 -2.9977  2.1751
10766TIP3   OH253712   1.172   5.482  15.017 -0.4535  0.4638  0.7891
10766TIP3    H153713   1.180   5.458  14.924 -1.6014 -4.2370  1.7794
10766TIP3    H253714   1.126   5.565  15.016  1.2566  1.5037 -2.9175
10767TIP3   OH253715   4.016   4.952  14.232 -0.2961  0.3985 -0.0796
10767TIP3    H153716   4.079   4.999  14.178 -1.4468 -0.2177 -1.9972
10767TIP3    H253717   3.934   4.999  14.220 -1.3345 -1.7360 -1.5828
10768TIP3   OH253718   1.552   2.456  14.171  0.4383  0.0143  0.2232
10768TIP3    H153719   1.645   2.456  14.148  0.6517 -1.6964  0.9967
10768TIP3    H253720   1.523   2.546  14.154  1.7216  0.0580 -2.0111
10769TIP3   OH253721   2.876   4.516  12.126 -0.5408 -0.2258 -0.0116
10769TIP3    H153722   2.796   4.563  12.151 -0.1936  1.3199 -1.7233
10769TIP3    H253723   2.867   4.504  12.031  0.5223 -1.4707  0.0408
10770TIP3   OH253724   4.479   4.915   3.447 -0.5727  0.3702  0.2174
10770TIP3    H153725   4.526   4.832   3.441  0.5192  0.9092  1.1592
10770TIP3    H253726   4.386   4.890   3.449 -0.1957 -0.9212  2.1490
10771TIP3   OH253727   0.785   2.861  14.934 -0.0591 -0.2601  0.0308
10771TIP3    H153728   0.770   2.785  14.877  0.7588 -0.7629  0.4806
10771TIP3    H253729   0.717   2.855  15.001  1.3614 -1.8460  1.3550
10772TIP3   OH253730   6.460   0.326   0.117  0.7196  0.1331  0.1219
10772TIP3    H153731   6.549   0.332   0.152  0.0122  0.2533  1.9286
10772TIP3    H253732   6.404   0.361   0.186 -0.7470 -0.0035 -0.9707
10773TIP3   OH253733   1.889   2.715   5.966 -0.3240 -0.3533  0.1257
10773TIP3    H153734   1.920   2.744   6.052 -2.8973  0.7383  0.7298
10773TIP3    H253735   1.889   2.795   5.913 -0.3283 -0.7109 -0.4152
10774TIP3   OH253736   4.428   2.891  15.165 -0.0221  0.3262 -0.1820
10774TIP3    H153737   4.445   2.985  15.171  1.9023 -0.0643  0.6632
10774TIP3    H253738   4.336   2.882  15.191  0.2143  1.8089  1.2313
10775TIP3   OH253739   1.519   4.242  16.845  0.1251  0.5305 -0.3213
10775TIP3    H153740   1.488   4.301  16.913  0.1367  0.0265  0.1182
10775TIP3    H253741   1.443   4.190  16.821  0.4345 -0.1728  0.2118
10776TIP3   OH253742   5.223   5.170   0.386 -0.0137  0.6201 -0.5174
10776TIP3    H153743   5.229   5.083   0.347  0.1606 -0.0521  0.9662
10776TIP3    H253744   5.152   5.163   0.450  0.2214  1.4613 -0.1509
10777TIP3   OH253745   1.851   3.747   5.265  0.0037 -0.0750 -0.4723
10777TIP3    H153746   1.922   3.802   5.297  3.7915 -4.2390 -1.2203
10777TIP3    H253747   1.834   3.779   5.176  0.2305  1.6010  0.0748
10778TIP3   OH253748   3.973   1.042   3.383 -0.0666  0.2134  0.3308
10778TIP3    H153749   3.909   1.102   3.420 -1.9032 -1.5628  0.1070
10778TIP3    H253750   3.921   0.978   3.335  1.8564 -1.5869  0.5902
10779TIP3   OH253751   4.047   6.155   3.210  0.4929  0.3952 -0.5607
10779TIP3    H153752   4.002   6.194   3.136  0.9026  0.9503 -0.5190
10779TIP3    H253753   3.992   6.080   3.235 -0.6694  1.3501 -0.2016
10780TIP3   OH253754   0.167   0.770  12.872  0.0476 -0.1807  0.0690
10780TIP3    H153755   0.187   0.855  12.911 -1.8528  0.2703  0.1166
10780TIP3    H253756   0.233   0.758  12.805 -0.1877  1.7531 -0.5442
10781TIP3   OH253757   5.507   6.433  13.976  0.2748 -0.0588  0.1994
10781TIP3    H153758   5.560   6.399  13.904  0.3727  1.5438 -0.5070
10781TIP3    H253759   5.499   6.360  14.036  0.6969 -1.2509 -1.1554
10782TIP3   OH253760   6.622   1.282   2.999  0.5054 -0.0424 -0.1189
10782TIP3    H153761   6.593   1.209   3.055 -2.5051  0.7862 -0.5228
10782TIP3    H253762   6.662   1.344   3.060  1.0857 -1.0212  0.5255
10783TIP3   OH253763   0.695   4.552  13.021 -0.2114  0.1390 -0.2896
10783TIP3    H153764   0.677   4.616  12.953  0.9959 -0.5177 -1.2439
10783TIP3    H253765   0.768   4.590  13.071  1.3464 -1.0294 -1.6249
10784TIP3   OH253766   2.404   2.225   2.237 -0.0385  0.2391 -1.0117
10784TIP3    H153767   2.371   2.315   2.237  0.7740  0.5411  0.3060
10784TIP3    H253768   2.429   2.209   2.146 -2.2081  0.5797 -1.7106
10785TIP3   OH253769   0.485   5.094  15.719  0.2776 -0.2928  0.0660
10785TIP3    H153770   0.523   5.009  15.700 -0.7245 -1.1844  1.8867
10785TIP3    H253771   0.558   5.156  15.710  1.6460 -1.6861  1.2579
10786TIP3   OH253772   5.737   2.456   4.395 -0.1023  0.1250  0.0377
10786TIP3    H153773   5.774   2.422   4.314 -3.0276 -0.3172 -1.2097
10786TIP3    H253774   5.687   2.534   4.368  0.9225  1.4447  1.8179
10787TIP3   OH253775   5.780   4.016  14.547  0.6805 -0.1591  0.0279
10787TIP3    H153776   5.862   4.061  14.529  0.3716  0.5678  0.4004
10787TIP3    H253777   5.762   4.036  14.639  0.1413 -0.3901 -0.0277
10788TIP3   OH253778   4.294   4.090   5.091 -0.3675 -0.1176 -0.2426
10788TIP3    H153779   4.203   4.113   5.108 -0.4069 -0.9228  0.6851
10788TIP3    H253780   4.290   4.021   5.025 -0.4449 -0.2990 -0.0488
10789TIP3   OH253781   0.464   3.242   4.282  0.0012  0.0967 -1.1124
10789TIP3    H153782   0.430   3.321   4.239 -2.1790 -0.8672 -1.2323
10789TIP3    H253783   0.399   3.222   4.349  1.2541 -0.8076 -0.1597
10790TIP3   OH253784   1.251   4.953   2.154  0.7686 -0.0975 -0.2157
10790TIP3    H153785   1.185   4.888   2.130  0.7259 -0.2272  0.2581
10790TIP3    H253786   1.317   4.903   2.203  0.6521  0.2550  0.2935
10791TIP3   OH253787   0.651   0.926  16.149 -0.1057 -0.4362 -0.3891
10791TIP3    H153788   0.705   1.004  16.143  2.0056 -1.8179  0.2112
10791TIP3    H253789   0.707   0.855  16.117 -1.4554 -1.9561  0.5075
10792TIP3   OH253790   3.107   3.512   4.876  0.0987 -0.2532  0.0470
10792TIP3    H153791   3.156   3.432   4.892  0.3918 -0.3078 -1.1114
10792TIP3    H253792   3.156   3.580   4.923 -0.0003 -0.6918  0.7997
10793TIP3   OH253793   4.616   6.117   4.414  0.1214  0.0579 -0.4512
10793TIP3    H153794   4.524   6.091   4.417 -0.4160  2.0173  1.6247
10793TIP3    H253795   4.661   6.052   4.468 -0.1501 -0.4221 -0.7942
10794TIP3   OH253796   1.424   4.809   6.161 -0.0730 -0.5641 -0.1580
10794TIP3    H153797   1.419   4.904   6.153 -1.8392 -0.5713  0.4635
10794TIP3    H253798   1.517   4.789   6.160  0.3824  1.3196  1.1831
10795TIP3   OH253799   6.613   2.060  11.661  0.1343  0.5545 -0.5637
10795TIP3    H153800   6.614   2.021  11.748  0.5823 -0.0683 -0.8468
10795TIP3    H253801   6.530   2.109  11.658 -1.6425 -2.3908 -1.1105
10796TIP3   OH253802   2.991   3.257  12.839 -0.0637 -0.0431 -0.5224
10796TIP3    H153803   2.941   3.176  12.827  0.9732 -0.3910 -2.7789
10796TIP3    H253804   2.925   3.322  12.864 -1.4398 -0.8343 -1.9753
10797TIP3   OH253805   4.927   0.033   5.971  0.3168  0.3275  0.3150
10797TIP3    H153806   4.882  -0.001   6.049 -0.0408 -1.2665 -0.5784
10797TIP3    H253807   4.856   0.067   5.916  0.2198 -1.7376 -0.8740
10798TIP3   OH253808   6.231   0.318   0.981  0.2895 -0.0478  0.3166
10798TIP3    H153809   6.168   0.373   1.028  0.2489  0.9041 -0.8454
10798TIP3    H253810   6.179   0.242   0.953  0.3494 -0.7056  1.9166
10799TIP3   OH253811   5.157   1.909  13.764 -0.0050 -0.3281 -0.4493
10799TIP3    H153812   5.131   2.001  13.761 -0.5813 -0.4988 -0.7669
10799TIP3    H253813   5.158   1.882  13.672  1.3832 -0.3055 -0.4595
10800TIP3   OH253814   5.859   1.156  16.755 -0.7351 -0.5605  0.2631
10800TIP3    H153815   5.882   1.064  16.771 -2.2335 -0.7233  1.5043
10800TIP3    H253816   5.773   1.152  16.714 -0.1860  0.2368 -0.9986
10801TIP3   OH253817   3.718   0.167  15.701 -0.5121 -0.3144 -0.3200
10801TIP3    H153818   3.681   0.192  15.616  0.5507  1.0340 -0.4154
10801TIP3    H253819   3.670   0.219  15.765  0.5803  0.7982 -0.3695
10802TIP3   OH253820   0.838   6.586  11.254  0.0490  0.3054 -0.0927
10802TIP3    H153821   0.841   6.650  11.183 -0.4468  0.7722  0.3050
10802TIP3    H253822   0.797   6.509  11.216  0.8941  0.1199 -0.6532
10803TIP3   OH253823   2.161   3.486   3.350 -0.3957  0.0219  0.4234
10803TIP3    H153824   2.236   3.534   3.314 -0.8973 -0.4158 -1.2429
10803TIP3    H253825   2.198   3.435   3.422  0.7021  0.6426  0.3070
10804TIP3   OH253826   4.787   6.674   5.236 -0.3929 -0.1152 -0.3803
10804TIP3    H153827   4.844   6.636   5.302 -0.4285  2.0802  0.9834
10804TIP3    H253828   4.701   6.680   5.278  0.0482  3.2359  0.2220
10805TIP3   OH253829   3.171   1.372  12.576 -0.2954  0.0550 -0.2261
10805TIP3    H153830   3.133   1.454  12.545 -0.2486 -0.5611 -2.0369
10805TIP3    H253831   3.174   1.380  12.671 -0.7009  1.9556 -0.3612
10806TIP3   OH253832   4.125   4.036  14.729  0.0031 -0.1798 -0.2186
10806TIP3    H153833   4.032   4.055  14.742 -0.5102 -0.7319 -2.7404
10806TIP3    H253834   4.159   4.113  14.683  0.6283 -0.2467  0.1323
10807TIP3   OH253835   0.515   2.364  11.632 -0.6722 -0.2199  0.3065
10807TIP3    H153836   0.497   2.291  11.691  0.8962 -0.7919  0.1030
10807TIP3    H253837   0.483   2.335  11.547  1.3694 -1.3361 -0.1112
10808TIP3   OH253838   2.428   1.854   1.039  0.3206 -0.3860 -0.4119
10808TIP3    H153839   2.500   1.887   1.093  0.1147 -1.1088  0.3178
10808TIP3    H253840   2.440   1.759   1.039 -0.7005 -0.5229 -0.1815
10809TIP3   OH253841   4.233   1.029  16.824  0.1118 -0.8997 -0.1738
10809TIP3    H153842   4.155   0.991  16.783  1.1181 -1.6172 -1.4540
10809TIP3    H253843   4.298   0.959  16.822  1.4618  0.3374 -1.0461
10810TIP3   OH253844   4.329   4.053  10.258  0.0079  0.1593  0.2799
10810TIP3    H153845   4.364   3.968  10.232 -0.0325  0.0770  0.4892
10810TIP3    H253846   4.236   4.037  10.275 -0.2931  0.5241 -0.9538
10811TIP3   OH253847   4.165   4.701  11.830 -0.0136 -0.3587  0.4916
10811TIP3    H153848   4.171   4.794  11.809 -1.2982 -0.1076  1.1927
10811TIP3    H253849   4.138   4.660  11.748 -2.3486  0.2746  0.9114
10812TIP3   OH253850   3.641   4.715  12.336  0.3161  0.4645 -0.0774
10812TIP3    H153851   3.620   4.708  12.429 -1.1684 -0.6135 -0.4925
10812TIP3    H253852   3.564   4.757  12.297 -0.4678 -2.0477 -1.3404
10813TIP3   OH253853   5.766   5.473  15.062 -0.2870 -0.3497 -0.1978
10813TIP3    H153854   5.672   5.459  15.075 -0.1724 -0.8487  0.0746
10813TIP3    H253855   5.785   5.553  15.111 -0.4720 -0.5167  0.1466
10814TIP3   OH253856   0.538   5.398  14.629 -0.6264 -0.0688 -0.2920
10814TIP3    H153857   0.520   5.349  14.549 -1.9122 -0.7050  0.3665
10814TIP3    H253858   0.451   5.419  14.663 -0.0852 -0.0150  1.0551
10815TIP3   OH253859   4.560   4.546  17.015  0.8577  0.3988  0.0996
10815TIP3    H153860   4.596   4.479  17.073  0.3387  0.8033  0.8913
10815TIP3    H253861   4.545   4.500  16.932  0.5683 -0.4457  0.6187
10816TIP3   OH253862   4.721   2.393   2.308  0.9773 -0.2509 -0.2800
10816TIP3    H153863   4.635   2.374   2.270  1.0668 -0.9400 -0.1453
10816TIP3    H253864   4.703   2.416   2.399  0.8237  0.7694 -0.5670
10817TIP3   OH253865   0.851   4.811   4.401  0.0899  0.4038  0.1996
10817TIP3    H153866   0.858   4.867   4.324  3.6591  0.3057  0.3844
10817TIP3    H253867   0.894   4.729   4.375  1.2255  0.3345  2.2416
10818TIP3   OH253868   0.642   5.860  12.299  0.5055 -0.0744 -0.5881
10818TIP3    H153869   0.580   5.932  12.314 -0.2723 -1.5149  4.0483
10818TIP3    H253870   0.587   5.787  12.273  0.6669 -0.3230 -0.2349
10819TIP3   OH253871   5.450   2.533   4.724 -0.9148  0.0840  0.2121
10819TIP3    H153872   5.528   2.568   4.767 -1.6057  1.8166  0.1059
10819TIP3    H253873   5.432   2.451   4.769  0.9446 -0.3203  0.2603
10820TIP3   OH253874   3.226   3.321   3.103 -0.0911  0.2917  0.0891
10820TIP3    H153875   3.305   3.270   3.085 -1.3414 -1.5536 -0.2982
10820TIP3    H253876   3.195   3.349   3.017 -0.6290 -0.1575  0.1375
10821TIP3   OH253877   3.693   6.537   1.291 -0.1975 -0.0759 -0.3496
10821TIP3    H153878   3.610   6.580   1.270 -0.0142 -0.8532 -2.8191
10821TIP3    H253879   3.672   6.480   1.366 -2.1404 -0.9748 -1.5304
10822TIP3   OH253880   4.217   4.904  12.394 -0.0531 -0.5838 -0.6197
10822TIP3    H153881   4.282   4.975  12.392 -0.9962  0.3374  0.4877
10822TIP3    H253882   4.203   4.888  12.488 -2.1260 -0.1031 -0.8312
10823TIP3   OH253883   3.703   5.327   4.034 -0.4456 -0.0295 -0.0997
10823TIP3    H153884   3.721   5.373   4.116 -2.8443  0.7173  0.0589
10823TIP3    H253885   3.710   5.395   3.966  0.0899 -0.3229 -0.3355
10824TIP3   OH253886   0.365   1.424   3.468 -0.0996  0.3149  0.7397
10824TIP3    H153887   0.325   1.439   3.382  1.5463 -0.4463 -0.2050
10824TIP3    H253888   0.308   1.360   3.510 -0.3137 -0.1688 -0.2627
10825TIP3   OH253889   0.796   1.091   3.539  0.7840 -0.2309  0.2576
10825TIP3    H153890   0.790   1.077   3.633 -2.8315 -0.0793  0.1188
10825TIP3    H253891   0.819   1.184   3.530 -3.3383  0.9667  1.0509
10826TIP3   OH253892   5.003   4.796  14.878  0.3873 -0.2795 -0.2525
10826TIP3    H153893   5.070   4.759  14.935  0.0448 -0.0722  0.2819
10826TIP3    H253894   4.956   4.719  14.844  0.8932 -0.4257 -0.6371
10827TIP3   OH253895   5.717   3.375  11.079  0.2437  0.3223  0.1440
10827TIP3    H153896   5.733   3.332  11.163  0.4175  1.1568  0.5458
10827TIP3    H253897   5.728   3.306  11.014 -1.4077 -0.7019  0.9097
10828TIP3   OH253898   2.868   6.141  16.348  0.2256 -0.0528  0.3218
10828TIP3    H153899   2.953   6.097  16.345  0.5885  0.5600  1.3313
10828TIP3    H253900   2.881   6.222  16.298  0.6231  0.6554  1.5278
10829TIP3   OH253901   1.649   3.297   3.945 -0.0309  1.0372  0.2431
10829TIP3    H153902   1.729   3.339   3.912  0.2473  0.0273 -0.3719
10829TIP3    H253903   1.623   3.351   4.020  1.6366  0.9475  0.9024
10830TIP3   OH253904   2.541   0.181   3.391 -0.2623 -0.1304 -0.8401
10830TIP3    H153905   2.463   0.191   3.445  0.2596  0.0970 -0.1310
10830TIP3    H253906   2.524   0.102   3.339 -0.0653 -1.3299  0.8552
10831TIP3   OH253907   3.141   6.446   6.178  0.3041  0.4109 -0.1476
10831TIP3    H153908   3.205   6.512   6.204  0.4373  0.2861 -0.1610
10831TIP3    H253909   3.135   6.455   6.083  0.8210 -0.0536 -0.2250
10832TIP3   OH253910   1.770   3.515   3.044 -0.4528 -0.2636  0.0134
10832TIP3    H153911   1.739   3.579   2.980 -0.6077 -1.0612 -0.7260
10832TIP3    H253912   1.864   3.507   3.027 -0.2808  0.3997  0.6703
10833TIP3   OH253913   3.727   6.574   6.488  0.2595  1.2408  0.1680
10833TIP3    H153914   3.666   6.541   6.422 -0.6596 -0.6118  1.8783
10833TIP3    H253915   3.807   6.525   6.473 -0.1301  0.4023  0.7461
10834TIP3   OH253916   4.562   0.864   5.649 -0.2360  0.0021 -0.0167
10834TIP3    H153917   4.546   0.797   5.716  1.3004 -0.6829 -0.3161
10834TIP3    H253918   4.527   0.945   5.687  1.7362 -0.1145  2.1477
10835TIP3   OH253919   3.786   2.398  14.108  0.3785  0.7366 -0.3869
10835TIP3    H153920   3.721   2.446  14.057 -1.1431 -0.7905  0.0264
10835TIP3    H253921   3.870   2.433  14.080 -0.5326  1.3967 -2.3871
10836TIP3   OH253922   1.573   0.226   3.993  0.6684 -0.1135 -0.0137
10836TIP3    H153923   1.592   0.189   4.079  0.4641 -1.0427 -0.3669
10836TIP3    H253924   1.524   0.306   4.012 -1.1474 -1.3724  0.6743
10837TIP3   OH253925   6.696   4.540  16.516  0.2548  0.6858 -0.5139
10837TIP3    H153926   6.718   4.540  16.423  0.3529  0.7040 -0.4917
10837TIP3    H253927   6.747   4.469  16.553 -0.7621 -0.1645 -0.7067
10838TIP3   OH253928   4.407   3.375   5.413  0.0366 -0.1094 -0.1624
10838TIP3    H153929   4.391   3.430   5.490  1.0466 -2.2757  1.6341
10838TIP3    H253930   4.500   3.388   5.393  0.1178 -0.6773 -0.1416
10839TIP3   OH253931   1.891   5.509  13.308  0.3412 -0.5373  0.1228
10839TIP3    H153932   1.893   5.429  13.360  1.3733 -1.3677 -1.1564
10839TIP3    H253933   1.799   5.536  13.309  0.2315 -0.8966  1.7927
10840TIP3   OH253934   0.047   5.932   4.484  0.5055 -0.3571  0.2286
10840TIP3    H153935   0.118   5.991   4.511  0.5594 -0.3448  0.0663
10840TIP3    H253936  -0.020   5.990   4.447  1.0774 -0.4808 -1.0592
10841TIP3   OH253937   4.739   0.531  12.249 -0.3317  0.0265  0.4353
10841TIP3    H153938   4.714   0.621  12.273  0.2023  0.3940 -0.3552
10841TIP3    H253939   4.678   0.507  12.179  0.8565  0.5573 -0.8068
10842TIP3   OH253940   4.720   0.029  13.385  0.6052  0.5923  0.7438
10842TIP3    H153941   4.731  -0.024  13.307  2.1302 -0.1927  1.4780
10842TIP3    H253942   4.750   0.116  13.359  1.1454  0.3240  0.4601
10843TIP3   OH253943   4.602   2.813   0.996  0.1622 -0.4271 -0.4395
10843TIP3    H153944   4.524   2.860   1.026  0.9280  1.7886 -1.7569
10843TIP3    H253945   4.611   2.838   0.904  2.5926 -0.3589 -0.2302
10844TIP3   OH253946   4.065   2.304   3.203  0.4032 -0.4816 -0.3508
10844TIP3    H153947   3.971   2.298   3.183 -0.0742  0.3144  1.5276
10844TIP3    H253948   4.100   2.364   3.137 -0.2225 -1.4864 -1.6244
10845TIP3   OH253949   3.010   0.773  13.172 -0.1897 -0.3715 -0.0998
10845TIP3    H153950   3.017   0.830  13.248 -0.0059  0.7520 -0.9423
10845TIP3    H253951   3.083   0.799  13.116  0.4914 -2.1195 -0.0493
10846TIP3   OH253952   3.065   3.211   6.403  0.2506  0.4578  0.5965
10846TIP3    H153953   3.098   3.298   6.424  1.1563  0.2774 -0.0711
10846TIP3    H253954   3.054   3.169   6.489  2.0707  0.4056  0.8100
10847TIP3   OH253955   3.449   3.231   6.505 -0.5591  0.2215 -0.2982
10847TIP3    H153956   3.476   3.139   6.505 -0.9350  0.1021  1.2869
10847TIP3    H253957   3.512   3.274   6.563 -1.8237  0.5365  0.8448
10848TIP3   OH253958   0.747   4.033  12.028 -0.2131 -0.3506  0.2846
10848TIP3    H153959   0.701   4.100  11.978  1.2235  0.8333  0.5127
10848TIP3    H253960   0.828   4.076  12.057  1.1883 -2.4904 -0.3946
10849TIP3   OH253961   3.992   3.818  16.289  0.1427 -0.3897 -0.0788
10849TIP3    H153962   3.904   3.850  16.270 -0.2806 -0.8237  1.0885
10849TIP3    H253963   3.984   3.722  16.286  0.7811 -0.4255 -0.8560
10850TIP3   OH253964   6.300   6.189  15.584 -0.0241 -0.1091 -0.1896
10850TIP3    H153965   6.357   6.205  15.659  1.4654 -1.7233 -0.9635
10850TIP3    H253966   6.351   6.219  15.508 -1.4643  1.3829 -0.6087
10851TIP3   OH253967   1.147   4.499   6.658  0.3070 -0.1400  0.5827
10851TIP3    H153968   1.125   4.419   6.610  0.7935 -0.2146  0.4787
10851TIP3    H253969   1.066   4.522   6.704 -0.6426  0.7343 -1.4168
10852TIP3   OH253970   4.162   2.895   5.530 -0.3369 -0.4716  0.3167
10852TIP3    H153971   4.095   2.904   5.462 -0.6783  0.7225  0.8008
10852TIP3    H253972   4.115   2.863   5.607 -0.3205  0.1906  0.6045
10853TIP3   OH253973   1.347   1.389  14.136 -0.1401 -0.5718 -0.0771
10853TIP3    H153974   1.259   1.367  14.167 -0.2836  0.7662  0.5035
10853TIP3    H253975   1.335   1.417  14.045 -0.2838 -0.5669 -0.0551
10854TIP3   OH253976   6.294   5.006   4.474  0.1297 -0.2345  0.1821
10854TIP3    H153977   6.322   4.988   4.564  1.1292  1.4880  0.2325
10854TIP3    H253978   6.376   5.018   4.425 -0.4370  1.5001 -0.3900
10855TIP3   OH253979   3.375   5.368  15.970 -0.5172 -0.0313  0.1626
10855TIP3    H153980   3.339   5.366  16.059 -1.6837 -2.2689 -0.3232
10855TIP3    H253981   3.300   5.391  15.915  0.1843  1.2568 -0.2546
10856TIP3   OH253982   2.414   1.109  15.621  0.9785 -0.3486  0.0217
10856TIP3    H153983   2.440   1.189  15.667  2.2232  0.1114 -1.4255
10856TIP3    H253984   2.489   1.088  15.565 -0.7621 -0.4555 -2.3504
10857TIP3   OH253985   2.048   5.443   0.922 -0.0644 -0.1605  0.3053
10857TIP3    H153986   2.133   5.482   0.942 -0.2568  0.2002  0.4277
10857TIP3    H253987   2.047   5.435   0.827  0.2698 -0.5419  0.3319
10858TIP3   OH253988   2.789   3.640  15.451 -0.3322 -0.3180 -0.1258
10858TIP3    H153989   2.858   3.576  15.470 -1.5907 -1.6675  0.0018
10858TIP3    H253990   2.729   3.594  15.393 -0.8378  1.0377 -0.7067
10859TIP3   OH253991   0.128   1.392  16.819 -0.7192 -0.4552 -0.7056
10859TIP3    H153992   0.145   1.356  16.906 -1.0976  1.7902  0.3463
10859TIP3    H253993   0.097   1.318  16.767  0.4065 -2.0070  0.8156
10860TIP3   OH253994   3.534   5.040  12.825 -0.0336  0.3776 -0.2937
10860TIP3    H153995   3.580   4.975  12.771 -0.2107 -0.0781  0.1030
10860TIP3    H253996   3.479   4.988  12.883 -1.2383  0.9339 -0.9163
10861TIP3   OH253997   5.399   6.648   1.737  0.0090 -0.2143  0.4219
10861TIP3    H153998   5.337   6.642   1.810  0.1729 -2.0358  0.4487
10861TIP3    H253999   5.486   6.648   1.779  0.0851 -0.4900  0.2692
10862TIP3   OH254000   5.306   0.296   1.567 -0.2582  0.2254  0.4464
10862TIP3    H154001   5.325   0.328   1.479 -1.0269  0.1588  0.2537
10862TIP3    H254002   5.390   0.302   1.613  0.8140 -2.3903 -1.1001
10863TIP3   OH254003   1.360   4.226   4.964 -0.6597  0.3809 -0.1837
10863TIP3    H154004   1.378   4.175   4.885  3.4321 -1.1704  1.5949
10863TIP3    H254005   1.367   4.317   4.936  2.8208 -0.1372 -1.2942
10864TIP3   OH254006   0.629   0.494  17.033 -0.1430  0.1598 -0.0549
10864TIP3    H154007   0.539   0.523  17.043  0.0291  0.3592  0.9933
10864TIP3    H254008   0.658   0.535  16.951 -1.3381 -0.8103 -0.9687
10865TIP3   OH254009   6.349   5.772  14.492  0.3956 -0.2358  0.2285
10865TIP3    H154010   6.371   5.764  14.399 -0.8045 -0.4348 -0.0420
10865TIP3    H254011   6.284   5.704  14.507  0.7301 -0.3340  1.2680
10866TIP3   OH254012   2.070   2.624  12.511  0.1330  0.1022  0.0359
10866TIP3    H154013   2.001   2.664  12.564  0.0515  1.5385 -1.1404
10866TIP3    H254014   2.027   2.550  12.469 -0.5542  0.6736 -0.2778
10867TIP3   OH254015   3.891   1.471  14.284 -0.0400  0.2583 -0.0831
10867TIP3    H154016   3.852   1.507  14.204  1.4568  0.0730 -0.9087
10867TIP3    H254017   3.843   1.390  14.300 -1.2263  0.9452 -0.0456
10868TIP3   OH254018   0.001   0.732  16.521  0.2783  0.1868 -0.0666
10868TIP3    H154019   0.076   0.674  16.535  0.5639  0.5312 -0.1737
10868TIP3    H254020  -0.055   0.718  16.598  0.2179 -0.4279 -0.2192
10869TIP3   OH254021   5.562   0.482  13.221 -0.2865 -0.6256 -0.1640
10869TIP3    H154022   5.573   0.414  13.287 -1.8259 -0.9256 -0.2084
10869TIP3    H254023   5.484   0.456  13.173 -0.0796  0.4369 -1.0869
10870TIP3   OH254024   6.432   4.336  11.913  0.4969 -0.2150 -0.2028
10870TIP3    H154025   6.499   4.269  11.902  0.5142 -0.4193  1.0400
10870TIP3    H254026   6.473   4.401  11.971  0.0871  0.3119 -0.5013
10871TIP3   OH254027   3.286   3.558  11.135 -0.5090  0.1283  0.0368
10871TIP3    H154028   3.380   3.576  11.124 -0.6780  2.4347  1.7812
10871TIP3    H254029   3.264   3.501  11.062  1.7801  1.3869 -1.7332
10872TIP3   OH254030   1.915   1.161   1.283  0.0702  0.4024 -0.5023
10872TIP3    H154031   1.999   1.145   1.325 -0.2693  0.4334  0.1854
10872TIP3    H254032   1.903   1.086   1.225  0.0015 -0.2142  0.3027
10873TIP3   OH254033   4.451   1.101   4.515  0.3747 -0.2495 -0.3565
10873TIP3    H154034   4.470   1.064   4.601 -0.8467 -0.8614 -0.3258
10873TIP3    H254035   4.382   1.165   4.531 -1.2678 -1.7629 -1.1033
10874TIP3   OH254036   4.893   4.235  14.080  0.2026 -0.5437 -0.0341
10874TIP3    H154037   4.852   4.263  14.162  2.9335  0.4229  1.0647
10874TIP3    H254038   4.934   4.151  14.102  0.1972 -0.7090 -0.6578
10875TIP3   OH254039   2.351   2.850   2.471 -0.1183  0.0195 -0.0579
10875TIP3    H154040   2.328   2.875   2.560  0.2264 -0.1548  0.0797
10875TIP3    H254041   2.355   2.933   2.423 -1.1619  0.0370 -0.1144
10876TIP3   OH254042   4.925   1.604  16.800 -0.4035  0.2420  0.3198
10876TIP3    H154043   4.918   1.526  16.745 -0.2512  1.0895 -0.9386
10876TIP3    H254044   5.018   1.625  16.798 -0.7375  1.7244 -1.1977
10877TIP3   OH254045   2.612   5.065  10.534 -0.0137  0.4554 -0.0950
10877TIP3    H154046   2.701   5.101  10.535 -1.3593  3.9866 -0.4399
10877TIP3    H254047   2.591   5.051  10.626  0.5132  0.5354  0.0412
10878TIP3   OH254048   0.786   1.012   2.343 -0.3066  0.0047  0.2623
10878TIP3    H154049   0.810   0.920   2.349  1.4386  0.4229 -0.0360
10878TIP3    H254050   0.806   1.036   2.252  0.3527  0.9609  0.6529
10879TIP3   OH254051   5.713   6.660   4.449  0.5526  1.1614  0.4073
10879TIP3    H154052   5.647   6.591   4.447  0.5968  1.1234  0.2687
10879TIP3    H254053   5.722   6.682   4.542  0.7961  0.7355  0.4859
10880TIP3   OH254054   2.530   6.439  15.476 -0.8000 -0.2830  0.1534
10880TIP3    H154055   2.439   6.427  15.448  0.0843 -0.3609 -2.8907
10880TIP3    H254056   2.537   6.531  15.500 -1.9941 -0.5917  1.7938
10881TIP3   OH254057   4.654   0.500  17.199  0.6500  0.4599  0.4559
10881TIP3    H154058   4.610   0.421  17.167 -0.5032  0.6137  1.6197
10881TIP3    H254059   4.650   0.560  17.124 -1.0671  0.4322  0.4870
10882TIP3   OH254060   4.068   1.337  13.996 -0.3986 -0.0877 -0.2050
10882TIP3    H154061   4.083   1.425  14.030 -2.4604  0.2387 -0.0963
10882TIP3    H254062   4.064   1.281  14.073 -4.6951  0.5963  0.1956
10883TIP3   OH254063   2.460   6.205  13.515  0.0180  0.1142 -0.1495
10883TIP3    H154064   2.543   6.245  13.543  0.2631  0.2531 -1.0350
10883TIP3    H254065   2.471   6.112  13.534  1.3678 -0.2565 -2.4977
10884TIP3   OH254066   0.690   4.486  12.581 -0.1536 -0.2094  0.3519
10884TIP3    H154067   0.720   4.399  12.606 -0.3797 -0.5868 -0.6603
10884TIP3    H254068   0.628   4.510  12.650  1.6809  0.1618  1.9099
10885TIP3   OH254069   5.648   5.250  10.965 -0.5817 -0.3765 -0.4350
10885TIP3    H154070   5.616   5.336  10.990  0.0237 -0.5549  1.0280
10885TIP3    H254071   5.741   5.263  10.945 -0.3814 -0.7588  0.2182
10886TIP3   OH254072   4.699   2.403   2.932  0.0833 -0.0300 -0.3013
10886TIP3    H154073   4.777   2.357   2.965  1.2529  2.3518  0.3370
10886TIP3    H254074   4.730   2.491   2.911 -2.6170  1.2075  0.6960
10887TIP3   OH254075   2.294   2.535  12.805 -0.3589 -0.2640  0.3131
10887TIP3    H154076   2.297   2.461  12.866 -0.2463 -0.0885  0.5195
10887TIP3    H254077   2.240   2.600  12.850  0.5029  0.2370  0.6375
10888TIP3   OH254078   1.083   1.676  16.292 -0.3475  0.2780  0.3745
10888TIP3    H154079   1.025   1.637  16.228 -0.0665  1.3585 -0.5607
10888TIP3    H254080   1.073   1.622  16.371 -1.0845 -0.7320 -0.4125
10889TIP3   OH254081   2.442   4.637  13.302  0.2571 -0.2201 -0.4549
10889TIP3    H154082   2.492   4.558  13.324 -0.3704 -0.4448  0.2095
10889TIP3    H254083   2.351   4.606  13.295 -0.0336  0.4937  0.1120
10890TIP3   OH254084   5.857   2.210  15.377 -0.0072 -0.0434 -0.1692
10890TIP3    H154085   5.872   2.124  15.338 -3.1385 -0.9706  0.5168
10890TIP3    H254086   5.908   2.208  15.459  0.0990 -1.1772 -0.2542
10891TIP3   OH254087   0.924   1.400   1.826  0.2502  0.0139  0.1843
10891TIP3    H154088   1.005   1.356   1.801  0.1077  0.3492 -0.9046
10891TIP3    H254089   0.911   1.377   1.918  1.1349 -0.7258  0.1277
10892TIP3   OH254090   6.409   2.351  11.345  0.3612 -0.3536 -0.0099
10892TIP3    H154091   6.363   2.267  11.353 -1.2709  0.6110  1.0438
10892TIP3    H254092   6.360   2.399  11.279  0.8005  0.0871 -0.0136
10893TIP3   OH254093   4.000   1.501   5.478  0.5041  0.5060  0.0187
10893TIP3    H154094   3.950   1.521   5.558 -0.0437 -0.5425 -0.0529
10893TIP3    H254095   4.087   1.478   5.510 -0.6281 -3.3444  0.6650
10894TIP3   OH254096   4.120   6.421   1.931 -0.5588  0.3373  0.5481
10894TIP3    H154097   4.136   6.499   1.984  0.2139 -0.2518  1.1902
10894TIP3    H254098   4.076   6.360   1.990  0.5042 -0.4027  0.5915
10895TIP3   OH254099   1.430   4.796  13.925  0.1321  0.7688 -0.0177
10895TIP3    H154100   1.379   4.749  13.991  1.3778  1.0491  1.1647
10895TIP3    H254101   1.400   4.760  13.842 -2.2900  1.2260  0.6113
10896TIP3   OH254102   4.744   5.301   4.376 -0.4599 -0.0014 -0.1893
10896TIP3    H154103   4.719   5.388   4.344 -3.5675 -1.1588 -1.1262
10896TIP3    H254104   4.661   5.258   4.395  0.9792 -3.1309 -0.6889
10897TIP3   OH254105   5.736   3.451   5.754 -0.1378 -0.0397 -0.0320
10897TIP3    H154106   5.808   3.467   5.694  0.2977 -1.0238  0.2136
10897TIP3    H254107   5.765   3.377   5.807 -1.5536 -0.8174 -0.3237
10898TIP3   OH254108   6.761   2.191   0.337  0.8032  0.0612  0.6717
10898TIP3    H154109   6.732   2.108   0.375  1.5665 -0.1833  0.7334
10898TIP3    H254110   6.786   2.168   0.247  1.1019  0.2031  0.7185
10899TIP3   OH254111   6.165   4.254  11.740 -0.7474  0.1756  0.0991
10899TIP3    H154112   6.179   4.340  11.700 -0.8597  0.4140  0.5708
10899TIP3    H254113   6.189   4.191  11.671  0.3009  0.5799  0.0970
10900TIP3   OH254114   3.528   0.624   5.794 -0.5576  0.2275 -0.3756
10900TIP3    H154115   3.504   0.670   5.875  1.4833  0.5659  0.0622
10900TIP3    H254116   3.505   0.533   5.809 -0.4498  0.3438  0.4764
10901TIP3   OH254117   5.731   2.649   5.829 -0.0536 -0.2433  0.1109
10901TIP3    H154118   5.806   2.652   5.889 -0.4131 -1.6012  0.6425
10901TIP3    H254119   5.696   2.561   5.839 -2.1221  0.5979  0.3382
10902TIP3   OH254120   6.113   3.254  11.048  1.1797 -0.3216  0.1825
10902TIP3    H154121   6.022   3.283  11.056  1.6632  1.2269  0.2545
10902TIP3    H254122   6.158   3.296  11.121  1.6779 -2.2506  0.9902
10903TIP3   OH254123   1.537   0.993   0.652 -0.1108 -0.3416 -0.3438
10903TIP3    H154124   1.444   0.993   0.628  0.2537 -1.2891 -1.8231
10903TIP3    H254125   1.554   0.904   0.683  0.8643 -0.9424 -2.4581
10904TIP3   OH254126   4.319   2.299   4.840 -0.2185  0.3320 -0.5267
10904TIP3    H154127   4.348   2.350   4.765  0.5235 -0.1365 -0.5685
10904TIP3    H254128   4.348   2.209   4.821  1.1869  0.4425  0.9239
10905TIP3   OH254129   2.215   4.553   5.814  0.2185  0.5990  0.2523
10905TIP3    H154130   2.213   4.465   5.850  0.6557  0.2874 -0.4713
10905TIP3    H254131   2.123   4.581   5.812 -0.0469 -0.3021 -0.6290
10906TIP3   OH254132   4.021   1.241   2.865 -0.0491 -0.1631  0.2483
10906TIP3    H154133   4.023   1.146   2.878  0.5475 -0.1632  0.1723
10906TIP3    H254134   3.928   1.262   2.857 -0.1886 -0.7307  0.3436
10907TIP3   OH254135   5.294   2.921   0.800 -0.5509 -0.2559  0.3094
10907TIP3    H154136   5.379   2.956   0.772 -0.5769 -0.1286  0.3946
10907TIP3    H254137   5.230   2.965   0.744 -0.6768  0.6173  1.1404
10908TIP3   OH254138   6.152   2.774   0.191 -0.0397  0.1705  0.1605
10908TIP3    H154139   6.093   2.754   0.264 -0.0085 -1.7423 -0.2907
10908TIP3    H254140   6.097   2.820   0.128 -0.4439  0.5115  0.7511
10909TIP3   OH254141   0.395   3.525  12.078  0.0325 -0.4680  0.3898
10909TIP3    H154142   0.405   3.454  12.141  0.7531 -0.8923 -0.1939
10909TIP3    H254143   0.306   3.515  12.045  0.5139 -1.8058 -0.5365
10910TIP3   OH254144   0.576   0.821   2.618  0.5445  0.0298 -0.2937
10910TIP3    H154145   0.507   0.881   2.644 -1.0136 -0.9819 -1.9616
10910TIP3    H254146   0.657   0.866   2.642 -0.5998  2.5083 -0.9278
10911TIP3   OH254147   4.958   6.204  15.465 -0.1914 -0.0688  0.1881
10911TIP3    H154148   4.954   6.239  15.376 -1.3208 -0.7463 -0.0317
10911TIP3    H254149   4.876   6.231  15.506  0.3265  0.2480  1.0315
10912TIP3   OH254150   3.788   3.680   0.951 -0.0158  1.6552 -0.1096
10912TIP3    H154151   3.836   3.612   0.904  0.8625  1.9952  0.2945
10912TIP3    H254152   3.799   3.658   1.043 -1.3636  1.2459 -0.0349
10913TIP3   OH254153   0.103   1.691   6.279  0.3070  0.0471 -0.5110
10913TIP3    H154154   0.021   1.740   6.271 -0.1400 -0.5789  0.0974
10913TIP3    H254155   0.136   1.712   6.366 -0.0664 -0.9823 -0.1105
10914TIP3   OH254156   4.938   0.370  14.716 -0.5538  0.1397  0.0052
10914TIP3    H154157   4.908   0.387  14.805  0.3120  0.7455  0.1754
10914TIP3    H254158   5.016   0.315  14.726 -0.2103  0.5561 -0.3650
10915TIP3   OH254159   6.776   0.546   3.593  0.1267  0.2886  0.3260
10915TIP3    H154160   6.853   0.574   3.642 -0.2356 -1.0649  1.7051
10915TIP3    H254161   6.707   0.541   3.659 -0.8575  0.3393 -0.6905
10916TIP3   OH254162   4.830   3.511  15.018 -0.8562 -0.6846  0.1569
10916TIP3    H154163   4.742   3.520  14.981 -0.1390  0.5599 -1.3014
10916TIP3    H254164   4.875   3.451  14.958 -1.1410 -2.5607  1.7435
10917TIP3   OH254165   2.099   1.546   2.837  0.8767 -0.3450  0.3267
10917TIP3    H154166   2.086   1.641   2.837  1.0679 -0.2739  2.7688
10917TIP3    H254167   2.123   1.525   2.747 -0.9388  1.6594 -0.6762
10918TIP3   OH254168   0.640   4.853  15.701 -0.0691 -0.0552  0.0558
10918TIP3    H154169   0.730   4.821  15.697  0.1261  0.2319  1.7483
10918TIP3    H254170   0.597   4.813  15.626  1.9232  1.2837 -1.8407
10919TIP3   OH254171   5.389   5.599  14.392 -0.1655 -0.2952  0.0273
10919TIP3    H154172   5.302   5.640  14.397 -0.2105 -0.4353  0.4582
10919TIP3    H254173   5.411   5.599  14.299 -0.1744  0.6976  0.0218
10920TIP3   OH254174   3.999   3.064   2.426 -0.4775  0.3928  0.4846
10920TIP3    H154175   4.027   2.981   2.464  0.5082  0.7016  0.4559
10920TIP3    H254176   4.063   3.081   2.357 -1.7123  0.2902 -0.7104
10921TIP3   OH254177   5.966   4.490  14.042 -0.4199 -0.0014 -0.4874
10921TIP3    H154178   5.956   4.414  13.984  0.7038 -0.2118 -0.4075
10921TIP3    H254179   5.961   4.565  13.983  1.2558 -0.2322 -0.9402
10922TIP3   OH254180   2.208   4.863   0.962  0.3436  0.0301 -0.0525
10922TIP3    H154181   2.223   4.909   0.880  1.8550  0.1411  0.2849
10922TIP3    H254182   2.154   4.923   1.014 -2.5950 -0.9602 -1.7960
10923TIP3   OH254183   0.554   2.692  13.744  0.3529  0.2392  0.2107
10923TIP3    H154184   0.518   2.780  13.755  0.9723  0.1303  3.5026
10923TIP3    H254185   0.497   2.636  13.796  1.2599 -0.9550 -0.0621
10924TIP3   OH254186   4.109   1.084   0.989  0.2977  0.2259 -0.4536
10924TIP3    H154187   4.043   1.143   0.954 -1.2943 -3.3568 -3.7702
10924TIP3    H254188   4.062   1.029   1.051  1.2289  0.6634  0.6742
10925TIP3   OH254189   4.055   2.791  16.154 -0.2700  0.4519 -0.1254
10925TIP3    H154190   4.140   2.804  16.196  0.6223  0.8144 -1.9857
10925TIP3    H254191   4.048   2.697  16.142 -0.6216  0.3292  1.0100
10926TIP3   OH254192   2.217   3.704  13.842 -0.0735  0.4567  0.2631
10926TIP3    H154193   2.196   3.782  13.894 -1.6611  0.0105  0.2995
10926TIP3    H254194   2.159   3.636  13.875  0.4971 -0.4479 -0.5619
10927TIP3   OH254195   2.269   0.959   2.855  0.3524 -0.1322 -0.4956
10927TIP3    H154196   2.190   0.909   2.879  0.1316 -0.4199 -1.7810
10927TIP3    H254197   2.330   0.893   2.823  0.2552  0.3510 -1.7008
10928TIP3   OH254198   1.171   4.075  13.941 -0.1144  0.6862  0.2480
10928TIP3    H154199   1.166   3.980  13.944  3.0321  0.4658 -0.1023
10928TIP3    H254200   1.150   4.097  13.850  0.8881  0.1959 -0.1041
10929TIP3   OH254201   1.591   1.096  11.002  0.1939  0.4090  0.0298
10929TIP3    H154202   1.613   1.022  10.945  0.5272 -1.7051  2.8202
10929TIP3    H254203   1.645   1.084  11.079 -0.0008  3.4308  0.6796
10930TIP3   OH254204   4.293   4.333   1.385 -0.0903 -0.7548 -0.2135
10930TIP3    H154205   4.306   4.333   1.290 -2.3032  1.0491 -0.5567
10930TIP3    H254206   4.285   4.241   1.408 -0.7980 -1.1541 -1.9749
10931TIP3   OH254207   5.746   1.350   4.501  0.3262 -0.1551  0.2587
10931TIP3    H154208   5.753   1.288   4.574  0.6776 -0.5498 -0.1101
10931TIP3    H254209   5.659   1.387   4.510  0.5693  0.1970  1.2027
10932TIP3   OH254210   0.869   6.020  16.827 -0.5427 -0.1688 -0.1971
10932TIP3    H154211   0.853   6.019  16.922 -2.4268 -0.5704 -0.4814
10932TIP3    H254212   0.781   6.029  16.789  0.2303  0.3185 -1.8990
10933TIP3   OH254213   2.067   0.452   1.756  0.1659 -1.0047 -0.2845
10933TIP3    H154214   2.012   0.491   1.824  0.5377 -1.7005  0.4296
10933TIP3    H254215   2.083   0.522   1.693  0.1490 -0.2485  0.5562
10934TIP3   OH254216   4.971   5.922   5.260  0.6274 -0.1475 -0.4107
10934TIP3    H154217   4.896   5.978   5.282  0.5794 -0.2945 -0.2013
10934TIP3    H254218   4.949   5.886   5.174  0.5040 -0.1109 -0.3955
10935TIP3   OH254219   0.393   5.994  12.826  0.9249  0.7512  0.4767
10935TIP3    H154220   0.358   6.004  12.915 -0.8031 -1.6951  0.1097
10935TIP3    H254221   0.486   6.016  12.835  0.8506  0.2765  2.9493
10936TIP3   OH254222   0.660   5.013  11.743 -0.0913 -0.1945  0.0890
10936TIP3    H154223   0.675   5.005  11.837 -1.3268 -0.8598  0.2304
10936TIP3    H254224   0.700   5.097  11.720  1.4623 -0.6699  0.9345
10937TIP3   OH254225   6.271   0.014   2.372 -0.3120  0.0395  0.1069
10937TIP3    H154226   6.218   0.094   2.371 -0.4411 -0.0484 -0.0962
10937TIP3    H254227   6.219  -0.048   2.423 -0.5445 -0.1429 -0.3505
10938TIP3   OH254228   4.431   6.124  15.341 -0.2578  0.0811 -0.2562
10938TIP3    H154229   4.491   6.164  15.404  0.9894  0.4132 -1.6257
10938TIP3    H254230   4.480   6.050  15.306 -1.8124 -1.4986  0.8132
10939TIP3   OH254231   4.373   2.423  14.059  0.2278  0.4476  0.2772
10939TIP3    H154232   4.302   2.438  14.122  1.5576  0.0227  1.8954
10939TIP3    H254233   4.358   2.489  13.991 -2.1946 -0.1636  0.1535
10940TIP3   OH254234   4.345   1.707  15.109  0.1369 -0.5141 -0.2428
10940TIP3    H154235   4.261   1.662  15.102 -0.4401  0.7790 -2.0588
10940TIP3    H254236   4.375   1.716  15.019  1.0455  1.1847  0.1936
10941TIP3   OH254237   4.186   0.646   5.081 -0.0744  0.0335 -0.1770
10941TIP3    H154238   4.226   0.589   5.015 -0.3106  0.3970 -0.6347
10941TIP3    H254239   4.134   0.586   5.135  2.0595 -0.6279  1.1848
10942TIP3   OH254240   2.652   3.468   4.756 -0.5023  0.3642  0.4038
10942TIP3    H154241   2.621   3.475   4.846  1.7188  3.2151  1.0154
10942TIP3    H254242   2.665   3.374   4.742 -2.9317 -0.3013  2.2884
10943TIP3   OH254243   1.973   1.584  11.435  0.3843 -0.2496  0.0957
10943TIP3    H154244   2.049   1.642  11.444 -0.4709  0.6283  1.9199
10943TIP3    H254245   1.999   1.503  11.480 -0.2129  0.5209  1.8669
10944TIP3   OH254246   5.770   3.868  11.539  0.0846  0.3516  0.5690
10944TIP3    H154247   5.797   3.941  11.484 -1.2025  0.2849 -0.1742
10944TIP3    H254248   5.700   3.905  11.593  0.7370  0.1753  1.5400
10945TIP3   OH254249   5.262   4.764  14.464 -0.0249  0.1707 -0.2296
10945TIP3    H154250   5.247   4.775  14.370 -2.2300  0.4757  0.1268
10945TIP3    H254251   5.346   4.806  14.481  0.4940 -0.0790 -2.1024
10946TIP3   OH254252   4.894   2.210  13.044 -0.6938  0.5070 -0.2279
10946TIP3    H154253   4.883   2.305  13.038 -1.7846  0.4830  1.2878
10946TIP3    H254254   4.977   2.199  13.091 -2.0039  0.7450  2.2235
10947TIP3   OH254255   2.659   5.546   4.112 -0.0497  0.2164 -0.5453
10947TIP3    H154256   2.595   5.553   4.183 -0.7413  0.3717 -1.1754
10947TIP3    H254257   2.664   5.452   4.094  0.3835  0.1451 -0.0631
10948TIP3   OH254258   3.156   1.373  14.025 -0.4869  1.0120  0.1958
10948TIP3    H154259   3.193   1.289  13.997  1.0035  1.9683 -0.7677
10948TIP3    H254260   3.198   1.391  14.110 -0.9982  0.6676  0.5238
10949TIP3   OH254261   1.977   0.717   6.359 -1.0548 -0.2996  0.3473
10949TIP3    H154262   2.058   0.767   6.351 -0.6434 -1.3101 -2.4300
10949TIP3    H254263   2.001   0.640   6.410 -0.6786  0.2377  0.9867
10950TIP3   OH254264   1.031   5.883  15.257  0.6971 -0.8242  0.3944
10950TIP3    H154265   1.072   5.947  15.315  0.6558  0.1940 -0.6672
10950TIP3    H254266   1.053   5.914  15.169 -0.3463 -1.5997 -0.1485
10951TIP3   OH254267   3.807   2.174  11.713 -0.1199  0.2042  0.2774
10951TIP3    H154268   3.772   2.176  11.623  0.7039 -0.2257 -0.0558
10951TIP3    H254269   3.869   2.102  11.713 -0.3752 -0.0243  1.3038
10952TIP3   OH254270   4.526   2.135   6.033  0.2745 -0.2693 -0.0469
10952TIP3    H154271   4.530   2.040   6.039  1.4822 -0.0650  3.3564
10952TIP3    H254272   4.486   2.163   6.115  0.6394  2.2055 -0.6705
10953TIP3   OH254273   3.948   0.714  15.711  0.1806 -0.2028  0.1720
10953TIP3    H154274   3.954   0.623  15.681  1.4723 -0.3598  0.8877
10953TIP3    H254275   3.989   0.765  15.641  2.0539 -0.4512  1.0674
10954TIP3   OH254276   1.547   1.533   5.036 -0.2878  0.1247  0.4408
10954TIP3    H154277   1.544   1.562   4.945  1.2055  1.2823  0.7443
10954TIP3    H254278   1.457   1.542   5.067 -0.7727 -0.1330 -0.8750
10955TIP3   OH254279   2.035   1.385  16.336  0.2848  0.1472 -0.4907
10955TIP3    H154280   2.085   1.427  16.266  1.0822 -0.1338 -0.0970
10955TIP3    H254281   2.099   1.328  16.380 -0.1201  0.5744  0.6742
10956TIP3   OH254282   2.125   5.314  11.328 -0.0055  0.4334  0.2478
10956TIP3    H154283   2.165   5.279  11.248  0.2853 -0.5349  0.8178
10956TIP3    H254284   2.150   5.407  11.327 -2.2545  1.0829 -2.1675
10957TIP3   OH254285   1.092   0.651  17.099  0.2404 -0.3001 -0.4150
10957TIP3    H154286   1.119   0.688  17.015  1.4498 -1.4391 -0.5559
10957TIP3    H254287   0.999   0.634  17.090 -0.0593  1.5012 -0.7979
10958TIP3   OH254288   1.852   2.753   4.161 -0.4395  0.5854 -0.4719
10958TIP3    H154289   1.907   2.733   4.085  1.4510 -1.0358  1.2400
10958TIP3    H254290   1.896   2.709   4.234 -1.7225  2.8037  1.7229
10959TIP3   OH254291   3.819   0.156   1.916  0.6219 -0.3832 -1.2517
10959TIP3    H154292   3.852   0.231   1.967  1.3577 -1.9829  0.6876
10959TIP3    H254293   3.879   0.085   1.936 -1.2860 -2.0871 -1.3966
10960TIP3   OH254294   5.593   4.045  15.714 -0.7726 -0.6606 -0.2423
10960TIP3    H154295   5.607   4.118  15.653 -0.2018 -0.3870  0.2115
10960TIP3    H254296   5.679   4.004  15.722 -0.4685  0.2962  1.6373
10961TIP3   OH254297   0.297   1.693   3.947 -0.0014  0.0141  0.6469
10961TIP3    H154298   0.327   1.779   3.978  0.1449 -0.7938  2.8416
10961TIP3    H254299   0.256   1.653   4.024 -1.8074 -1.1273 -0.8536
10962TIP3   OH254300   2.083   6.743   5.192  0.1730 -0.8363  0.4169
10962TIP3    H154301   2.065   6.683   5.264  0.8180 -0.8020  0.6038
10962TIP3    H254302   2.008   6.803   5.192  0.8801  0.0605  1.9751
10963TIP3   OH254303   5.099   3.405  13.650  0.4474 -0.5695 -0.3865
10963TIP3    H154304   5.185   3.439  13.624  0.4509 -0.9078 -0.8313
10963TIP3    H254305   5.038   3.475  13.626  0.4396 -0.9102 -1.4161
10964TIP3   OH254306   3.724   2.413   5.315 -0.0355 -0.3560 -0.0018
10964TIP3    H154307   3.662   2.358   5.267  1.3004 -0.3110 -1.8240
10964TIP3    H254308   3.773   2.460   5.247  1.3221  0.3490  1.4256
10965TIP3   OH254309   4.314   1.625   2.682  0.2044 -0.1646  0.0077
10965TIP3    H154310   4.376   1.624   2.755  0.1995  0.3881  0.0275
10965TIP3    H254311   4.365   1.660   2.608 -0.0965  0.3553  0.0398
10966TIP3   OH254312   4.092   1.095   4.178  0.6816  0.7441  0.3510
10966TIP3    H154313   4.055   1.128   4.260 -0.0873 -1.5760  0.9852
10966TIP3    H254314   4.187   1.097   4.193  0.5940  1.3418  0.8866
10967TIP3   OH254315   5.716   2.557   4.906  0.0272 -0.0903 -0.5933
10967TIP3    H154316   5.754   2.476   4.872 -0.0451 -0.5775  0.4812
10967TIP3    H254317   5.686   2.535   4.994  1.5122  1.5384  0.3513
10968TIP3   OH254318   2.339   3.036  16.486 -0.2015 -0.4583 -0.1975
10968TIP3    H154319   2.343   2.950  16.446 -1.3079  0.1649 -1.6997
10968TIP3    H254320   2.413   3.038  16.548 -0.0267 -2.3636 -0.3271
10969TIP3   OH254321   3.786   0.334   4.682  0.2380  0.1824  0.6343
10969TIP3    H154322   3.758   0.243   4.675 -0.5267  0.4380  0.2679
10969TIP3    H254323   3.857   0.342   4.618 -0.0293 -0.0264  0.3108
10970TIP3   OH254324   6.283   3.392   4.477  0.7034  0.2474 -0.5137
10970TIP3    H154325   6.332   3.406   4.395 -1.3746 -1.5734 -2.1427
10970TIP3    H254326   6.331   3.322   4.522  1.5200  0.8408 -0.4546
10971TIP3   OH254327   0.083   4.740  11.472  0.5064  0.5305  0.2564
10971TIP3    H154328   0.053   4.731  11.563 -0.1637  1.0932  0.0935
10971TIP3    H254329   0.083   4.651  11.438  1.5545  0.2097  1.0516
10972TIP3   OH254330   5.232   6.164  14.986  0.6283 -0.0272  0.2980
10972TIP3    H154331   5.242   6.090  15.047  2.1476  0.4032  0.6044
10972TIP3    H254332   5.218   6.239  15.043  0.1114  0.0776  0.0293
10973TIP3   OH254333   0.071   3.911   1.033  0.1058 -0.4912 -0.5752
10973TIP3    H154334   0.089   3.969   0.959  0.9862  0.7196  0.5685
10973TIP3    H254335   0.125   3.833   1.015 -0.9349 -0.9056 -2.0111
10974TIP3   OH254336   5.083   5.767  12.226  0.3801  0.3356 -0.9394
10974TIP3    H154337   5.120   5.685  12.260  0.6534  1.5184  1.7762
10974TIP3    H254338   5.159   5.817  12.196  0.3552  0.1644 -1.2850
10975TIP3   OH254339   1.741   1.189   2.343 -0.7767  0.7889 -0.5973
10975TIP3    H154340   1.706   1.182   2.432  1.2563 -0.6118  0.1486
10975TIP3    H254341   1.758   1.282   2.330  1.4878  0.7313  1.5660
10976TIP3   OH254342   3.798   1.761   5.826  0.3106 -0.3758 -0.4731
10976TIP3    H154343   3.783   1.734   5.917 -0.5054 -0.4835 -0.6322
10976TIP3    H254344   3.774   1.854   5.824  0.0182 -0.4548 -0.6501
10977TIP3   OH254345   1.287   3.366   5.097  0.2292  0.0873  0.2920
10977TIP3    H154346   1.378   3.338   5.104  0.3811  0.8222  1.4501
10977TIP3    H254347   1.274   3.382   5.004  1.4510  0.5195  0.1851
10978TIP3   OH254348   6.020   0.802   0.032 -0.0692 -0.2157 -0.5222
10978TIP3    H154349   5.925   0.809   0.022 -0.5386 -2.0049  2.2086
10978TIP3    H254350   6.048   0.892   0.050 -1.3218  0.2069 -0.6001
10979TIP3   OH254351   4.012   1.068  11.717  0.1759 -0.4110 -0.4049
10979TIP3    H154352   4.021   1.081  11.623  1.8097 -1.2460 -0.3829
10979TIP3    H254353   4.094   1.101  11.755  0.2911 -1.7205  0.5380
10980TIP3   OH254354   0.537   2.372  15.176  0.2468  0.2073  0.1475
10980TIP3    H154355   0.531   2.278  15.192  1.1517  0.2715  0.9566
10980TIP3    H254356   0.450   2.406  15.199  0.6666 -0.1042  2.3201
10981TIP3   OH254357   5.925   4.751  11.937 -0.3513  0.0128  0.2115
10981TIP3    H154358   5.930   4.665  11.895  0.0866 -0.6931  1.6839
10981TIP3    H254359   5.848   4.793  11.897 -0.2117 -0.8174 -0.9474
10982TIP3   OH254360   4.776   4.410  14.248  0.0447  0.6948 -0.2018
10982TIP3    H154361   4.712   4.374  14.310  0.1907 -1.1887 -1.0979
10982TIP3    H254362   4.808   4.489  14.290 -0.9867  0.2777  1.4366
10983TIP3   OH254363   6.495   2.526  14.911 -0.4391 -0.7910  0.2298
10983TIP3    H154364   6.487   2.599  14.972 -1.4402  0.2594 -1.1222
10983TIP3    H254365   6.491   2.448  14.966  1.4265  0.1656  1.7797
10984TIP3   OH254366   3.939   2.848  13.986 -0.2779  0.0551 -0.0294
10984TIP3    H154367   3.916   2.787  14.056  2.6714 -1.1440 -0.0259
10984TIP3    H254368   3.959   2.930  14.030 -0.3997 -0.1193  0.3480
10985TIP3   OH254369   6.025   0.130  11.810 -0.2542  0.2260  0.0959
10985TIP3    H154370   5.937   0.166  11.822 -0.3918 -0.2149  0.4503
10985TIP3    H254371   6.063   0.130  11.898 -0.6011 -1.3469  0.2660
10986TIP3   OH254372   5.051   6.616  10.604 -0.6146  0.0177  0.1218
10986TIP3    H154373   5.050   6.598  10.510 -1.3990 -0.4693  0.2192
10986TIP3    H254374   4.988   6.554  10.641 -2.6493  2.2320  0.5626
10987TIP3   OH254375   2.473   1.499   3.584 -0.4453  0.9127  0.0851
10987TIP3    H154376   2.405   1.439   3.552  0.5449  0.4196 -1.1348
10987TIP3    H254377   2.517   1.451   3.654 -1.5442  1.3603  1.1081
10988TIP3   OH254378   2.498   4.255   5.456  0.0512 -0.0961  0.3797
10988TIP3    H154379   2.570   4.315   5.438  0.2422 -0.4324  0.0189
10988TIP3    H254380   2.489   4.203   5.376  0.1732 -0.8426  0.8418
10989TIP3   OH254381   5.304   3.975  12.250 -0.1076  0.4718 -0.4756
10989TIP3    H154382   5.240   3.953  12.182 -1.2073  1.0854  0.3468
10989TIP3    H254383   5.289   4.068  12.268 -0.9523 -0.0629  1.7557
10990TIP3   OH254384   3.369   2.005   4.758  0.1580 -0.6401 -0.3082
10990TIP3    H154385   3.364   2.066   4.684  2.8144  0.1244  0.0661
10990TIP3    H254386   3.297   2.031   4.815 -1.2186 -0.4904 -2.0399
10991TIP3   OH254387   3.351   5.524   4.997 -0.1844 -0.0088  0.8871
10991TIP3    H154388   3.357   5.428   4.995  0.6218  0.0060  1.8095
10991TIP3    H254389   3.278   5.541   5.057 -0.0676 -0.0508  1.0440
10992TIP3   OH254390   2.143   0.943   4.919 -0.8391 -0.0497 -0.1714
10992TIP3    H154391   2.075   0.885   4.885 -0.3305 -0.5020 -0.4203
10992TIP3    H254392   2.207   0.950   4.847 -0.0614 -0.5238  0.4650
10993TIP3   OH254393   4.019   4.005  12.429  0.0282 -0.3241  0.5450
10993TIP3    H154394   4.020   3.979  12.521 -0.1016  0.6873  0.8372
10993TIP3    H254395   3.927   4.017  12.408  0.1422  1.1558  0.7873
10994TIP3   OH254396   5.804   1.618  12.191  0.1950  0.1733  0.2002
10994TIP3    H154397   5.803   1.528  12.223  1.3566  0.4109  0.9624
10994TIP3    H254398   5.897   1.640  12.186 -0.0239  0.6828 -1.8449
10995TIP3   OH254399   6.502   5.216   2.538 -0.2062  0.3221  0.6297
10995TIP3    H154400   6.502   5.293   2.482  1.6375 -0.8807 -1.0644
10995TIP3    H254401   6.578   5.227   2.594  0.9867 -1.0139 -0.7026
10996TIP3   OH254402   4.121   4.644  11.295 -0.6143  0.6625 -0.0447
10996TIP3    H154403   4.097   4.652  11.388 -1.0457 -1.6607  0.0622
10996TIP3    H254404   4.181   4.571  11.292  0.1105  1.3013 -1.5006
10997TIP3   OH254405   1.578   5.300   0.183  0.0179 -0.1026 -0.1540
10997TIP3    H154406   1.651   5.298   0.245 -0.8518  0.7590  0.9215
10997TIP3    H254407   1.504   5.334   0.235 -0.3029  2.2965 -2.0808
10998TIP3   OH254408   0.786   3.470  13.135 -0.0005 -0.4607  0.0010
10998TIP3    H154409   0.757   3.421  13.058 -0.1370 -1.7370  0.8392
10998TIP3    H254410   0.876   3.440  13.150  0.5947  0.9805 -0.5993
10999TIP3   OH254411   2.645   0.698  15.836  0.2408 -0.0242 -0.1358
10999TIP3    H154412   2.709   0.759  15.800 -0.1962  0.7120  0.3270
10999TIP3    H254413   2.660   0.700  15.931 -2.1112  2.0956  0.2649
11000TIP3   OH254414   6.037   0.486   3.677  0.3115 -0.7973  0.2488
11000TIP3    H154415   5.993   0.561   3.636  1.1581 -1.3638 -1.7277
11000TIP3    H254416   6.008   0.489   3.768 -0.1998  1.5354  0.0417
11001TIP3   OH254417   5.240   5.527  11.254  0.4812  0.9063 -0.1689
11001TIP3    H154418   5.263   5.558  11.166  2.3686 -1.3624 -0.5601
11001TIP3    H254419   5.312   5.557  11.309  0.1465  0.8962  0.2731
11002TIP3   OH254420   1.229   2.045  13.193  0.0336  0.3403 -0.0443
11002TIP3    H154421   1.190   2.115  13.245 -0.8847  0.1557 -0.4668
11002TIP3    H254422   1.316   2.033  13.230 -0.2253  0.9184  0.7727
11003TIP3   OH254423   4.685   3.917  13.210 -0.0308 -0.2484  0.4669
11003TIP3    H154424   4.723   3.930  13.297  0.8139  2.7982 -0.3041
11003TIP3    H254425   4.761   3.915  13.151 -0.7711  1.3415 -0.5856
11004TIP3   OH254426   5.538   0.144  13.808 -0.3755  0.6412 -0.2574
11004TIP3    H154427   5.584   0.117  13.728  2.1592  1.3430  0.9210
11004TIP3    H254428   5.545   0.068  13.866 -0.5443  0.8209 -0.0016
11005TIP3   OH254429   6.174   5.216  12.047 -0.2381 -0.2218  0.0260
11005TIP3    H154430   6.255   5.229  11.997 -0.3443  1.0908  0.1916
11005TIP3    H254431   6.123   5.156  11.992  0.8620 -1.1178 -0.0476
11006TIP3   OH254432   4.516   1.625   0.760  0.4970 -0.3811  0.1690
11006TIP3    H154433   4.538   1.691   0.826 -2.0957  0.2472  0.4428
11006TIP3    H254434   4.543   1.542   0.800  2.7504  0.3469  0.2781
11007TIP3   OH254435   5.117   5.466   3.152  0.3530  0.1871 -0.3246
11007TIP3    H154436   5.062   5.462   3.229  0.1838  0.3468 -0.4374
11007TIP3    H254437   5.170   5.386   3.156  2.5088  1.6257  1.5593
11008TIP3   OH254438   1.942   5.125  11.228 -0.2670  0.5036  0.1532
11008TIP3    H154439   1.937   5.077  11.310 -0.2701  2.0936  1.0886
11008TIP3    H254440   1.986   5.207  11.249  0.3397  0.6452 -1.5632
11009TIP3   OH254441   5.261   1.676  14.190  0.2878 -0.4734 -0.2262
11009TIP3    H154442   5.178   1.723  14.177  0.0678 -0.8663 -0.2387
11009TIP3    H254443   5.303   1.678  14.104  1.7952  2.5767  0.4995
11010TIP3   OH254444   4.119   0.272  11.647  0.4225  0.0149  0.1052
11010TIP3    H154445   4.058   0.207  11.684 -0.0191  0.4260  0.0994
11010TIP3    H254446   4.182   0.220  11.598 -0.6115 -0.3350 -0.8765
11011TIP3   OH254447   6.714   3.439   4.339 -0.1793 -0.0886  0.0412
11011TIP3    H154448   6.763   3.512   4.301  0.8524  0.5210  2.4602
11011TIP3    H254449   6.658   3.479   4.405 -1.4343 -1.2161 -0.3173
11012TIP3   OH254450   0.446   3.819   0.381 -0.6292  0.0257  0.3607
11012TIP3    H154451   0.482   3.848   0.465  0.2716  0.6525 -0.2420
11012TIP3    H254452   0.521   3.785   0.333 -0.9906  0.4791 -0.5360
11013TIP3   OH254453   4.732   1.915   4.456 -0.2005 -0.1904  0.1595
11013TIP3    H154454   4.657   1.972   4.439  0.8643  1.3675  0.5984
11013TIP3    H254455   4.693   1.829   4.469 -1.7323  0.1730 -1.7426
11014TIP3   OH254456   0.862   4.955   4.615  0.8044  0.3093 -0.5272
11014TIP3    H154457   0.943   4.998   4.584  0.1743  2.0099  0.1187
11014TIP3    H254458   0.852   4.880   4.557  1.1953  1.8278 -2.6442
11015TIP3   OH254459   1.634   4.792  14.667 -0.7543 -0.0620 -0.2541
11015TIP3    H154460   1.702   4.746  14.716 -1.9706 -1.1967  0.4124
11015TIP3    H254461   1.679   4.830  14.592  0.8227  0.1832  0.7860
11016TIP3   OH254462   4.327   2.841   3.388 -0.0749 -0.0709  0.1056
11016TIP3    H154463   4.284   2.756   3.389  0.9590 -0.6145 -0.1944
11016TIP3    H254464   4.312   2.877   3.476  0.2277 -0.9509  0.5272
11017TIP3   OH254465   3.693   4.418  12.321  0.5609 -0.2793  0.0814
11017TIP3    H154466   3.772   4.396  12.273  0.0573  0.3499 -1.0690
11017TIP3    H254467   3.646   4.478  12.263 -1.1659 -1.3246  0.3608
11018TIP3   OH254468   1.785   4.468   0.543 -0.5932 -0.0122 -0.0814
11018TIP3    H154469   1.759   4.428   0.460  0.7032 -2.4648  0.6755
11018TIP3    H254470   1.764   4.403   0.610  1.7055  0.4414  1.1447
11019TIP3   OH254471   4.408   4.682   1.612  0.1513  0.3318 -0.3428
11019TIP3    H154472   4.354   4.639   1.545 -0.9376  1.0798  0.0405
11019TIP3    H254473   4.346   4.738   1.659  1.1121  0.5520  0.6496
11020TIP3   OH254474   2.802   1.671  12.918 -0.1018  0.4858  0.1681
11020TIP3    H154475   2.840   1.584  12.930  0.5052  0.9592  1.8406
11020TIP3    H254476   2.832   1.721  12.994  0.9374  2.6300 -1.5820
11021TIP3   OH254477   0.087   0.861  12.403 -0.1555  0.0401 -0.0337
11021TIP3    H154478   0.129   0.947  12.401 -0.5480  0.2393  0.2914
11021TIP3    H254479   0.048   0.855  12.490  0.2761 -0.6638  0.1187
11022TIP3   OH254480   2.988   4.574  15.516  0.3077 -0.0692  0.1327
11022TIP3    H154481   2.912   4.516  15.516 -0.3314  0.7378 -1.1974
11022TIP3    H254482   2.960   4.649  15.569 -0.2530  0.7376 -1.2687
11023TIP3   OH254483   3.716   2.921  14.530  0.2839 -0.4104  0.5510
11023TIP3    H154484   3.786   2.875  14.483  1.4846  0.2290  1.6930
11023TIP3    H254485   3.643   2.859  14.532  0.5290 -0.8009 -1.3300
11024TIP3   OH254486   3.640   5.068  16.796 -0.5609 -0.0218 -0.1926
11024TIP3    H154487   3.692   5.138  16.756 -0.6493 -0.1614 -0.5546
11024TIP3    H254488   3.692   4.988  16.781  0.2332  0.1617  1.4767
11025TIP3   OH254489   6.299   5.349  13.063  0.0289  0.2823  0.0241
11025TIP3    H154490   6.299   5.389  13.150  0.7178 -0.4644  0.3719
11025TIP3    H254491   6.392   5.339  13.042 -0.1367  0.6125 -0.8710
11026TIP3   OH254492   0.793   4.628  16.378 -0.0233 -0.8855  0.3056
11026TIP3    H154493   0.769   4.554  16.434 -0.8217 -0.9433 -0.0986
11026TIP3    H254494   0.855   4.592  16.315  1.6269 -0.5980  1.7487
11027TIP3   OH254495   5.300   5.811  11.336  0.3543  0.4316  0.7419
11027TIP3    H154496   5.322   5.738  11.393 -0.1561  0.9338  1.5995
11027TIP3    H254497   5.212   5.791  11.304  0.6131  0.1835  0.1764
11028TIP3   OH254498   2.113   6.010   5.962 -0.1403 -0.8174 -0.2028
11028TIP3    H154499   2.129   6.051   6.047  1.5806 -0.8412 -0.4828
11028TIP3    H254500   2.196   6.021   5.915 -0.8203 -1.5021 -1.5801
11029TIP3   OH254501   5.011   4.515  13.339 -0.2312 -0.0277 -0.0048
11029TIP3    H154502   5.040   4.442  13.394 -1.0502  0.0774  0.5736
11029TIP3    H254503   4.995   4.586  13.400 -1.5306 -0.0324 -0.3291
11030TIP3   OH254504   0.869   0.731  11.280  0.1819 -0.3039  0.5090
11030TIP3    H154505   0.796   0.673  11.257  0.6999 -0.2181 -1.5143
11030TIP3    H254506   0.910   0.752  11.195  1.3024  1.2947  1.4187
11031TIP3   OH254507   1.735   1.894   3.907  0.8117  0.0572 -0.1747
11031TIP3    H154508   1.793   1.858   3.974  1.5311 -1.6466 -1.6806
11031TIP3    H254509   1.656   1.841   3.913  1.2510 -0.7412 -1.3126
11032TIP3   OH254510   4.234   1.484  11.976 -0.2938  0.1236  0.0114
11032TIP3    H154511   4.306   1.533  11.937 -0.6962  0.5634 -0.1928
11032TIP3    H254512   4.259   1.392  11.969 -0.4162  0.1896 -1.3820
11033TIP3   OH254513   5.097   3.288  16.015 -0.4001  0.2430 -0.1587
11033TIP3    H154514   5.108   3.253  16.104 -0.2240 -0.9733 -0.6524
11033TIP3    H254515   5.083   3.211  15.960  0.5344  0.9051 -1.3552
11034TIP3   OH254516   5.422   0.454  10.445 -0.3202  0.0072  0.3748
11034TIP3    H154517   5.436   0.533  10.393 -0.2140  0.0885  0.5259
11034TIP3    H254518   5.506   0.408  10.442  0.2120  0.8303  1.8490
11035TIP3   OH254519   4.960   1.815   3.411 -0.2081  0.7748 -0.3108
11035TIP3    H154520   4.870   1.833   3.385 -0.3240  2.6594  1.2854
11035TIP3    H254521   4.953   1.774   3.497  0.4565  0.8699 -0.2056
11036TIP3   OH254522   3.849   5.287   6.228 -0.0403  0.8172  0.0989
11036TIP3    H154523   3.767   5.270   6.182 -0.0928  1.2904  0.0218
11036TIP3    H254524   3.822   5.320   6.314  0.0799  2.3751 -0.4562
11037TIP3   OH254525   1.896   0.620  13.763  0.1135  0.0958 -0.0876
11037TIP3    H154526   1.854   0.695  13.721  2.2177  1.0990 -0.4586
11037TIP3    H254527   1.914   0.648  13.853  1.9338  0.4830 -0.5469
11038TIP3   OH254528   1.348   1.500  14.494  0.0448  0.5017  0.1890
11038TIP3    H154529   1.379   1.576  14.446  0.5747  0.8006  1.0044
11038TIP3    H254530   1.255   1.495  14.472 -0.1119  1.6929  0.5489
11039TIP3   OH254531   3.995   1.994   4.617  0.4707 -0.3874  0.3897
11039TIP3    H154532   3.951   1.925   4.568  0.2276 -0.6401  0.9531
11039TIP3    H254533   4.026   1.950   4.697  0.3679  0.1376  0.7218
11040TIP3   OH254534   3.310   6.730   2.706 -0.6466  0.2691 -0.0316
11040TIP3    H154535   3.338   6.716   2.797 -0.5732 -1.7106 -0.3260
11040TIP3    H254536   3.367   6.800   2.674  1.5736 -1.2204  0.4932
11041TIP3   OH254537   2.789   4.740  10.703  0.3669 -0.3587  0.5868
11041TIP3    H154538   2.781   4.763  10.611  0.9850 -0.3306  0.5364
11041TIP3    H254539   2.847   4.807  10.739 -0.1171 -0.1908  1.0637
11042TIP3   OH254540   5.851   6.443  11.223 -0.1778  0.4742 -0.7260
11042TIP3    H154541   5.889   6.478  11.142  1.1112 -0.1697 -0.4160
11042TIP3    H254542   5.887   6.499  11.292 -0.2904  0.2560 -0.4880
11043TIP3   OH254543   2.938   0.985   2.146  0.0033  0.7580 -0.6519
11043TIP3    H154544   2.996   1.012   2.075  0.3773  1.2093 -0.1828
11043TIP3    H254545   2.891   0.909   2.111  1.2361  0.0802 -0.8711
11044TIP3   OH254546   2.654   6.607  13.008  0.0224  0.6423 -0.2459
11044TIP3    H154547   2.647   6.685  12.953  1.5208  0.5849 -0.5198
11044TIP3    H254548   2.665   6.535  12.947 -0.0461  0.3601  0.0709
11045TIP3   OH254549   0.427   5.366  15.066  0.1072 -0.1076  0.5533
11045TIP3    H154550   0.445   5.272  15.058  2.2439  0.3513 -0.4340
11045TIP3    H254551   0.497   5.400  15.120  2.1861  1.6903 -3.0827
11046TIP3   OH254552   3.946   6.446  16.757  0.4512 -0.2614  0.1341
11046TIP3    H154553   3.931   6.446  16.851 -0.4134 -0.6697 -0.0043
11046TIP3    H254554   3.942   6.353  16.733 -0.5735 -0.0556 -0.5051
11047TIP3   OH254555   1.992   0.059  14.269 -0.1812 -0.2010  0.6514
11047TIP3    H154556   1.975  -0.017  14.326  1.1343 -0.4529  0.7297
11047TIP3    H254557   2.038   0.022  14.194  0.6139  0.5398  0.7625
11048TIP3   OH254558   2.761   5.192   4.842 -0.0976  1.0275  0.8056
11048TIP3    H154559   2.786   5.195   4.750 -0.4508  1.0535  0.7066
11048TIP3    H254560   2.786   5.105   4.871 -1.2580  0.5080  0.3073
11049TIP3   OH254561   4.820   4.684  11.780  0.1008 -0.0231  0.3710
11049TIP3    H154562   4.742   4.735  11.760  0.7772  0.9397  0.1463
11049TIP3    H254563   4.889   4.724  11.727  0.7447 -0.8465  0.5855
11050TIP3   OH254564   6.761   4.797  14.474 -0.1281 -0.1308  0.3581
11050TIP3    H154565   6.733   4.885  14.498 -1.6138 -0.4082 -0.2933
11050TIP3    H254566   6.856   4.803  14.465 -0.2018  1.3509  0.5482
11051TIP3   OH254567   0.586   3.411   5.841  0.2538 -0.1541  0.0823
11051TIP3    H154568   0.573   3.317   5.825 -0.8996  0.4155 -2.5419
11051TIP3    H254569   0.675   3.418   5.874  0.2821 -2.1954  0.4967
11052TIP3   OH254570   0.999   4.530   1.890  0.3992  0.0485  0.0410
11052TIP3    H154571   0.945   4.538   1.811  1.5176 -0.0623 -0.7360
11052TIP3    H254572   0.960   4.457   1.938 -0.8583  0.7139  0.0506
11053TIP3   OH254573   1.423   6.270   0.706  0.3582  0.7774 -0.0954
11053TIP3    H154574   1.406   6.326   0.630  0.7128  0.0814 -0.6998
11053TIP3    H254575   1.455   6.331   0.773  4.9805  0.8379 -2.1276
11054TIP3   OH254576   3.092   4.729  14.923 -0.3162  0.6177  0.7218
11054TIP3    H154577   3.124   4.654  14.972 -0.6363  0.1679  0.2537
11054TIP3    H254578   3.040   4.779  14.986  0.1541  0.6151  1.1156
11055TIP3   OH254579   5.248   0.296   0.687  0.1734 -0.0391 -0.2079
11055TIP3    H154580   5.234   0.388   0.709 -0.0704  0.3341 -1.8179
11055TIP3    H254581   5.211   0.287   0.599 -0.7580 -1.9338  0.3537
11056TIP3   OH254582   4.532   1.710   5.796 -0.5593  0.3552 -0.2411
11056TIP3    H154583   4.602   1.658   5.757 -0.2614 -0.3213  1.1844
11056TIP3    H254584   4.457   1.652   5.799 -2.6096  2.3337 -5.8121
11057TIP3   OH254585   0.551   1.607  14.431 -1.3400 -0.5830 -0.1688
11057TIP3    H154586   0.471   1.578  14.474 -1.5789 -1.4022 -1.1446
11057TIP3    H254587   0.537   1.588  14.338 -0.8416  1.1738 -0.6184
11058TIP3   OH254588   6.582   2.311  15.134  0.6687  0.0719  0.7711
11058TIP3    H154589   6.669   2.297  15.172  1.6558 -0.2356 -1.4582
11058TIP3    H254590   6.532   2.234  15.160  2.0572 -1.3075 -0.4705
11059TIP3   OH254591   3.814   6.082  15.184 -0.1154 -0.2184 -0.4448
11059TIP3    H154592   3.776   6.114  15.266  1.6532  0.2476  0.2072
11059TIP3    H254593   3.872   6.153  15.155 -0.3776 -0.5700 -1.8725
11060TIP3   OH254594   3.003   1.934  11.338  0.0732  0.6714 -0.3533
11060TIP3    H154595   3.010   1.853  11.288 -0.7733  0.3330  0.0757
11060TIP3    H254596   2.988   1.906  11.428  1.7753  1.2732  0.1361
11061TIP3   OH254597   2.602   5.061  12.049  0.4159  0.2485  0.1181
11061TIP3    H154598   2.624   5.139  12.100 -0.1605 -0.6970  1.8667
11061TIP3    H254599   2.619   4.988  12.109 -3.3190 -0.7137  0.1180
11062TIP3   OH254600   2.881   6.343  15.302  0.0384  0.1892  0.0235
11062TIP3    H154601   2.867   6.372  15.392 -0.1840  0.8387 -0.2150
11062TIP3    H254602   2.958   6.392  15.272 -0.1262  0.2739 -0.2678
11063TIP3   OH254603   3.803   3.657  11.484  0.0402 -0.4471  0.6820
11063TIP3    H154604   3.869   3.682  11.549 -2.2973  0.8064  2.6629
11063TIP3    H254605   3.823   3.712  11.408  1.8060 -0.7252  0.9250
11064TIP3   OH254606   1.244   2.970  15.541  0.0205  0.3491  0.0463
11064TIP3    H154607   1.215   3.003  15.626  1.5416  1.4323  0.1532
11064TIP3    H254608   1.167   2.923  15.506 -0.6117 -0.1149  2.0035
11065TIP3   OH254609   5.002   3.742  13.988  0.2053  0.3113  0.0130
11065TIP3    H154610   4.973   3.761  13.899 -0.7600 -2.5988 -0.3296
11065TIP3    H254611   5.094   3.718  13.979 -0.1141 -0.8028 -0.3291
11066TIP3   OH254612   0.402   0.022   4.889 -0.6986  0.2919  1.1314
11066TIP3    H154613   0.330   0.067   4.846 -0.1915 -0.1859 -0.2607
11066TIP3    H254614   0.468   0.011   4.820 -0.6084 -2.1013  1.5540
11067TIP3   OH254615   2.199   0.693   3.685  0.1021  0.0626 -0.2923
11067TIP3    H154616   2.210   0.694   3.780 -0.0840 -1.5349 -0.2333
11067TIP3    H254617   2.110   0.723   3.671 -0.0449 -0.1979  0.0717
11068TIP3   OH254618   0.455   2.499   6.025 -0.2710 -0.6695 -0.0659
11068TIP3    H154619   0.497   2.426   5.980  1.8006  0.6653 -0.4065
11068TIP3    H254620   0.446   2.469   6.116  1.5784 -0.9660  0.0431
11069TIP3   OH254621   2.697   1.509  15.270  0.0935  0.1090 -0.4501
11069TIP3    H154622   2.684   1.549  15.185  0.3009 -0.0220 -0.5450
11069TIP3    H254623   2.790   1.524  15.289 -0.2632  1.3362  0.3650
11070TIP3   OH254624   0.186   5.226   2.558  0.0328  0.0452 -0.1588
11070TIP3    H154625   0.175   5.316   2.588 -0.9014 -0.3256  0.6603
11070TIP3    H254626   0.125   5.218   2.484  0.5910  0.2760 -0.6412
11071TIP3   OH254627   4.357   1.073  17.062 -0.2851 -0.5406  0.3124
11071TIP3    H154628   4.374   1.166  17.051  1.1291 -0.8695 -0.3411
11071TIP3    H254629   4.296   1.051  16.992 -0.0227 -0.2672 -0.0055
11072TIP3   OH254630   5.695   2.169  10.676  0.5416 -0.1191 -0.0563
11072TIP3    H154631   5.774   2.160  10.623  0.8480 -0.3777  0.4485
11072TIP3    H254632   5.665   2.258  10.660  0.6820 -0.1666 -0.5986
11073TIP3   OH254633   2.900   0.965  11.686  0.1668  0.1280  0.2569
11073TIP3    H154634   2.856   1.036  11.734  0.5244  0.4551  0.1063
11073TIP3    H254635   2.855   0.886  11.714 -2.2846  0.7107 -1.8589
11074TIP3   OH254636   4.249   5.110  16.525  0.1080  0.3071 -0.0224
11074TIP3    H154637   4.292   5.028  16.498 -1.8144 -0.5990 -0.4200
11074TIP3    H254638   4.217   5.148  16.443  0.2842  1.0508  0.2530
11075TIP3   OH254639   4.906   0.746   1.233  0.6872 -0.0311  0.1932
11075TIP3    H154640   4.848   0.673   1.254 -0.9049  0.3915 -2.4410
11075TIP3    H254641   4.853   0.824   1.246  2.5642  0.7890  3.5816
11076TIP3   OH254642   3.696   2.105   1.555  0.1264 -0.9273  0.0423
11076TIP3    H154643   3.771   2.052   1.526  1.5186  1.3915 -0.7510
11076TIP3    H254644   3.650   2.128   1.475 -0.9863 -1.6530  0.4622
11077TIP3   OH254645   3.848   5.868   5.849  0.0208  0.6383  0.0390
11077TIP3    H154646   3.896   5.951   5.852  0.5765  0.3357 -0.4390
11077TIP3    H254647   3.914   5.803   5.824 -0.5069  0.1222 -0.0205
11078TIP3   OH254648   5.550   1.458  11.465 -1.3025  0.4225  0.3857
11078TIP3    H154649   5.574   1.394  11.398  0.5706  0.0544  1.3483
11078TIP3    H254650   5.493   1.520  11.420 -1.3144 -0.6649 -1.1428
11079TIP3   OH254651   4.636   6.617  11.534 -0.0866  0.2172  0.1818
11079TIP3    H154652   4.622   6.686  11.600 -0.5741  0.7042 -0.4291
11079TIP3    H254653   4.600   6.654  11.453 -0.9216 -1.0011 -0.0136
11080TIP3   OH254654   0.619   1.830  10.652 -0.5892 -0.3138 -0.2619
11080TIP3    H154655   0.552   1.822  10.720 -0.3722  1.2176  0.1492
11080TIP3    H254656   0.633   1.925  10.643  0.8051 -0.5837 -1.0395
11081TIP3   OH254657   5.894   0.559   5.016 -0.4853  0.3866 -0.4877
11081TIP3    H154658   5.805   0.561   5.050 -0.2529 -2.9140  0.4022
11081TIP3    H254659   5.948   0.533   5.090  0.8734 -0.3336 -1.7000
11082TIP3   OH254660   2.566   4.698  16.117 -0.0346  0.5322 -0.9389
11082TIP3    H154661   2.562   4.623  16.059  0.1419  0.6958 -1.1604
11082TIP3    H254662   2.555   4.661  16.205 -1.5151  0.4159 -1.1579
11083TIP3   OH254663   0.433   0.673   6.480  0.2250  0.2997 -0.0203
11083TIP3    H154664   0.471   0.586   6.470  1.0271  0.7009 -0.6530
11083TIP3    H254665   0.358   0.673   6.421  0.7059  0.2897 -0.6484
11084TIP3   OH254666   1.440   2.783  11.941  0.3599  0.3755 -0.1321
11084TIP3    H154667   1.454   2.819  11.854 -0.4886 -2.9893 -1.7622
11084TIP3    H254668   1.367   2.832  11.977  1.0822  2.1732 -1.0632
11085TIP3   OH254669   1.840   2.164   0.481  0.0757  0.4762  0.2323
11085TIP3    H154670   1.808   2.253   0.467  0.7577  0.4546 -1.6635
11085TIP3    H254671   1.818   2.117   0.400  1.3353 -0.5807  0.4780
11086TIP3   OH254672   1.248   2.733  12.704  0.0692  0.0866  0.4049
11086TIP3    H154673   1.154   2.739  12.689 -0.4436 -1.7631  2.5149
11086TIP3    H254674   1.284   2.707  12.620 -1.3101  0.8561 -0.4361
11087TIP3   OH254675   5.343   1.545  10.933  0.5145 -0.0633 -0.0727
11087TIP3    H154676   5.304   1.596  11.004 -1.8681 -1.2827 -0.4283
11087TIP3    H254677   5.334   1.601  10.856  2.9034  1.1714  0.5024
11088TIP3   OH254678   1.253   0.433   4.780  0.1752  0.2967 -0.4693
11088TIP3    H154679   1.163   0.463   4.764  0.1888  1.1436  0.9670
11088TIP3    H254680   1.243   0.359   4.840  0.3366 -0.7589 -1.7185
11089TIP3   OH254681   1.428   4.551  15.886 -0.1452 -0.2482 -0.6277
11089TIP3    H154682   1.397   4.558  15.796  0.5531  2.2543 -0.7279
11089TIP3    H254683   1.375   4.614  15.935  2.2264  1.4232 -0.1139
11090TIP3   OH254684   0.587   1.183   0.750  0.4706  0.3788 -0.0034
11090TIP3    H154685   0.508   1.219   0.789 -0.9393 -1.2490 -1.2933
11090TIP3    H254686   0.595   1.227   0.665 -0.1548 -0.8554 -0.7174
11091TIP3   OH254687   5.908   2.642   1.537 -0.0204 -0.3092 -0.3785
11091TIP3    H154688   5.826   2.654   1.489  0.2371  0.5664 -0.6097
11091TIP3    H254689   5.972   2.693   1.488  0.0225  1.4897  1.4432
11092TIP3   OH254690   2.479   2.848   3.039  0.0232  0.0613 -0.2766
11092TIP3    H154691   2.427   2.768   3.049  1.7196 -0.9980  0.2350
11092TIP3    H254692   2.536   2.849   3.115  1.7336  0.4629 -1.5321
11093TIP3   OH254693   4.390   1.779  12.768 -0.3057 -0.0035  0.0925
11093TIP3    H154694   4.424   1.799  12.681 -1.5407  0.0370 -0.3949
11093TIP3    H254695   4.453   1.717  12.805  1.7851  2.1955  0.3222
11094TIP3   OH254696   5.215   5.763   3.706 -0.4223 -0.1706 -0.7458
11094TIP3    H154697   5.147   5.831   3.703  1.9222  2.2205 -2.5143
11094TIP3    H254698   5.243   5.754   3.615  1.5213 -1.2039 -0.0755
11095TIP3   OH254699   1.331   1.814  12.061  0.3667  0.5208 -0.4308
11095TIP3    H154700   1.354   1.860  11.981 -1.6078  1.2323 -0.6129
11095TIP3    H254701   1.284   1.878  12.114  1.3512 -0.0297  1.1875
11096TIP3   OH254702   5.971   4.332   0.754 -0.1754  0.1703  0.0836
11096TIP3    H154703   5.891   4.320   0.806  0.4224  1.9176  1.4419
11096TIP3    H254704   5.971   4.258   0.693 -0.6740 -2.1387  2.8035
11097TIP3   OH254705   4.573   5.053   5.329  0.5826 -0.2272  0.1205
11097TIP3    H154706   4.540   5.065   5.239  2.9515 -0.9878 -0.8908
11097TIP3    H254707   4.534   4.971   5.359  1.1936 -0.9133 -0.9158
11098TIP3   OH254708   4.207   5.327   4.844 -0.5159  0.1458  0.4556
11098TIP3    H154709   4.197   5.235   4.868 -1.8772  0.3235  0.5999
11098TIP3    H254710   4.292   5.331   4.801  0.3466 -0.8487  2.0279
11099TIP3   OH254711   2.677   1.348  13.772 -0.0488 -0.4554  0.5975
11099TIP3    H154712   2.642   1.434  13.747 -0.9756 -0.8105  0.6565
11099TIP3    H254713   2.757   1.368  13.820 -0.3910  0.3913  0.8239
11100TIP3   OH254714   1.955   2.705  15.550  0.1119 -0.0544 -0.0918
11100TIP3    H154715   1.924   2.776  15.608 -1.4306 -1.4369  0.8222
11100TIP3    H254716   2.049   2.719  15.543 -0.1972  2.2039 -0.0800
11101TIP3   OH254717   1.247   1.021  14.391 -0.1843 -0.4859 -0.2917
11101TIP3    H154718   1.336   1.035  14.424 -0.3005 -0.8874  0.2036
11101TIP3    H254719   1.259   0.997  14.299  0.1976 -0.2319 -0.3095
11102TIP3   OH254720   0.420   2.781  12.953  0.1466  0.3057  0.5326
11102TIP3    H154721   0.366   2.740  13.020 -0.1490 -0.3471 -0.0987
11102TIP3    H254722   0.504   2.735  12.958  0.0898  0.1854  0.3850
11103TIP3   OH254723   6.421   1.930  11.357  0.2925 -0.0807  0.0753
11103TIP3    H154724   6.428   1.901  11.447  0.4402 -0.0313  0.0790
11103TIP3    H254725   6.499   1.984  11.343 -0.1604  0.6021  0.1781
11104TIP3   OH254726   1.611   4.967   1.614  0.3455  0.3222  0.0658
11104TIP3    H154727   1.566   4.944   1.696  0.6642  0.5685  0.3061
11104TIP3    H254728   1.613   4.884   1.565 -1.1189  0.4813 -0.3039
11105TIP3   OH254729   0.528   5.545   3.069 -0.3739 -0.3355 -0.2734
11105TIP3    H154730   0.586   5.595   3.127 -0.3381 -0.9354  0.2085
11105TIP3    H254731   0.484   5.483   3.127 -1.7579  0.3448 -0.5708
11106TIP3   OH254732   3.736   6.450   3.784  0.2445  0.3197  0.0405
11106TIP3    H154733   3.689   6.367   3.786  1.9253 -0.6347  0.7985
11106TIP3    H254734   3.717   6.486   3.697 -2.0205  0.0667  0.4000
11107TIP3   OH254735   3.612   1.751  15.447  0.4250 -0.6993  0.8461
11107TIP3    H154736   3.704   1.761  15.473  0.8574 -1.0377 -0.4680
11107TIP3    H254737   3.563   1.756  15.528  1.6367 -0.7600  1.5978
11108TIP3   OH254738   0.231   0.148   4.703 -0.5978 -0.3920 -0.3291
11108TIP3    H154739   0.277   0.072   4.668 -1.5201 -1.0358 -0.1669
11108TIP3    H254740   0.139   0.134   4.679 -0.5962  1.2830 -1.3658
11109TIP3   OH254741   2.420   3.361  16.117  0.2002 -0.7683  0.1499
11109TIP3    H154742   2.400   3.306  16.193 -2.7548 -0.6546 -0.5018
11109TIP3    H254743   2.409   3.450  16.149  1.9509 -0.6029  0.3620
11110TIP3   OH254744   4.970   3.566   4.237  0.1400 -0.0162  0.1553
11110TIP3    H154745   4.878   3.555   4.261 -0.5420  1.9019 -1.4601
11110TIP3    H254746   5.009   3.609   4.313 -0.7557  1.0392  0.0184
11111TIP3   OH254747   0.739   5.590   4.678  0.3424  0.0720  0.2012
11111TIP3    H154748   0.744   5.511   4.625  1.1589  0.5149 -0.3950
11111TIP3    H254749   0.646   5.604   4.692  0.2220 -1.6839  1.3622
11112TIP3   OH254750   2.827   2.869  10.649  0.0667  0.2935 -0.3844
11112TIP3    H154751   2.750   2.812  10.646  0.8476 -0.8668  0.8069
11112TIP3    H254752   2.867   2.850  10.734  0.9598  1.8290 -0.4519
11113TIP3   OH254753   6.381   3.165  12.798 -0.2784 -0.0333 -0.1595
11113TIP3    H154754   6.316   3.099  12.820 -0.1297  0.3244  1.4271
11113TIP3    H254755   6.358   3.193  12.709 -1.2441 -1.1255 -0.2631
11114TIP3   OH254756   4.533   4.583   3.111 -0.3108 -0.0871  0.0402
11114TIP3    H154757   4.437   4.587   3.109 -0.4067 -2.1846 -0.3822
11114TIP3    H254758   4.555   4.617   3.198 -1.6097 -2.0528  1.1954
11115TIP3   OH254759   0.488   4.181  13.286 -0.6939  0.4697  0.2700
11115TIP3    H154760   0.542   4.109  13.254  0.8309  1.7218 -0.0308
11115TIP3    H254761   0.399   4.158  13.260 -0.0677 -0.7167 -0.8715
11116TIP3   OH254762   5.714   6.375  12.849  0.7863 -0.2575  0.0697
11116TIP3    H154763   5.668   6.387  12.932 -1.4715  0.4781 -1.2436
11116TIP3    H254764   5.769   6.453  12.841 -2.1625  1.7921 -1.0643
11117TIP3   OH254765   3.197   2.355  10.909 -0.3022  0.2435 -0.8416
11117TIP3    H154766   3.221   2.266  10.885 -1.0783  0.0308 -0.8400
11117TIP3    H254767   3.101   2.357  10.904 -0.5657  0.0735  2.5420
11118TIP3   OH254768   4.639   2.046   0.805 -0.2217  0.7278 -0.0822
11118TIP3    H154769   4.626   2.058   0.711  0.5166  2.3805  0.0103
11118TIP3    H254770   4.643   1.951   0.817  0.1403  0.5136 -1.7746
11119TIP3   OH254771   5.824   6.150  12.641  0.0783 -0.5505 -0.3353
11119TIP3    H154772   5.822   6.078  12.578 -0.8111  0.9012 -2.0017
11119TIP3    H254773   5.916   6.157  12.667  0.0579 -2.7255  0.3809
11120TIP3   OH254774   0.624   4.708   2.721  0.0579 -0.2626 -0.1398
11120TIP3    H154775   0.675   4.628   2.706 -1.7927 -1.0755 -2.4630
11120TIP3    H254776   0.682   4.765   2.771  2.4329 -2.0030 -0.8455
11121TIP3   OH254777   0.025   3.929  13.750 -0.2487 -0.6564  0.0619
11121TIP3    H154778   0.043   3.845  13.707 -1.3153 -0.2977 -1.1151
11121TIP3    H254779   0.099   3.985  13.725  1.1741 -1.6237  1.9585
11122TIP3   OH254780   3.039   2.860  11.430 -0.7626  0.5374 -0.3565
11122TIP3    H154781   3.045   2.795  11.499  0.0750  0.9204 -0.0602
11122TIP3    H254782   3.089   2.823  11.357 -1.0634  0.4352 -0.5087
11123TIP3   OH254783   1.465   0.577  13.895 -0.1035 -0.0501 -0.2877
11123TIP3    H154784   1.529   0.602  13.962  0.1435 -0.6264 -0.3064
11123TIP3    H254785   1.505   0.503  13.849 -0.6762 -0.2644 -0.4558
11124TIP3   OH254786   3.560   3.117  11.177 -0.0539 -0.2861  0.3142
11124TIP3    H154787   3.581   3.120  11.083  0.6891 -0.2368  0.4794
11124TIP3    H254788   3.500   3.043  11.185  2.2756 -2.2366  0.2468
11125TIP3   OH254789   2.945   6.676  14.340  0.4814 -0.0976  0.1119
11125TIP3    H154790   2.899   6.724  14.408  1.1864  0.0644  0.4728
11125TIP3    H254791   2.964   6.741  14.272 -1.5071 -0.5422 -0.9210
11126TIP3   OH254792   5.043   0.754   2.841 -0.9376 -0.1907  0.3391
11126TIP3    H154793   4.993   0.788   2.916 -1.6099  2.0367 -1.0809
11126TIP3    H254794   5.131   0.739   2.876 -0.7370  2.6151  1.1602
11127TIP3   OH254795   2.621   6.005   2.770 -0.0578 -0.0385  0.3138
11127TIP3    H154796   2.545   5.962   2.731 -1.4026  1.0082  1.7399
11127TIP3    H254797   2.696   5.973   2.719 -1.4950 -0.7408 -1.3909
11128TIP3   OH254798   0.897   2.763   0.806 -0.2706  0.4494  0.1194
11128TIP3    H154799   0.990   2.758   0.788 -0.3985  0.0268 -0.4489
11128TIP3    H254800   0.855   2.749   0.721 -0.8415  1.2689  0.2548
11129TIP3   OH254801   4.902   1.243   4.034  0.0957  0.4254 -0.1604
11129TIP3    H154802   4.979   1.188   4.045  0.6719  1.3120  0.2385
11129TIP3    H254803   4.925   1.326   4.074 -0.0953  1.5854 -2.3444
11130TIP3   OH254804   2.036   2.604  14.471 -0.0770 -0.2258  0.1192
11130TIP3    H154805   1.948   2.638  14.458  0.5083  1.0873 -0.4781
11130TIP3    H254806   2.060   2.565  14.386 -0.7719 -2.2528  0.8135
11131TIP3   OH254807   4.526   5.903  13.645  0.2754  0.6501  0.3816
11131TIP3    H154808   4.559   5.819  13.675  0.7869  0.5783 -0.3599
11131TIP3    H254809   4.530   5.959  13.723  0.0949  0.0397  0.8349
11132TIP3   OH254810   0.285   6.330  16.184 -0.3750 -0.2993 -0.0470
11132TIP3    H154811   0.332   6.413  16.195 -1.6619  0.3274  0.7201
11132TIP3    H254812   0.346   6.275  16.135  0.9673  0.6850  0.4891
11133TIP3   OH254813   2.395   3.938  11.916  0.7677 -0.2857  0.4514
11133TIP3    H154814   2.373   3.850  11.947  0.3924  0.3255  1.9720
11133TIP3    H254815   2.310   3.979  11.899  0.8731  0.4226  1.6000
11134TIP3   OH254816   3.818   4.014   3.695  0.3759  0.0448  0.1724
11134TIP3    H154817   3.732   4.008   3.653  0.8682 -0.8505 -0.7472
11134TIP3    H254818   3.873   3.955   3.643  2.0055  2.0013 -0.3772
11135TIP3   OH254819   3.155   1.899  13.020  0.1186  0.3547  0.0671
11135TIP3    H154820   3.248   1.918  13.010  0.5261 -1.2116  0.8262
11135TIP3    H254821   3.128   1.865  12.935 -0.0645  1.9883 -0.5485
11136TIP3   OH254822   6.088   5.745   6.481 -0.5184  0.2419 -0.7744
11136TIP3    H154823   6.174   5.710   6.457  0.0180  0.3108  0.9414
11136TIP3    H254824   6.107   5.829   6.522 -1.3090 -0.2162  0.5576
11137TIP3   OH254825   6.130   0.409  12.681 -0.7531  0.0026 -0.5803
11137TIP3    H154826   6.123   0.431  12.588  0.4366  1.3436 -0.3615
11137TIP3    H254827   6.220   0.429  12.704 -1.0176 -0.3812  0.8574
11138TIP3   OH254828   4.951   4.037   4.104  0.1127  0.1077  0.3129
11138TIP3    H154829   4.969   3.958   4.053  0.3846  0.6793 -0.4902
11138TIP3    H254830   5.018   4.099   4.075  1.6024 -0.2311  2.9091
11139TIP3   OH254831   1.883   4.985  12.923  0.0302 -0.0237  0.0238
11139TIP3    H154832   1.953   4.988  12.858 -0.6573 -0.2102 -0.7385
11139TIP3    H254833   1.808   4.948  12.876 -1.0315  1.5740  0.3969
11140TIP3   OH254834   5.420   3.641  16.095  0.4417  0.8509  0.2595
11140TIP3    H154835   5.496   3.617  16.148 -0.1093  2.2413  1.7312
11140TIP3    H254836   5.395   3.728  16.127 -1.8456  0.3486 -0.0723
11141TIP3   OH254837   2.098   2.882  14.288  0.1401  0.6161  0.1750
11141TIP3    H154838   2.076   2.915  14.374 -0.2999  1.9616 -0.4482
11141TIP3    H254839   2.190   2.853  14.296 -0.3294 -0.5852  1.4529
11142TIP3   OH254840   3.084   3.178   3.376  0.1053  0.2976 -0.2334
11142TIP3    H154841   3.038   3.261   3.367  0.1097  0.2545 -0.6500
11142TIP3    H254842   3.177   3.202   3.376  0.1210  0.2417 -0.9033
11143TIP3   OH254843   3.312   4.328   1.768 -0.0836 -0.2242 -0.3953
11143TIP3    H154844   3.264   4.405   1.801  1.7268  0.0936  1.6478
11143TIP3    H254845   3.308   4.265   1.840  2.1262 -0.3700 -0.3644
11144TIP3   OH254846   0.984   3.841  11.321 -0.4148 -0.0330 -0.7690
11144TIP3    H154847   1.022   3.796  11.245  0.6537  0.7437 -0.7150
11144TIP3    H254848   0.926   3.777  11.361 -1.7246 -0.1413 -2.7942
11145TIP3   OH254849   5.583   3.482  14.622  0.4268 -0.0826  0.0536
11145TIP3    H154850   5.500   3.439  14.640  0.5248 -0.3598 -0.1524
11145TIP3    H254851   5.611   3.517  14.706  0.0265  0.1415  0.0922
11146TIP3   OH254852   6.739   5.036  13.655  0.2485  0.6375 -0.2212
11146TIP3    H154853   6.804   5.103  13.637 -1.1509  2.2187  0.5012
11146TIP3    H254854   6.661   5.084  13.684 -0.9319 -1.2567 -0.1246
11147TIP3   OH254855   5.866   1.209   4.215  0.3332  0.0925 -0.7623
11147TIP3    H154856   5.879   1.279   4.151  1.3653  0.6795  0.0885
11147TIP3    H254857   5.794   1.157   4.178 -0.7276  1.8189 -1.1995
11148TIP3   OH254858   3.870   2.398  13.842 -0.4580 -0.1248 -0.3862
11148TIP3    H154859   3.774   2.391  13.837 -0.5985  1.0328  0.3460
11148TIP3    H254860   3.888   2.488  13.815  0.4384 -0.3862 -0.6564
11149TIP3   OH254861   1.968   3.657  11.878 -0.1131  0.6386 -0.0967
11149TIP3    H154862   1.990   3.685  11.967 -4.3638  0.6429  1.0694
11149TIP3    H254863   1.964   3.561  11.884 -1.6056  0.7036  0.0453
11150TIP3   OH254864   6.383   2.156  14.477 -0.1833 -0.0541  0.2365
11150TIP3    H154865   6.298   2.200  14.476  0.1081  0.5221  0.3542
11150TIP3    H254866   6.444   2.223  14.507  0.1298 -0.8057  1.3144
11151TIP3   OH254867   5.456   2.587  16.729  0.2173 -0.1349 -0.4286
11151TIP3    H154868   5.401   2.658  16.698  0.4583  0.0629 -0.4063
11151TIP3    H254869   5.410   2.507  16.703 -1.1788  0.0112  1.5159
11152TIP3   OH254870   4.793   5.040   4.916 -0.2389  0.0867  0.2352
11152TIP3    H154871   4.820   5.028   5.008  0.0608 -1.8812 -0.0892
11152TIP3    H254872   4.875   5.049   4.868 -0.3464 -0.3759 -0.0361
11153TIP3   OH254873   1.283   6.337   1.615  0.4594  0.1962  0.5239
11153TIP3    H154874   1.243   6.414   1.657  1.4216  0.9082  0.1416
11153TIP3    H254875   1.376   6.358   1.609  0.5649 -0.5532 -0.5626
11154TIP3   OH254876   2.654   1.901   1.302 -0.6467 -0.6125 -0.2003
11154TIP3    H154877   2.657   1.874   1.394  0.1116 -1.7617 -0.5594
11154TIP3    H254878   2.733   1.955   1.291 -0.4899 -0.8651 -0.3044
11155TIP3   OH254879   6.462   6.358  13.500 -0.4125  0.0140 -0.0583
11155TIP3    H154880   6.510   6.312  13.569 -0.4136  1.1022  0.6787
11155TIP3    H254881   6.476   6.305  13.421 -0.9261 -1.5842  0.9062
11156TIP3   OH254882   1.823   2.493  13.846  0.1124 -0.1947 -0.0682
11156TIP3    H154883   1.863   2.447  13.773  1.1150  1.2300 -0.4518
11156TIP3    H254884   1.766   2.559  13.805  1.3321  1.1793  0.3885
11157TIP3   OH254885   2.749   0.045  16.075 -0.0692 -0.2229 -0.5773
11157TIP3    H154886   2.729   0.122  16.022  0.4256 -1.1724 -2.1861
11157TIP3    H254887   2.811  -0.006  16.022 -0.4642 -1.7793  0.3947
11158TIP3   OH254888   3.423   5.407   4.289 -0.1783  0.3209  0.0469
11158TIP3    H154889   3.410   5.493   4.329  0.3131  0.0862  0.7309
11158TIP3    H254890   3.501   5.372   4.333  0.5325  0.1599 -1.3132
11159TIP3   OH254891   0.055   6.581  16.348 -0.0803 -0.8447  0.3666
11159TIP3    H154892   0.109   6.613  16.276  0.3140  0.1786  1.1007
11159TIP3    H254893  -0.021   6.640  16.349 -1.3997 -2.4689 -0.8644
11160TIP3   OH254894   6.745   4.495   3.633 -0.3976  0.0926  0.1450
11160TIP3    H154895   6.724   4.403   3.648 -0.0392 -0.2376 -1.3079
11160TIP3    H254896   6.841   4.497   3.629 -0.2159  1.0424  3.2896
11161TIP3   OH254897   6.106   6.552  14.213  0.2912  0.7557  0.0171
11161TIP3    H154898   6.088   6.459  14.223  1.6753  0.3850 -0.7662
11161TIP3    H254899   6.022   6.595  14.229 -0.1543 -0.5604  1.2390
11162TIP3   OH254900   4.975   2.603  14.857 -0.0273 -0.7339  0.0465
11162TIP3    H154901   4.936   2.567  14.777 -0.0338 -2.4618  0.8133
11162TIP3    H254902   4.961   2.697  14.850 -2.1298 -1.0860 -0.8707
11163TIP3   OH254903   3.709   4.381  15.170  0.2233 -0.0528  0.0631
11163TIP3    H154904   3.758   4.352  15.094  0.5886  1.7541 -0.4249
11163TIP3    H254905   3.771   4.372  15.243  0.4658 -0.0985 -0.1491
11164TIP3   OH254906   0.878   1.412   4.324 -0.6059  0.6626 -0.4782
11164TIP3    H154907   0.933   1.434   4.399  1.6479 -1.4297 -1.4357
11164TIP3    H254908   0.868   1.495   4.276  0.4911  1.3692  0.4995
11165TIP3   OH254909   4.703   6.507   2.095 -0.5682  0.2685  0.3198
11165TIP3    H154910   4.773   6.442   2.105 -0.0891  0.6169 -0.7755
11165TIP3    H254911   4.624   6.455   2.078 -0.1958 -0.0251 -0.4983
11166TIP3   OH254912   6.243   6.656   1.609  1.1168  0.5894 -0.0126
11166TIP3    H154913   6.255   6.719   1.538 -0.3626 -0.0437 -0.8607
11166TIP3    H254914   6.155   6.674   1.642  1.1382 -0.2604  0.5204
11167TIP3   OH254915   1.316   2.111   4.984 -0.1969  0.3586  0.3161
11167TIP3    H154916   1.274   2.192   5.015 -3.0960 -1.2005  0.6957
11167TIP3    H254917   1.330   2.059   5.063 -0.3311 -0.3710 -0.1334
11168TIP3   OH254918   1.667   5.225  13.918  0.2230  0.2474  0.0486
11168TIP3    H154919   1.650   5.132  13.898  1.2009  0.3284 -1.2386
11168TIP3    H254920   1.580   5.266  13.917 -0.3621 -0.8796  1.9305
11169TIP3   OH254921   4.678   3.846   0.477  0.1792 -0.3433  0.0753
11169TIP3    H154922   4.638   3.864   0.391  0.4621 -0.1244 -0.0116
11169TIP3    H254923   4.772   3.848   0.460  0.2304 -0.6580  0.3216
11170TIP3   OH254924   5.557   6.188   0.289 -0.4446 -0.0915 -0.0290
11170TIP3    H154925   5.595   6.101   0.291 -1.0865 -0.3856 -0.4391
11170TIP3    H254926   5.543   6.206   0.196  0.3533  0.7438  0.0063
11171TIP3   OH254927   5.507   2.349  13.832 -0.3712  0.5089 -0.2792
11171TIP3    H154928   5.446   2.319  13.899 -1.3826  1.8046 -0.5884
11171TIP3    H254929   5.593   2.344  13.873 -0.6122 -1.8341 -0.0149
11172TIP3   OH254930   2.777   6.564  11.410  0.4798  0.5192  0.6380
11172TIP3    H154931   2.764   6.595  11.321  0.6195 -1.6706 -0.1794
11172TIP3    H254932   2.692   6.526  11.435  0.4923  0.9646  1.3731
11173TIP3   OH254933   2.097   2.700   5.329  0.3298 -0.0014 -0.0435
11173TIP3    H154934   2.100   2.676   5.236  1.1577 -0.4406  0.0958
11173TIP3    H254935   2.185   2.685   5.361  0.4501  1.6648  0.4525
11174TIP3   OH254936   1.370   3.321  12.185  0.2782  0.1594  0.3558
11174TIP3    H154937   1.385   3.415  12.181  0.9320 -0.0206 -1.9659
11174TIP3    H254938   1.352   3.304  12.278  1.7955  2.3003  1.0891
11175TIP3   OH254939   1.410   2.212  15.350  0.6273  0.2141  0.1462
11175TIP3    H154940   1.317   2.232  15.356  0.8130  1.0941  0.0666
11175TIP3    H254941   1.438   2.201  15.441  0.2720 -0.8671  0.1307
11176TIP3   OH254942   4.659   6.153   0.256 -0.0548 -0.1845  0.6136
11176TIP3    H154943   4.605   6.153   0.335  0.9968 -1.7026  1.3704
11176TIP3    H254944   4.735   6.098   0.279  1.4785  1.3602 -0.6336
11177TIP3   OH254945   5.572   2.574  13.690  0.4181  0.5102 -0.5292
11177TIP3    H154946   5.662   2.557  13.664  0.8233  2.6194 -0.5435
11177TIP3    H254947   5.550   2.502  13.749  1.5206 -0.9555 -1.8700
11178TIP3   OH254948   0.282   1.688   0.711  0.5392  0.0258 -0.1481
11178TIP3    H154949   0.270   1.711   0.803 -0.8360 -2.7089  0.4058
11178TIP3    H254950   0.375   1.664   0.705  0.5254 -0.2422  0.6172
11179TIP3   OH254951   0.564   5.596  14.891  0.4486 -0.2709  0.2943
11179TIP3    H154952   0.590   5.511  14.855 -0.5960  0.3939 -2.1001
11179TIP3    H254953   0.472   5.585  14.913  0.3213  0.2239  0.0133
11180TIP3   OH254954   5.450   3.334   2.290 -0.0143 -0.2410 -0.4776
11180TIP3    H154955   5.542   3.311   2.286 -0.2059 -1.0312 -0.4566
11180TIP3    H254956   5.407   3.255   2.322 -0.7144  0.0789 -0.6135
11181TIP3   OH254957   6.401   2.529  17.134  0.1069  0.3767 -0.7550
11181TIP3    H154958   6.427   2.534  17.042  0.1636  0.7792 -0.7177
11181TIP3    H254959   6.437   2.446  17.164  1.2706  0.8771 -0.7364
11182TIP3   OH254960   0.542   2.905   2.436  0.6371 -0.5948  0.5182
11182TIP3    H154961   0.467   2.871   2.388  1.7790 -0.4130 -1.4817
11182TIP3    H254962   0.505   2.971   2.495 -0.6838  0.2641 -1.2013
11183TIP3   OH254963   2.847   1.450   4.246  0.0174 -0.0264  0.1145
11183TIP3    H154964   2.803   1.483   4.325 -1.3163  0.0089 -0.6348
11183TIP3    H254965   2.932   1.419   4.278 -0.8248 -0.7921  1.7207
11184TIP3   OH254966   3.217   1.307  16.123  0.0350  0.2881  0.4151
11184TIP3    H154967   3.162   1.259  16.061  2.2512 -1.1965 -0.4678
11184TIP3    H254968   3.192   1.275  16.209  0.0763 -0.9835 -0.0401
11185TIP3   OH254969   6.106   4.936  13.729  0.5010 -0.3053  0.1355
11185TIP3    H154970   6.177   4.918  13.666  1.6269  1.1870  0.9370
11185TIP3    H254971   6.145   4.998  13.791 -1.7171  1.0687  0.2200
11186TIP3   OH254972   0.676   4.720  11.721  0.0508 -0.4461 -0.3166
11186TIP3    H154973   0.673   4.814  11.706 -0.2257 -0.3374  0.4115
11186TIP3    H254974   0.587   4.696  11.749  0.2626 -0.8258  0.0465
11187TIP3   OH254975   6.165   3.988  16.623  0.2995  0.1776  0.2202
11187TIP3    H154976   6.189   3.939  16.544 -0.9362  0.7249 -0.5128
11187TIP3    H254977   6.167   3.923  16.693  0.1238 -0.5960 -0.4849
11188TIP3   OH254978   5.495   4.380  12.323  0.9533  0.2180  0.2981
11188TIP3    H154979   5.406   4.374  12.356  0.4032  0.2188 -1.1565
11188TIP3    H254980   5.496   4.325  12.245  1.9396  1.0473 -0.2917
11189TIP3   OH254981   5.689   4.527  15.406 -0.2693 -0.5003 -0.2134
11189TIP3    H154982   5.665   4.545  15.315 -1.0327 -1.8799 -0.2952
11189TIP3    H254983   5.749   4.452  15.402  2.2128  1.3977  0.1885
11190TIP3   OH254984   1.660   4.071   1.715 -0.3716 -0.2353  0.0007
11190TIP3    H154985   1.579   4.090   1.762 -1.0022 -1.1223 -0.7084
11190TIP3    H254986   1.633   4.013   1.644  0.6302  0.7168 -1.1903
11191TIP3   OH254987   4.266   4.038  11.204  0.6625 -0.2663  0.0625
11191TIP3    H154988   4.217   4.120  11.200  0.3582 -0.4138  0.7199
11191TIP3    H254989   4.275   4.011  11.112 -2.8199 -1.5935  0.0219
11192TIP3   OH254990   2.334   3.165  17.207  0.4834  0.2721 -0.0474
11192TIP3    H154991   2.328   3.232  17.275  3.1961  0.0734  0.4389
11192TIP3    H254992   2.313   3.212  17.126  0.6875  1.3203  0.4997
11193TIP3   OH254993   1.190   5.336  11.067  0.3633  0.5742 -0.2000
11193TIP3    H154994   1.220   5.290  10.989  0.0998  0.5063 -0.2607
11193TIP3    H254995   1.145   5.269  11.119 -0.3746  0.8509 -0.4756
11194TIP3   OH254996   3.739   1.500   2.204  0.0564  0.1885  0.8907
11194TIP3    H154997   3.747   1.514   2.298 -0.1127  0.1691  0.9085
11194TIP3    H254998   3.826   1.470   2.177  0.2099  0.5645  0.9733
11195TIP3   OH254999   6.614   0.458   0.383  0.2982 -0.3545 -0.0511
11195TIP3    H155000   6.522   0.456   0.407  0.0711  0.4306 -0.8116
11195TIP3    H255001   6.642   0.547   0.403  0.5221 -0.1757 -1.1084
11196TIP3   OH255002   2.511   6.413  12.833  0.3696 -0.1062 -0.4854
11196TIP3    H155003   2.490   6.407  12.926  2.4118  0.7230  0.0715
11196TIP3    H255004   2.430   6.391  12.788 -0.7938  0.0248  1.4966
11197TIP3   OH255005   6.396   3.526  12.296 -0.6073 -0.5254 -0.2581
11197TIP3    H155006   6.349   3.478  12.228 -0.4383 -0.8364 -0.1574
11197TIP3    H255007   6.332   3.534  12.367 -0.2934 -1.5591  0.1551
11198TIP3   OH255008   4.231   5.187   5.390 -0.1129  0.4454 -0.2246
11198TIP3    H155009   4.243   5.129   5.316  0.5175 -0.4357  0.5620
11198TIP3    H255010   4.137   5.205   5.392 -0.4206 -1.1551 -0.0180
11199TIP3   OH255011   4.799   4.500  12.489 -0.2599  0.3871 -0.6901
11199TIP3    H155012   4.863   4.568  12.511 -0.0696  0.7439 -2.2736
11199TIP3    H255013   4.851   4.423  12.467 -0.4293  0.2146 -0.4966
11200TIP3   OH255014   2.958   1.731   1.358  0.2508 -0.3625 -0.4977
11200TIP3    H155015   2.926   1.708   1.445  0.4195 -1.4130 -0.7127
11200TIP3    H255016   2.954   1.827   1.356  2.4558 -0.1759  1.5208
11201TIP3   OH255017   6.201   1.343  15.991  0.2023 -0.1429  0.0320
11201TIP3    H155018   6.283   1.314  16.028 -0.5609 -1.4632  0.6983
11201TIP3    H255019   6.221   1.360  15.899  1.3231  0.0277  0.3000
11202TIP3   OH255020   4.716   5.611   2.978  0.1023  0.0337  0.0130
11202TIP3    H155021   4.672   5.691   2.950 -0.1153 -1.0203 -2.8949
11202TIP3    H255022   4.807   5.622   2.950  0.3831 -0.1811  0.8200
11203TIP3   OH255023   1.328   0.234   2.504  0.5140  0.3636 -0.2017
11203TIP3    H155024   1.244   0.250   2.547 -0.0074  0.6838 -1.3042
11203TIP3    H255025   1.356   0.149   2.537  1.0128  1.4079  2.1335
11204TIP3   OH255026   1.597   0.154  14.783 -0.1910  0.0880  0.0323
11204TIP3    H155027   1.502   0.160  14.783 -0.3146 -1.5224 -1.5183
11204TIP3    H255028   1.625   0.205  14.707  0.1953  0.7633  0.6270
11205TIP3   OH255029   5.058   0.113  14.473  0.1056 -0.4854  0.0613
11205TIP3    H155030   4.963   0.109  14.459  0.0607  0.5589  0.0736
11205TIP3    H255031   5.068   0.167  14.551  0.7366 -0.3449 -0.1195
11206TIP3   OH255032   0.374   1.691  10.933  0.1017  0.6300  0.1289
11206TIP3    H155033   0.312   1.620  10.914  0.5800  0.4394 -0.7307
11206TIP3    H255034   0.354   1.758  10.867  0.2076  0.9515  0.4228
11207TIP3   OH255035   3.862   6.361  11.198 -0.5838  0.1230 -0.3063
11207TIP3    H155036   3.886   6.447  11.163 -0.8223  0.6474  0.7599
11207TIP3    H255037   3.849   6.377  11.292  2.0020 -1.6473  0.3837
11208TIP3   OH255038   6.600   4.135   5.703  0.1105  0.2988  0.2007
11208TIP3    H155039   6.599   4.064   5.639  2.6240  0.8484 -0.5292
11208TIP3    H255040   6.545   4.105   5.774  0.2349 -1.9026 -0.6108
11209TIP3   OH255041   1.637   2.839  12.774 -0.2810  0.0341  0.0447
11209TIP3    H155042   1.640   2.934  12.766  1.3595 -0.0816 -0.8516
11209TIP3    H255043   1.609   2.823  12.864  1.8991  1.3538  0.9682
11210TIP3   OH255044   1.583   3.372   9.997 -0.0977  0.4770 -0.4164
11210TIP3    H155045   1.588   3.278  10.013  0.3563  0.7436  1.1455
11210TIP3    H255046   1.491   3.394  10.017  0.4217  0.7765  1.8423
11211TIP3   OH255047   4.536   1.951   5.440  0.1504  0.2161 -0.5109
11211TIP3    H155048   4.616   1.929   5.392  0.2441 -1.1053  0.2092
11211TIP3    H255049   4.470   1.892   5.403 -0.5401  1.4245 -1.2216
11212TIP3   OH255050   6.733   6.242  15.117  0.5986  0.3956  0.4488
11212TIP3    H155051   6.737   6.165  15.173 -1.3093  0.4520  0.6731
11212TIP3    H255052   6.791   6.305  15.160 -0.8023  0.4268  2.3674
11213TIP3   OH255053   5.287   5.246  12.915 -0.2381 -0.2115 -0.7239
11213TIP3    H155054   5.262   5.330  12.876  0.2580  0.4738  0.3836
11213TIP3    H255055   5.247   5.247  13.002  1.5140 -0.1725  0.1222
11214TIP3   OH255056   2.454   5.009   1.479 -0.2025  0.0249  0.5792
11214TIP3    H155057   2.414   4.935   1.433 -1.4597  0.4413  1.0007
11214TIP3    H255058   2.389   5.079   1.474  0.4713  0.7144  1.2806
11215TIP3   OH255059   5.889   5.387  14.095 -0.7089 -0.3270  0.5321
11215TIP3    H155060   5.890   5.404  14.189 -0.8940  1.2692  0.2610
11215TIP3    H255061   5.816   5.438  14.062  1.3994  1.8733 -0.9555
11216TIP3   OH255062   0.700   1.963  14.815  0.0877 -0.7507 -0.4038
11216TIP3    H155063   0.726   2.055  14.809 -0.4703 -0.4610  1.1569
11216TIP3    H255064   0.607   1.963  14.793 -0.3864 -0.6233  1.4652
11217TIP3   OH255065   1.080   0.013  13.122 -0.0521 -0.5155 -0.3790
11217TIP3    H155066   1.175   0.030  13.120 -0.3090  0.8323 -1.2683
11217TIP3    H255067   1.073  -0.082  13.120  1.3023 -0.6380  0.1351
11218TIP3   OH255068   5.513   4.119  10.657 -0.0470  0.4144  0.5479
11218TIP3    H155069   5.457   4.165  10.594 -0.2437  0.1556  0.5367
11218TIP3    H255070   5.599   4.115  10.614  0.2711  1.8000  1.0235
11219TIP3   OH255071   5.729   0.361   2.231 -0.2906  0.1792  0.1511
11219TIP3    H155072   5.816   0.398   2.242 -0.1484  0.3472 -1.4189
11219TIP3    H255073   5.670   0.435   2.239 -0.3860 -0.1364  2.5019
11220TIP3   OH255074   3.236   4.587  13.844 -0.0606 -0.3502 -0.1214
11220TIP3    H155075   3.290   4.574  13.922 -1.0280 -1.3800  0.3903
11220TIP3    H255076   3.150   4.610  13.878  0.4300  2.9805 -0.9531
11221TIP3   OH255077   1.347   4.787   5.714 -0.0552  0.2401 -0.1267
11221TIP3    H155078   1.379   4.820   5.630 -0.3698 -0.8185 -0.6658
11221TIP3    H255079   1.362   4.693   5.711 -1.0670  0.0448  0.5689
11222TIP3   OH255080   2.368   2.601   3.109 -0.8431  0.3041  0.5647
11222TIP3    H155081   2.363   2.531   3.045 -0.6369 -1.0313  1.9897
11222TIP3    H255082   2.277   2.617   3.134 -0.9920  1.3443 -0.5893
11223TIP3   OH255083   5.229   5.673   2.802  0.1677  0.0687  0.3591
11223TIP3    H155084   5.289   5.746   2.818 -0.3625  0.8271 -0.9707
11223TIP3    H255085   5.266   5.600   2.852 -0.1861  1.6592  3.0128
11224TIP3   OH255086   3.806   6.725   4.342  0.3325  0.2670  0.1789
11224TIP3    H155087   3.867   6.742   4.271  0.1290  0.7337  0.1112
11224TIP3    H255088   3.726   6.771   4.315 -0.0209 -0.2795  0.2954
11225TIP3   OH255089   5.830   2.311   4.164 -0.1728  0.3892  0.6165
11225TIP3    H155090   5.862   2.222   4.156 -1.3896 -0.0448  0.4064
11225TIP3    H255091   5.796   2.332   4.077  1.5195  1.6258  0.2383
11226TIP3   OH255092   1.388   5.891   0.916  0.1608  0.0651  0.7062
11226TIP3    H155093   1.312   5.948   0.908 -0.0647 -0.0758  1.7147
11226TIP3    H255094   1.430   5.919   0.997  1.7987  0.8514 -0.3802
11227TIP3   OH255095   2.270   4.922  16.361  0.4022 -0.6660  0.2253
11227TIP3    H155096   2.194   4.943  16.416  0.2953 -0.9319  0.1772
11227TIP3    H255097   2.346   4.947  16.414  0.2570  0.7792 -0.2129
11228TIP3   OH255098   6.282   4.103  15.428  0.3124 -0.0983  0.3176
11228TIP3    H155099   6.280   4.198  15.432  1.4790  0.1088 -2.5765
11228TIP3    H255100   6.358   4.083  15.373 -0.3110 -2.6555  0.3252
11229TIP3   OH255101   3.294   4.207  13.827 -0.2143  0.5504  0.2063
11229TIP3    H155102   3.298   4.246  13.740  1.1892  0.7907  0.3574
11229TIP3    H255103   3.386   4.196  13.852 -0.5981 -0.6348  1.1567
11230TIP3   OH255104   5.989   4.157   3.262 -0.0437 -0.4429 -0.0560
11230TIP3    H155105   5.911   4.115   3.225  0.2697 -1.3721  0.3157
11230TIP3    H255106   5.956   4.239   3.301 -0.5008  0.1443 -1.6574
11231TIP3   OH255107   6.230   2.337  15.268  0.4887 -1.0507  0.0014
11231TIP3    H155108   6.261   2.282  15.195 -2.4344 -2.1817 -0.4521
11231TIP3    H255109   6.225   2.277  15.342  0.1771 -0.6916  0.2695
11232TIP3   OH255110   4.084   0.670   2.441  0.3789 -0.1785  0.0823
11232TIP3    H155111   4.060   0.727   2.368 -0.4988 -0.0995  0.4304
11232TIP3    H255112   4.045   0.585   2.419  0.2624 -0.2001  0.3677
11233TIP3   OH255113   1.489   4.226  17.136 -0.0054  0.3740  0.1123
11233TIP3    H155114   1.485   4.149  17.193  0.4916 -0.4196 -0.9037
11233TIP3    H255115   1.529   4.294  17.190  0.9560 -0.5234  0.5493
11234TIP3   OH255116   3.659   5.759   4.901  0.2085  0.4058  0.1333
11234TIP3    H155117   3.610   5.704   4.961 -1.0739 -0.2819 -1.4954
11234TIP3    H255118   3.722   5.806   4.956 -0.1950 -1.0145  1.8292
11235TIP3   OH255119   5.613   5.250  13.873  0.1679 -0.0178  0.3837
11235TIP3    H155120   5.609   5.284  13.784 -2.0637 -0.8988  0.1187
11235TIP3    H255121   5.705   5.228  13.886  0.5388  0.2355 -1.6686
11236TIP3   OH255122   6.503   2.549  11.533  0.0318  0.0549 -0.0227
11236TIP3    H155123   6.598   2.551  11.521  0.2434 -1.1636  1.2624
11236TIP3    H255124   6.475   2.470  11.487 -0.0615 -0.7516  1.3877
11237TIP3   OH255125   6.481   4.001   3.742 -0.3297  0.1200  0.0746
11237TIP3    H155126   6.422   3.952   3.684  0.2175  0.4756 -0.7929
11237TIP3    H255127   6.569   3.979   3.712 -0.0132 -0.1681  1.1729
11238TIP3   OH255128   4.845   2.593   4.169  0.2674 -0.1858  0.1175
11238TIP3    H155129   4.779   2.657   4.196 -1.3452 -0.6896 -2.4825
11238TIP3    H255130   4.795   2.524   4.126  2.2103 -2.1424  0.8966
11239TIP3   OH255131   3.008   0.735   5.884 -0.4917  0.1016 -0.0769
11239TIP3    H155132   2.937   0.789   5.917  0.1410  0.2643  1.0322
11239TIP3    H255133   3.080   0.748   5.946 -0.5146 -2.4150  0.5342
11240TIP3   OH255134   0.182   0.918   5.818 -0.5394  0.2704 -0.6676
11240TIP3    H155135   0.210   0.995   5.868  0.7792 -0.3548 -0.4172
11240TIP3    H255136   0.180   0.847   5.882 -2.1619  0.1670 -0.8095
11241TIP3   OH255137   2.579   3.272   1.495 -0.0079  0.2067  0.6201
11241TIP3    H155138   2.530   3.301   1.572  0.3040  0.5438  0.6916
11241TIP3    H255139   2.538   3.189   1.470 -0.8797  0.6862  0.4405
11242TIP3   OH255140   6.008   2.947  15.440 -0.4077 -0.8650  0.5178
11242TIP3    H155141   5.939   2.986  15.492 -0.4165 -0.6136  0.3197
11242TIP3    H255142   5.975   2.860  15.417 -0.6409 -0.7581  0.4524
11243TIP3   OH255143   5.617   1.752   1.615  0.5608 -0.1286 -0.0373
11243TIP3    H155144   5.619   1.712   1.702  1.4603 -0.5589 -0.2453
11243TIP3    H255145   5.709   1.758   1.590  0.3318  0.4952 -0.7327
11244TIP3   OH255146   4.057   6.201  11.664 -0.2736  0.8074 -0.0744
11244TIP3    H155147   3.994   6.157  11.607 -0.4749  1.2713 -0.2193
11244TIP3    H255148   4.136   6.209  11.611 -0.8760  2.4228 -0.7765
11245TIP3   OH255149   5.932   0.133   5.371  0.4434 -0.4784  0.2519
11245TIP3    H155150   5.933   0.048   5.414 -1.6628 -1.1182 -0.8951
11245TIP3    H255151   5.870   0.123   5.299  0.8412  1.7634 -0.4480
11246TIP3   OH255152   4.313   6.181   6.546  0.6763 -0.2987 -0.1492
11246TIP3    H155153   4.258   6.181   6.624  0.1890 -0.1296 -0.4894
11246TIP3    H255154   4.289   6.262   6.500  0.2288 -0.8941 -0.9830
11247TIP3   OH255155   2.141   0.461   5.185 -0.0958 -0.6686  0.6346
11247TIP3    H155156   2.208   0.525   5.160  0.3017 -1.1760  0.3801
11247TIP3    H255157   2.061   0.512   5.193 -0.0266 -0.3235 -0.7082
11248TIP3   OH255158   4.915   6.700   4.798  0.2416 -0.2883  0.2900
11248TIP3    H155159   4.952   6.627   4.750  0.2503 -0.3190  0.3430
11248TIP3    H255160   4.834   6.666   4.836 -0.2908  0.0377 -0.5565
11249TIP3   OH255161   4.349   3.986   0.044 -0.0889  0.0999  0.8805
11249TIP3    H155162   4.276   4.020  -0.008  1.2518  0.9637 -0.4793
11249TIP3    H255163   4.392   4.064   0.080  1.1704 -0.3052  0.2882
11250TIP3   OH255164   1.178   5.398  14.760  0.2409 -0.4984 -0.0567
11250TIP3    H155165   1.162   5.379  14.667  0.0509  0.1083 -0.1508
11250TIP3    H255166   1.250   5.461  14.759  2.0381 -2.4987  0.3244
11251TIP3   OH255167   0.069   5.063   4.764  0.3767 -0.0489 -0.3673
11251TIP3    H155168   0.087   5.079   4.672  2.0327 -0.3333 -0.1175
11251TIP3    H255169   0.124   5.127   4.810  0.7508 -0.9414  0.4402
11252TIP3   OH255170   4.387   3.270   2.706 -0.5449  0.4573  0.0002
11252TIP3    H155171   4.318   3.293   2.768 -0.2427  0.3869  0.3637
11252TIP3    H255172   4.354   3.300   2.621 -1.6470 -0.8251 -0.0430
11253TIP3   OH255173   5.355   3.444  15.706  0.0310 -0.2388 -0.6344
11253TIP3    H155174   5.299   3.511  15.745  1.2583 -0.4059  1.5516
11253TIP3    H255175   5.443   3.482  15.708  0.3990 -1.0247 -1.4829
11254TIP3   OH255176   5.634   3.692   5.800  0.0855 -0.2730 -0.6613
11254TIP3    H155177   5.676   3.751   5.736  2.0866  0.0584  0.9150
11254TIP3    H255178   5.679   3.609   5.788  1.2455  0.0908  1.0558
11255TIP3   OH255179   5.588   6.252   4.202  0.3436 -0.3831  0.6449
11255TIP3    H155180   5.542   6.208   4.131  1.2765 -0.6768  0.2165
11255TIP3    H255181   5.681   6.241   4.182  0.6366 -1.0590  2.2529
11256TIP3   OH255182   0.776   5.403  12.411  0.0050  0.2496  0.8410
11256TIP3    H155183   0.697   5.457  12.416  1.4228  2.3227  1.5929
11256TIP3    H255184   0.813   5.423  12.326  1.0787  1.2735  1.5377
11257TIP3   OH255185   5.385   6.656   1.276 -0.7659 -0.3648 -0.0055
11257TIP3    H155186   5.478   6.642   1.292 -1.3378 -1.6966  2.3507
11257TIP3    H255187   5.363   6.733   1.328 -0.8347  0.4173 -1.1707
11258TIP3   OH255188   2.811   5.057  10.990 -0.0171  0.2501  0.2679
11258TIP3    H155189   2.847   5.016  10.911 -0.1226  0.2673  0.2121
11258TIP3    H255190   2.863   5.137  11.001  0.2333  0.0667  0.4176
11259TIP3   OH255191   0.160   4.841   2.693 -0.0147  0.4133  0.0159
11259TIP3    H155192   0.132   4.917   2.642  0.2288  0.6498  0.2343
11259TIP3    H255193   0.253   4.856   2.711  0.4338 -0.7001 -1.2900
11260TIP3   OH255194   4.069   3.874  13.865  0.7373  0.3885 -0.3066
11260TIP3    H155195   4.147   3.924  13.889  0.9152  1.0698 -2.1699
11260TIP3    H255196   4.103   3.793  13.826  0.4686 -0.3805  1.0173
11261TIP3   OH255197   3.450   5.392  11.073  0.0550 -0.4756 -0.0588
11261TIP3    H155198   3.402   5.431  11.146 -0.5546  1.4887 -1.4715
11261TIP3    H255199   3.541   5.421  11.086  0.2037 -1.2230  0.6232
11262TIP3   OH255200   6.096   2.252   5.589  0.6460  0.1814  0.3643
11262TIP3    H155201   6.032   2.255   5.660 -0.1348  2.0369 -0.3862
11262TIP3    H255202   6.138   2.338   5.592  0.8360  0.1442 -1.2106
11263TIP3   OH255203   1.673   6.199  14.050  0.0090  0.7401  0.2769
11263TIP3    H155204   1.621   6.243  13.982 -0.4467 -1.7879 -1.0902
11263TIP3    H255205   1.702   6.270  14.108 -4.5880  2.3077  0.8651
11264TIP3   OH255206   4.735   0.809  14.197  0.2643  0.0244 -0.0798
11264TIP3    H155207   4.787   0.729  14.197  2.4315  1.3854 -1.3160
11264TIP3    H255208   4.685   0.806  14.116  0.4020 -0.0327 -0.1621
11265TIP3   OH255209   5.679   4.560   0.233  0.2150 -0.0141 -0.3179
11265TIP3    H155210   5.774   4.554   0.232  0.1649 -1.0324  0.0364
11265TIP3    H255211   5.652   4.492   0.296 -0.7631 -0.0796 -0.8012
11266TIP3   OH255212   2.702   3.360  14.104 -0.0427 -0.0381 -0.2809
11266TIP3    H155213   2.673   3.445  14.136 -1.6570 -1.3548  1.9436
11266TIP3    H255214   2.627   3.327  14.053 -0.0342 -0.7544  0.1603
11267TIP3   OH255215   0.400   0.738   4.984  0.2018 -0.2292 -0.0900
11267TIP3    H155216   0.463   0.732   5.056  1.0288 -0.8951 -0.8583
11267TIP3    H255217   0.447   0.784   4.915 -0.5937  0.4120 -0.2013
11268TIP3   OH255218   4.242   3.144   3.422 -0.0612  0.5239 -0.4837
11268TIP3    H155219   4.164   3.114   3.375  1.0677 -0.8295 -1.5266
11268TIP3    H255220   4.241   3.239   3.411 -1.7156  0.5564 -0.2369
11269TIP3   OH255221   3.587   6.635   1.923 -0.9241  0.1019  0.0045
11269TIP3    H155222   3.542   6.624   2.007 -0.4857 -0.0124  0.2223
11269TIP3    H255223   3.635   6.717   1.931  1.2329 -1.1868  0.8343
11270TIP3   OH255224   6.267   1.104   6.077 -0.2363  0.4448 -0.0700
11270TIP3    H155225   6.313   1.034   6.124 -1.3688  0.5927  1.2810
11270TIP3    H255226   6.243   1.066   5.993 -0.2241 -0.5627  0.3842
11271TIP3   OH255227   3.980   2.638   4.291  0.4595  0.0463  0.3355
11271TIP3    H155228   3.936   2.584   4.357  1.0661  0.2097  0.8681
11271TIP3    H255229   4.052   2.583   4.260  1.8467  1.0138  1.7701
11272TIP3   OH255230   2.461   3.669   5.211 -0.2983 -0.1632  0.8686
11272TIP3    H155231   2.367   3.656   5.196 -0.0531 -1.0210  0.0670
11272TIP3    H255232   2.477   3.632   5.298 -0.7378  0.1874  1.1062
11273TIP3   OH255233   5.435   2.700   1.259  0.7085 -0.1643  0.1013
11273TIP3    H155234   5.373   2.731   1.325 -0.2117  0.4115 -1.0218
11273TIP3    H255235   5.389   2.630   1.213  0.7941  0.4193 -0.8895
11274TIP3   OH255236   3.452   2.837  14.647 -0.6036 -0.2244 -0.0190
11274TIP3    H155237   3.490   2.907  14.700 -0.7910 -0.0822 -0.0684
11274TIP3    H255238   3.425   2.881  14.566 -1.0456 -0.2835  0.0904
11275TIP3   OH255239   1.242   0.485  15.178 -0.0939 -0.1966  0.7450
11275TIP3    H155240   1.312   0.425  15.203  1.7212  1.5603 -0.0399
11275TIP3    H255241   1.212   0.522  15.260 -1.2310 -2.1279  1.2417
11276TIP3   OH255242   0.308   1.274  14.757  0.3393  0.3620 -0.0649
11276TIP3    H155243   0.277   1.306  14.672 -0.6087  0.5769  0.3563
11276TIP3    H255244   0.367   1.344  14.788 -0.0386  0.7064 -0.1215
11277TIP3   OH255245   6.255   1.549   1.197 -0.1917  0.0604  0.1248
11277TIP3    H155246   6.251   1.461   1.236 -0.4638 -0.7522 -1.6940
11277TIP3    H255247   6.191   1.600   1.246 -1.9807 -1.4741 -0.5560
11278TIP3   OH255248   1.331   2.699   4.488  0.1060 -0.1896  0.5742
11278TIP3    H155249   1.359   2.722   4.576 -0.1415 -1.1499  0.9160
11278TIP3    H255250   1.400   2.643   4.454 -0.1672 -0.4555  0.4514
11279TIP3   OH255251   2.028   4.375  12.957  0.1905  0.3324  0.1619
11279TIP3    H155252   2.089   4.355  13.029 -1.0649 -0.7964  0.9427
11279TIP3    H255253   2.084   4.387  12.881  1.3163 -2.2782  0.5179
11280TIP3   OH255254   0.643   2.877   0.893  0.1404 -0.1036 -0.3098
11280TIP3    H155255   0.578   2.935   0.852  0.9705  1.5339  0.6460
11280TIP3    H255256   0.717   2.879   0.833  0.2551 -0.0008 -0.1638
11281TIP3   OH255257   6.354   5.339  16.825 -0.2172  0.7331  0.1430
11281TIP3    H155258   6.299   5.263  16.805 -0.4342  0.5214  1.4869
11281TIP3    H255259   6.432   5.327  16.770 -0.3124 -0.3967  0.2421
11282TIP3   OH255260   5.236   5.454  11.937  0.2502 -0.3945  0.0009
11282TIP3    H155261   5.289   5.529  11.963  1.5943 -1.2641 -0.1853
11282TIP3    H255262   5.152   5.492  11.911  1.9875  1.3975 -3.2386
11283TIP3   OH255263   2.065   0.086   2.594  0.1697 -0.2038  0.0554
11283TIP3    H155264   2.118   0.057   2.669 -2.3138  0.8372  2.2912
11283TIP3    H255265   2.095   0.175   2.576  0.3121 -0.2101  0.2591
11284TIP3   OH255266   4.612   0.552  13.205 -0.4532  0.5525  0.0711
11284TIP3    H155267   4.518   0.558  13.226 -0.5860 -0.8057 -0.0819
11284TIP3    H255268   4.652   0.624  13.254 -1.1669 -0.7790  2.7499
11285TIP3   OH255269   5.390   4.686   1.553  0.3187 -0.2926 -0.3968
11285TIP3    H155270   5.443   4.764   1.567  0.3818 -0.0434 -1.9233
11285TIP3    H255271   5.302   4.712   1.580  0.9158 -0.6534  1.9674
11286TIP3   OH255272   6.126   5.729  15.958 -0.0188  0.0309  1.0086
11286TIP3    H155273   6.109   5.764  15.870 -0.7780  0.6543  1.3911
11286TIP3    H255274   6.170   5.800  16.004  1.3208 -0.6634  0.8276
11287TIP3   OH255275   1.848   3.533  13.934 -0.0279 -0.1309 -0.4060
11287TIP3    H155276   1.809   3.494  14.012 -1.3270  1.0698 -0.4191
11287TIP3    H255277   1.942   3.532  13.951 -0.1873 -1.3284  0.4833
11288TIP3   OH255278   6.375   4.644  15.490 -0.3342  0.1111 -0.3683
11288TIP3    H155279   6.446   4.707  15.493 -0.1250 -0.0392 -1.9473
11288TIP3    H255280   6.363   4.617  15.581  0.6084  1.2585  0.1025
11289TIP3   OH255281   2.687   6.598   1.731 -0.4751 -0.0466  0.0453
11289TIP3    H155282   2.619   6.654   1.768 -1.3438 -1.5764  0.8244
11289TIP3    H255283   2.702   6.633   1.643 -0.2515  2.0143  0.8840
11290TIP3   OH255284   1.807   0.216  13.930 -0.1778 -0.1691 -0.0678
11290TIP3    H155285   1.786   0.127  13.899 -0.2885 -0.1073 -0.1760
11290TIP3    H255286   1.823   0.206  14.023 -2.3662  0.0402  0.3666
11291TIP3   OH255287   2.124   1.557   2.264 -0.5950 -0.3835 -0.0742
11291TIP3    H155288   2.216   1.585   2.260 -0.4515 -0.7975  0.3437
11291TIP3    H255289   2.123   1.474   2.215 -1.0304  0.3716 -1.3604
11292TIP3   OH255290   2.125   0.775   1.905  0.0921 -0.4633  0.2187
11292TIP3    H155291   2.040   0.816   1.887  0.4730  0.0140 -0.4984
11292TIP3    H255292   2.104   0.703   1.965 -0.9101 -0.7436 -0.4432
11293TIP3   OH255293   4.655   5.597   3.260  0.4872  0.1910 -0.3960
11293TIP3    H155294   4.650   5.606   3.165  0.9750  0.9030 -0.3593
11293TIP3    H255295   4.670   5.686   3.292  0.4052 -0.0563  0.3398
11294TIP3   OH255296   6.053   4.533  11.610  0.3119  0.5287  0.4952
11294TIP3    H155297   5.994   4.603  11.585 -0.9573 -0.0837  1.7243
11294TIP3    H255298   6.075   4.489  11.528  1.6339  2.7175 -0.3766
11295TIP3   OH255299   2.437   4.130   5.201  0.5051  0.6934 -0.3256
11295TIP3    H155300   2.492   4.052   5.187 -1.2870 -0.9106  1.2643
11295TIP3    H255301   2.377   4.131   5.127  0.4554  0.4967 -0.2881
11296TIP3   OH255302   2.577   5.090   3.014  0.0079 -0.2038  0.0173
11296TIP3    H155303   2.571   5.184   3.027 -0.6573 -0.1850 -0.3960
11296TIP3    H255304   2.517   5.053   3.079 -1.2713 -0.2405 -1.1724
11297TIP3   OH255305   0.852   0.747   2.309  0.5632  0.2063 -0.1824
11297TIP3    H155306   0.938   0.773   2.340  0.8181 -0.7368 -0.0686
11297TIP3    H255307   0.815   0.695   2.381  0.8250 -1.2914 -1.0918
11298TIP3   OH255308   2.907   3.870   5.046  0.5445 -0.2354 -0.3339
11298TIP3    H155309   2.995   3.908   5.043  0.2044  0.5139 -0.9540
11298TIP3    H255310   2.852   3.934   5.003 -0.1785 -1.0756 -0.6795
11299TIP3   OH255311   6.118   2.471  17.199 -0.2265  0.3721  0.3112
11299TIP3    H155312   6.188   2.525  17.162  0.0943  0.1777  0.6299
11299TIP3    H255313   6.150   2.447  17.286 -1.9644  2.7871  1.6832
11300TIP3   OH255314   2.787   1.705  13.507  0.6234  0.3260 -0.0129
11300TIP3    H155315   2.774   1.646  13.432 -0.1852  1.2007 -0.5752
11300TIP3    H255316   2.810   1.789  13.467 -1.4936  1.2549  0.6167
11301TIP3   OH255317   0.107   0.309   3.484 -0.6336  0.5533 -0.0228
11301TIP3    H155318   0.071   0.222   3.499  0.5262  0.0051 -0.3677
11301TIP3    H255319   0.060   0.365   3.546  0.7136 -0.8283  2.3421
11302TIP3   OH255320   1.614   5.116  12.764  0.7339  0.0009  0.0641
11302TIP3    H155321   1.536   5.102  12.817 -0.3118  1.5434 -1.0404
11302TIP3    H255322   1.581   5.153  12.682  2.1913 -3.4347 -2.1834
11303TIP3   OH255323   2.381   1.714  11.929  0.0319  0.4387 -0.2893
11303TIP3    H155324   2.332   1.690  11.851  0.4447 -0.7031 -0.2106
11303TIP3    H255325   2.316   1.717  11.998  0.0367 -1.0122 -0.1983
11304TIP3   OH255326   5.750   0.107  14.132  0.0273 -0.0111 -0.2344
11304TIP3    H155327   5.771   0.150  14.049 -0.6191 -2.4350 -1.7002
11304TIP3    H255328   5.671   0.152  14.164 -0.2716  0.2951 -1.4062
11305TIP3   OH255329   3.658   3.273  13.139  0.1664 -0.4577  0.0864
11305TIP3    H155330   3.698   3.357  13.158 -1.3645  0.6058 -1.2442
11305TIP3    H255331   3.707   3.210  13.192  1.7389  1.1717  0.6015
11306TIP3   OH255332   2.530   2.511  12.180  0.0560  0.5491 -0.5188
11306TIP3    H155333   2.544   2.428  12.226  0.0695  0.2582 -1.0465
11306TIP3    H255334   2.546   2.490  12.088 -2.7212  0.4814 -1.0132
11307TIP3   OH255335   2.059   4.950   3.934 -0.9134 -0.1281  0.2911
11307TIP3    H155336   2.047   5.034   3.890 -3.4280 -0.0517  1.0556
11307TIP3    H255337   2.062   4.885   3.864 -0.6404  0.4192 -0.2050
11308TIP3   OH255338   0.059   3.760  13.082 -0.4393 -0.7767 -0.5115
11308TIP3    H155339   0.116   3.733  13.010  0.8733 -0.2921  0.3308
11308TIP3    H255340   0.098   3.721  13.159 -2.2128 -1.8385 -0.1145
11309TIP3   OH255341   0.242   1.591  14.037 -0.0826 -0.4520 -0.5104
11309TIP3    H155342   0.290   1.667  14.071 -1.2538  0.2311 -0.3711
11309TIP3    H255343   0.295   1.560  13.963 -1.3981  2.6822 -2.8532
11310TIP3   OH255344   0.883   1.383   2.079 -0.3984  0.4335  0.1632
11310TIP3    H155345   0.833   1.441   2.137  0.4513  0.2477  1.0955
11310TIP3    H255346   0.899   1.305   2.132  1.6261  0.8496  0.2078
11311TIP3   OH255347   0.994   4.309  14.752  0.0485 -0.2912 -0.3785
11311TIP3    H155348   1.034   4.262  14.826 -0.9888  1.3534  1.2496
11311TIP3    H255349   1.012   4.253  14.677  4.4830 -0.1968  0.4426
11312TIP3   OH255350   5.848   0.600  10.532 -0.3820  0.4327 -0.3959
11312TIP3    H155351   5.829   0.693  10.515  0.2835  0.6534  0.0679
11312TIP3    H255352   5.882   0.599  10.621  1.4242 -0.0218 -1.0729
11313TIP3   OH255353   5.329   3.100   2.423 -0.0108  0.8945 -0.3936
11313TIP3    H155354   5.341   3.009   2.397  1.6440 -0.4442  4.4862
11313TIP3    H255355   5.257   3.098   2.486  1.7000  2.4580  1.7060
11314TIP3   OH255356   5.372   2.890  14.271  0.0420  0.4169 -0.3469
11314TIP3    H155357   5.418   2.912  14.190  1.1946  0.3024  0.2738
11314TIP3    H255358   5.409   2.806  14.297  2.1437  2.0457  2.1168
11315TIP3   OH255359   2.671   4.534   5.514 -0.5226  0.3431 -0.3693
11315TIP3    H155360   2.715   4.608   5.556 -0.6820  0.1385  0.1560
11315TIP3    H255361   2.578   4.548   5.530 -0.8543  1.8998 -3.2694
11316TIP3   OH255362   3.753   0.878   3.582  0.5228 -0.3749  0.0901
11316TIP3    H155363   3.816   0.850   3.648  0.1768  1.1930  1.1090
11316TIP3    H255364   3.700   0.801   3.564  2.1315 -1.4529 -0.0854
11317TIP3   OH255365   0.323   1.619  15.401 -0.4343 -0.0707  0.4087
11317TIP3    H155366   0.293   1.555  15.466  1.5772  0.0688  1.5136
11317TIP3    H255367   0.269   1.696  15.419 -2.3501 -1.1628 -0.4362
11318TIP3   OH255368   0.153   1.245  13.737  0.3669 -0.2580 -0.4567
11318TIP3    H155369   0.089   1.315  13.724  0.8533  0.1280 -0.8191
11318TIP3    H255370   0.212   1.252  13.661  0.7684 -0.6785 -0.1873
11319TIP3   OH255371   0.212   4.049  14.985  0.0900 -0.1592  0.4491
11319TIP3    H155372   0.251   4.088  15.063  1.1107  1.0995 -0.6637
11319TIP3    H255373   0.186   4.124  14.931 -1.1506 -1.0044 -0.1667
11320TIP3   OH255374   4.576   4.802  11.670  0.3225  1.0164  0.1299
11320TIP3    H155375   4.523   4.775  11.595  0.5065  1.6510 -0.2348
11320TIP3    H255376   4.512   4.838  11.732 -0.1185 -1.7833  1.3332
11321TIP3   OH255377   5.356   3.248   0.949 -0.6851  0.3376  0.0718
11321TIP3    H155378   5.358   3.162   0.993 -2.5224 -0.1294 -0.6888
11321TIP3    H255379   5.364   3.227   0.856 -1.0872  0.9925 -0.1105
11322TIP3   OH255380   0.967   4.024   6.492  0.6551  0.2384 -0.2750
11322TIP3    H155381   0.920   3.976   6.559  1.9180 -1.9849 -0.9200
11322TIP3    H255382   0.914   4.015   6.413 -0.1075  1.6270  0.0674
11323TIP3   OH255383   3.571   1.130  15.856 -0.0950 -0.1199 -0.3689
11323TIP3    H155384   3.507   1.191  15.820  1.3131  2.3691  1.1876
11323TIP3    H255385   3.620   1.099  15.779 -0.3955  1.2560 -1.1419
11324TIP3   OH255386   2.903   2.942   3.359 -0.3794 -0.3537 -0.1536
11324TIP3    H155387   2.947   2.858   3.366  1.5550  0.6166 -0.4845
11324TIP3    H255388   2.943   2.984   3.283 -2.2513  0.3428 -0.7893
11325TIP3   OH255389   1.850   3.918   3.003  0.3648 -0.0724  0.5768
11325TIP3    H155390   1.782   3.947   3.064  0.4997  0.7684  0.3411
11325TIP3    H255391   1.812   3.932   2.916  0.8905  0.5568  0.4426
11326TIP3   OH255392   5.577   2.692   3.082 -0.0156 -0.2756  0.3388
11326TIP3    H155393   5.530   2.669   3.003 -0.7216  0.2274  0.6050
11326TIP3    H255394   5.670   2.691   3.057 -0.2641  0.4186 -0.6284
11327TIP3   OH255395   6.662   5.389  12.315 -0.3199 -0.0646  0.1316
11327TIP3    H155396   6.703   5.337  12.245 -2.1715  2.7427 -3.2255
11327TIP3    H255397   6.568   5.375  12.303 -0.6962  1.1243  1.5259
11328TIP3   OH255398   6.339   4.262   2.658 -0.0815 -0.6190 -0.1384
11328TIP3    H155399   6.412   4.316   2.630 -0.5528 -0.7932 -1.7573
11328TIP3    H255400   6.349   4.255   2.753  0.3881  1.7162  0.0175
11329TIP3   OH255401   3.958   0.168   0.531  0.3272 -0.0091  0.3460
11329TIP3    H155402   4.020   0.213   0.474 -1.5883  0.8262 -1.1401
11329TIP3    H255403   3.938   0.232   0.599 -0.1926  0.3580 -0.1438
11330TIP3   OH255404   4.599   4.426  15.053 -0.1271  0.1020 -0.7328
11330TIP3    H155405   4.685   4.434  15.013 -0.2783  0.2517 -1.0353
11330TIP3    H255406   4.593   4.500  15.113  1.0125 -1.4196  1.3328
11331TIP3   OH255407   4.537   0.460  12.008 -0.5025 -0.0002 -0.1114
11331TIP3    H155408   4.608   0.395  12.002 -1.0241 -0.5030 -0.8884
11331TIP3    H255409   4.457   0.410  11.996 -0.8450  0.9814 -2.3703
11332TIP3   OH255410   0.646   6.771   4.127  0.1664 -0.1279  0.1156
11332TIP3    H155411   0.667   6.864   4.124  0.5005 -0.2124 -0.1200
11332TIP3    H255412   0.550   6.768   4.128  0.1525  0.2074 -0.1960
11333TIP3   OH255413   2.646   4.026  16.253  0.3211 -0.3761 -0.0871
11333TIP3    H155414   2.725   4.076  16.231  0.8266 -1.5220 -0.9373
11333TIP3    H255415   2.629   3.973  16.176 -1.7381  0.4001 -0.2053
11334TIP3   OH255416   1.387   4.400  14.816 -0.0794 -0.7010 -0.1231
11334TIP3    H155417   1.334   4.471  14.851 -1.3582 -0.7908 -1.8210
11334TIP3    H255418   1.446   4.444  14.753 -0.6253 -1.0708 -0.9050
11335TIP3   OH255419   3.133   6.369  16.642  0.2815 -0.3014 -0.7567
11335TIP3    H155420   3.140   6.298  16.705  1.0046  0.6537  0.2475
11335TIP3    H255421   3.215   6.365  16.592  1.2523  1.1267  0.6889
11336TIP3   OH255422   1.307   3.372   5.648 -0.1259  0.0022 -0.4965
11336TIP3    H155423   1.255   3.438   5.695  0.1780 -0.2946  0.2736
11336TIP3    H255424   1.341   3.418   5.572  0.9286  1.0315  0.5762
11337TIP3   OH255425   1.377   5.162   1.024  0.3448 -0.1359 -0.3054
11337TIP3    H155426   1.383   5.222   0.949 -1.5850 -1.1692 -1.3487
11337TIP3    H255427   1.443   5.095   1.007  0.1035 -0.2146 -0.9692
11338TIP3   OH255428   4.892   0.676  13.596  0.0595 -0.0468 -0.2709
11338TIP3    H155429   4.902   0.757  13.547  0.6325 -0.0452 -0.1562
11338TIP3    H255430   4.939   0.692  13.678 -0.3207 -0.2880 -0.0054
11339TIP3   OH255431   5.751   3.563   0.128 -0.7584  0.0638  0.1576
11339TIP3    H155432   5.769   3.656   0.114  3.3947 -0.4924  1.2815
11339TIP3    H255433   5.794   3.519   0.055  0.3783 -1.1929  1.5571
11340TIP3   OH255434   0.158   5.305   3.534 -1.1239 -0.3289 -0.0622
11340TIP3    H155435   0.107   5.333   3.458 -0.5636  0.3166 -0.1993
11340TIP3    H255436   0.245   5.343   3.520 -1.0557 -0.1051  0.9602
11341TIP3   OH255437   3.857   1.549  13.146  0.1242  0.7257 -0.0209
11341TIP3    H155438   3.764   1.535  13.124  0.5324 -0.1877 -1.2257
11341TIP3    H255439   3.904   1.530  13.065  1.5029 -0.4799  1.0313
11342TIP3   OH255440   1.419   1.267   1.263  0.8197 -0.8421  0.6892
11342TIP3    H155441   1.495   1.312   1.299  0.5907  0.5455 -0.5361
11342TIP3    H255442   1.362   1.337   1.231 -0.5543 -1.9076  0.7674
11343TIP3   OH255443   2.230   1.271   0.915  0.2842  0.5478  0.1379
11343TIP3    H155444   2.248   1.284   1.008  1.1885 -0.9100  0.2020
11343TIP3    H255445   2.316   1.249   0.878 -0.4816 -1.4225 -0.5396
11344TIP3   OH255446   5.319   6.381   1.362  0.5747 -0.0353  0.0482
11344TIP3    H155447   5.224   6.390   1.352  0.5783 -1.0718 -1.0369
11344TIP3    H255448   5.352   6.471   1.352 -0.2976  0.3493  0.5599
11345TIP3   OH255449   5.257   1.887   1.127  0.4432  0.2900 -0.7262
11345TIP3    H155450   5.186   1.912   1.068 -0.3430 -0.5605 -0.1456
11345TIP3    H255451   5.242   1.794   1.144  1.1466  0.3398  0.1645
11346TIP3   OH255452   3.876   2.492   1.346 -0.4886  0.4962 -0.4294
11346TIP3    H155453   3.824   2.443   1.410  0.1489  0.1854 -0.1458
11346TIP3    H255454   3.841   2.464   1.261 -0.3592 -0.1851 -0.2588
11347TIP3   OH255455   4.919   0.596  11.584 -0.1297 -0.2992 -0.2543
11347TIP3    H155456   4.882   0.547  11.510  0.2993 -1.1994  0.1113
11347TIP3    H255457   4.879   0.555  11.661  0.4106 -0.2198  0.0664
11348TIP3   OH255458   0.557   3.055  16.504  0.2201 -0.3552 -0.0058
11348TIP3    H155459   0.581   3.136  16.458 -0.8446  0.5757  1.0279
11348TIP3    H255460   0.471   3.032  16.469 -1.1021  0.9761  2.2546
11349TIP3   OH255461   6.598   0.386   4.697  1.0093 -0.1253 -0.3277
11349TIP3    H155462   6.570   0.374   4.606 -0.1243  1.7349 -0.2492
11349TIP3    H255463   6.632   0.475   4.701  0.4369  0.0481  1.2154
11350TIP3   OH255464   4.236   0.234   4.403 -0.0937 -0.5149 -0.5372
11350TIP3    H155465   4.231   0.175   4.327 -0.1282 -1.3516  0.1034
11350TIP3    H255466   4.317   0.209   4.447 -0.6803 -0.8618  0.3636
11351TIP3   OH255467   4.674   2.384  15.487  0.6078 -0.1967  0.7223
11351TIP3    H155468   4.678   2.438  15.409 -0.3107 -1.9663 -0.5907
11351TIP3    H255469   4.593   2.411  15.531  1.2896  1.0236  1.2473
11352TIP3   OH255470   5.097   4.648   5.233 -0.0456 -0.5163  0.1307
11352TIP3    H155471   5.122   4.584   5.166  0.3954  0.9257 -1.0859
11352TIP3    H255472   5.148   4.622   5.310  0.7926 -1.1104 -0.6047
11353TIP3   OH255473   5.049   0.222   0.484  0.4438  0.1205 -0.2107
11353TIP3    H155474   5.030   0.316   0.492 -1.7045 -0.2405 -0.6783
11353TIP3    H255475   5.014   0.183   0.564 -0.2559 -0.4853 -0.7954
11354TIP3   OH255476   6.199   4.620  13.484  0.4127  0.4542  0.0992
11354TIP3    H155477   6.246   4.675  13.547  0.2003  0.0612  0.6033
11354TIP3    H255478   6.159   4.682  13.423 -0.7640  0.9169  1.3216
11355TIP3   OH255479   4.130   6.674   3.969 -0.0955 -0.3096 -0.7053
11355TIP3    H155480   4.085   6.592   3.950 -1.0860  0.2711 -0.9089
11355TIP3    H255481   4.191   6.685   3.896  1.4138 -1.8072  0.2886
11356TIP3   OH255482   1.886   5.492   5.184  0.1682 -0.2738  0.4595
11356TIP3    H155483   1.966   5.475   5.134  0.4742  0.3129  0.7494
11356TIP3    H255484   1.840   5.408   5.185  1.2026 -0.8376  1.0536
11357TIP3   OH255485   3.559   0.278   6.449  0.8474 -0.8517  0.1941
11357TIP3    H155486   3.572   0.284   6.354 -0.2839  0.4337  0.1050
11357TIP3    H255487   3.592   0.361   6.482 -4.5284  1.4816  0.2167
11358TIP3   OH255488   4.295   6.250   4.138 -0.4367 -1.0671 -0.2059
11358TIP3    H155489   4.240   6.327   4.153 -0.5196 -1.2683  0.5537
11358TIP3    H255490   4.380   6.285   4.114 -0.3138 -0.7395  0.7220
11359TIP3   OH255491   1.065   2.979  14.094 -0.3640  0.4305  1.0842
11359TIP3    H155492   1.127   3.030  14.146 -1.8611  2.2488  1.1136
11359TIP3    H255493   0.988   2.971  14.149 -0.6966 -0.5864  0.4849
11360TIP3   OH255494   5.618   2.215  16.921 -0.5628  0.8536  0.7088
11360TIP3    H155495   5.602   2.212  17.016 -1.6275  1.3998  0.5517
11360TIP3    H255496   5.585   2.300  16.894 -1.2112  0.2848 -0.3263
11361TIP3   OH255497   0.193   1.953   2.256  0.1466  0.0764  0.5212
11361TIP3    H155498   0.199   2.004   2.175 -2.1361 -0.3165  0.0837
11361TIP3    H255499   0.215   1.864   2.230 -1.0438 -0.1382  0.2244
11362TIP3   OH255500   2.444   6.527   0.557  0.0601  0.0171  0.9046
11362TIP3    H155501   2.435   6.433   0.542 -0.4783  0.0497  0.9990
11362TIP3    H255502   2.538   6.543   0.554  0.0724 -0.2653 -0.7112
11363TIP3   OH255503   6.116   6.134   4.248  0.1632 -0.4168  0.3097
11363TIP3    H155504   6.175   6.182   4.307  0.3601  0.5485 -0.6618
11363TIP3    H255505   6.050   6.198   4.224 -0.0337 -0.8748 -0.3638
11364TIP3   OH255506   6.011   3.725   4.878 -0.3860  0.4173  0.0815
11364TIP3    H155507   5.985   3.638   4.847  0.5672  0.7246 -1.6585
11364TIP3    H255508   5.951   3.785   4.833  0.4337  0.8053 -0.5146
11365TIP3   OH255509   5.653   1.979   4.517 -0.0311 -0.3979 -0.2683
11365TIP3    H155510   5.708   1.961   4.441 -0.1850 -1.0337 -0.2369
11365TIP3    H255511   5.709   1.958   4.592  1.2058  3.2515 -0.0877
11366TIP3   OH255512   0.591   3.103   4.566  0.0614  0.7811 -0.4696
11366TIP3    H155513   0.525   3.048   4.524  0.0912 -0.1812  0.7572
11366TIP3    H255514   0.671   3.088   4.515  0.1842 -0.6604  0.1409
11367TIP3   OH255515   3.976   6.496   0.208  0.0643  0.3081  0.1412
11367TIP3    H155516   4.002   6.405   0.222  0.3330  0.1577 -1.3355
11367TIP3    H255517   3.896   6.505   0.260  1.7295  0.1440  2.8564
11368TIP3   OH255518   2.117   6.353  13.667 -0.2561  0.2666 -0.4367
11368TIP3    H155519   2.194   6.410  13.661 -0.5394  0.7027 -0.0042
11368TIP3    H255520   2.084   6.348  13.577 -0.6446  1.3799 -0.3714
11369TIP3   OH255521   0.722   4.829  10.987 -0.6647  0.5868  0.3174
11369TIP3    H155522   0.750   4.742  10.957 -1.6908  0.5996 -0.7349
11369TIP3    H255523   0.795   4.860  11.041 -0.0809 -0.7271  0.3223
11370TIP3   OH255524   4.366   6.784  15.762 -0.2838 -0.1711 -0.6248
11370TIP3    H155525   4.333   6.854  15.705 -1.0352 -0.4005 -0.4719
11370TIP3    H255526   4.436   6.742  15.711  0.7508  1.2219 -0.3944
11371TIP3   OH255527   0.740   6.315   5.630 -0.2012 -0.6774 -0.0250
11371TIP3    H155528   0.761   6.280   5.543  0.3736  0.4295 -0.3438
11371TIP3    H255529   0.823   6.345   5.665 -0.3308 -1.7163  1.1942
11372TIP3   OH255530   0.054   5.936  16.193 -0.0743  0.8064  0.0572
11372TIP3    H155531  -0.004   5.895  16.257 -1.4153  1.1110 -0.9547
11372TIP3    H255532   0.005   5.935  16.111  0.8950  2.1074 -0.5566
11373TIP3   OH255533   4.647   6.260  15.064  0.6528  0.4371 -0.0390
11373TIP3    H155534   4.589   6.328  15.098 -2.3071 -1.4952 -1.0238
11373TIP3    H255535   4.676   6.211  15.141 -1.3792 -0.3635  0.2288
11374TIP3   OH255536   0.808   5.666  14.984 -0.1513 -0.2954 -0.6617
11374TIP3    H155537   0.847   5.693  14.901  0.1725 -0.8781 -0.6993
11374TIP3    H255538   0.740   5.603  14.960  0.2143 -0.7712 -0.4641
11375TIP3   OH255539   5.174   4.197   4.987  0.2377  0.0597  0.0416
11375TIP3    H155540   5.259   4.170   4.951  0.9015 -0.1021  1.6852
11375TIP3    H255541   5.169   4.154   5.072 -1.4975  0.0997 -0.0169
11376TIP3   OH255542   5.125   3.916  12.032  0.2354  0.2306  0.3458
11376TIP3    H155543   5.184   3.890  11.961 -0.5000  1.8943 -0.9199
11376TIP3    H255544   5.037   3.913  11.993 -0.3195 -0.0903  1.5724
11377TIP3   OH255545   1.418   3.031  12.173 -0.4336 -0.3031 -0.4997
11377TIP3    H155546   1.485   3.036  12.105  0.3102  0.9055  0.2913
11377TIP3    H255547   1.353   3.097  12.149  0.6330  1.2532  0.7774
11378TIP3   OH255548   1.623   1.219   4.435  0.4211  0.0770  0.2602
11378TIP3    H155549   1.560   1.288   4.452 -1.0361 -1.0941 -0.2751
11378TIP3    H255550   1.579   1.138   4.463  1.9439 -0.6771  0.5350
11379TIP3   OH255551   3.172   1.280  12.855  0.2962 -0.0838  0.3309
11379TIP3    H155552   3.154   1.243  12.941 -0.7852 -1.0627 -0.2998
11379TIP3    H255553   3.146   1.211  12.793  1.3859  0.4715 -0.7664
11380TIP3   OH255554   4.622   1.752  15.877  0.1504 -0.7070 -0.0187
11380TIP3    H155555   4.693   1.760  15.815  0.3300  0.3026  0.3083
11380TIP3    H255556   4.614   1.657  15.893  0.4373 -0.9244 -1.1679
11381TIP3   OH255557   3.239   6.202   3.481 -0.3679 -0.6909 -0.1683
11381TIP3    H155558   3.309   6.262   3.507 -1.0073  0.2881 -0.6629
11381TIP3    H255559   3.272   6.115   3.503  0.7973 -0.1997  0.0515
11382TIP3   OH255560   1.611   3.975  11.027  0.1720  0.9460  0.5798
11382TIP3    H155561   1.539   3.999  10.968  0.2274 -0.3009 -0.0074
11382TIP3    H255562   1.635   4.057  11.070 -0.8785  1.5796 -0.0237
11383TIP3   OH255563   2.298   5.170  15.605 -0.7413 -0.6727 -0.4897
11383TIP3    H155564   2.285   5.112  15.680  2.1457 -0.9805 -0.1772
11383TIP3    H255565   2.367   5.128  15.553  0.4800  1.7624 -0.9419
11384TIP3   OH255566   5.899   2.162   6.017  0.4641  0.3447  0.6671
11384TIP3    H155567   5.965   2.093   6.022  0.6391  0.5070  0.5821
11384TIP3    H255568   5.830   2.133   6.076  0.0574 -0.4259 -0.1607
11385TIP3   OH255569   3.210   4.540  13.354  0.1849  0.5183 -0.6113
11385TIP3    H155570   3.209   4.489  13.273 -0.6363  0.8733 -0.8310
11385TIP3    H255571   3.297   4.580  13.356  0.7225 -0.6340 -0.5988
11386TIP3   OH255572   6.692   3.755  16.362  0.4285 -0.1911 -0.1097
11386TIP3    H155573   6.706   3.669  16.402  0.3329  1.0202  2.7139
11386TIP3    H255574   6.623   3.740  16.297 -0.2482 -2.1031  0.9812
11387TIP3   OH255575   0.046   6.176  17.121  0.0753  0.7790  1.0371
11387TIP3    H155576   0.064   6.088  17.088 -0.1403  0.7405  1.0188
11387TIP3    H255577   0.132   6.218  17.126 -0.0114  1.1593 -0.6457
11388TIP3   OH255578   6.240   4.388  16.695  0.1044  0.0137  0.1630
11388TIP3    H155579   6.311   4.453  16.702 -0.2384  0.1680  2.5550
11388TIP3    H255580   6.272   4.312  16.744 -0.1377 -1.0582 -1.3270
11389TIP3   OH255581   1.350   2.872   1.188 -0.1514  0.2168  0.5730
11389TIP3    H155582   1.303   2.896   1.108  1.5649  1.5107 -0.0745
11389TIP3    H255583   1.317   2.932   1.254 -0.0918  0.4837  0.3588
11390TIP3   OH255584   4.509   5.492  11.831  0.0105 -0.2570 -0.9826
11390TIP3    H155585   4.577   5.516  11.894 -1.4323 -0.1875  0.6252
11390TIP3    H255586   4.525   5.400  11.811  0.2498 -0.4018 -0.1592
11391TIP3   OH255587   3.448   2.021  12.406  0.0120 -0.1144  0.2889
11391TIP3    H155588   3.425   1.975  12.326 -0.0671  1.7155 -0.7706
11391TIP3    H255589   3.530   1.982  12.434 -0.3346 -1.2626 -0.2860
11392TIP3   OH255590   4.900   4.798   5.985 -0.2622 -0.1953  0.5111
11392TIP3    H155591   4.926   4.775   6.075 -1.5193 -0.1454  0.9020
11392TIP3    H255592   4.817   4.844   5.996 -1.8005 -2.5407 -0.8539
11393TIP3   OH255593   1.728   0.572   6.256  0.0952  0.4259 -0.0602
11393TIP3    H155594   1.763   0.572   6.345 -1.8464 -0.7434  0.7452
11393TIP3    H255595   1.696   0.482   6.243  1.9205  0.0950 -2.5777
11394TIP3   OH255596   4.627   6.359   3.402 -0.7294  0.1553 -0.0898
11394TIP3    H155597   4.666   6.338   3.487  0.4905 -0.5612 -0.8089
11394TIP3    H255598   4.556   6.295   3.391 -1.2275  0.5887  0.6251
11395TIP3   OH255599   4.356   5.465   3.195  0.0834  0.0405  0.0645
11395TIP3    H155600   4.407   5.466   3.114 -1.0964  0.6483 -0.6940
11395TIP3    H255601   4.372   5.551   3.234  0.7053 -0.2780  0.5143
11396TIP3   OH255602   6.301   1.407  16.794  0.3160  0.5716  0.3822
11396TIP3    H155603   6.343   1.456  16.865  0.2559  1.2553 -0.0528
11396TIP3    H255604   6.371   1.395  16.730  0.0609  0.9960  0.0261
11397TIP3   OH255605   5.755   5.524   1.314 -0.0881  0.3390 -0.2791
11397TIP3    H155606   5.750   5.510   1.408  1.6956  2.0098  0.1019
11397TIP3    H255607   5.764   5.619   1.304  1.3007  0.0580 -2.0269
11398TIP3   OH255608   5.387   1.942   4.603  0.4714 -0.4962  0.1659
11398TIP3    H155609   5.378   2.038   4.602 -1.5888 -0.6544 -1.3241
11398TIP3    H255610   5.479   1.926   4.584  0.9716  1.1928  1.0408
11399TIP3   OH255611   4.760   3.819   5.592  0.0647 -0.7150 -0.1223
11399TIP3    H155612   4.749   3.859   5.679  0.2828 -0.4498 -0.2147
11399TIP3    H255613   4.675   3.829   5.550  1.7407  5.4916 -2.5847
11400TIP3   OH255614   1.102   3.392  14.506  0.2759 -0.0251 -0.1810
11400TIP3    H155615   1.195   3.417  14.509 -0.0853  1.4002 -0.3093
11400TIP3    H255616   1.055   3.475  14.515 -0.9964 -0.8243  0.7626
11401TIP3   OH255617   0.293   4.264   2.718 -0.0837 -0.0270 -0.2345
11401TIP3    H155618   0.214   4.221   2.750 -0.9117  0.8978 -0.9820
11401TIP3    H255619   0.300   4.344   2.771  0.2453 -0.0116 -0.2991
11402TIP3   OH255620   4.482   2.746  16.284  0.0569 -0.4839 -0.1075
11402TIP3    H155621   4.561   2.799  16.284  0.9507 -1.8040  0.1410
11402TIP3    H255622   4.442   2.761  16.198 -0.6845  2.0148  0.6292
11403TIP3   OH255623   1.442   3.311  15.504  0.1683  0.3242  0.8613
11403TIP3    H155624   1.529   3.338  15.474  0.4155  0.2632  1.5125
11403TIP3    H255625   1.387   3.314  15.426  0.5177  1.3703  0.6540
11404TIP3   OH255626   3.689   3.053  13.691 -0.6707 -0.3816  0.3010
11404TIP3    H155627   3.784   3.064  13.687 -0.4369 -1.4134  2.2889
11404TIP3    H255628   3.664   3.099  13.772 -1.8965  0.1096 -0.3492
11405TIP3   OH255629   0.363   0.521  12.950  0.3586 -0.1282 -0.1371
11405TIP3    H155630   0.319   0.448  12.908 -0.3064 -0.7501  1.5957
11405TIP3    H255631   0.292   0.578  12.979  0.7198 -0.5673  1.6539
11406TIP3   OH255632   6.452   6.440   4.568 -0.2705 -0.2983 -0.0134
11406TIP3    H155633   6.535   6.397   4.589 -1.3287 -2.1299  0.5458
11406TIP3    H255634   6.464   6.531   4.595  2.0758 -0.1777 -1.3648
11407TIP3   OH255635   4.815   1.350  10.701  0.0289 -0.3978 -0.2448
11407TIP3    H155636   4.903   1.369  10.666 -0.3886  0.2774 -0.9462
11407TIP3    H255637   4.756   1.396  10.642 -0.9092 -2.2966 -0.8243
11408TIP3   OH255638   5.929   4.148   0.561 -0.2637 -0.1550  0.0425
11408TIP3    H155639   5.934   4.056   0.586 -0.7157 -0.0360  0.5657
11408TIP3    H255640   5.865   4.150   0.490 -1.1700 -0.0749  0.8496
11409TIP3   OH255641   3.702   5.056  17.135 -0.4333  0.3525  0.6437
11409TIP3    H155642   3.622   5.006  17.150 -0.5035  0.6735  1.3600
11409TIP3    H255643   3.694   5.089  17.045 -0.9242  0.0602  0.5829
11410TIP3   OH255644   0.343   4.767  12.858  0.4181 -0.0720  0.4950
11410TIP3    H155645   0.335   4.830  12.929 -0.9861 -0.7139  0.9221
11410TIP3    H255646   0.322   4.817  12.779  0.1743  0.1957  0.7325
11411TIP3   OH255647   1.152   5.789  15.941 -0.1136 -0.0970  0.1860
11411TIP3    H155648   1.244   5.810  15.922  0.3868 -1.3744  1.1020
11411TIP3    H255649   1.121   5.863  15.992  0.5315  0.1758  0.1942
11412TIP3   OH255650   3.251   6.709  14.052 -0.4809  0.2741  0.3021
11412TIP3    H155651   3.174   6.766  14.053 -1.9391 -1.6051 -1.9679
11412TIP3    H255652   3.294   6.726  14.136 -0.8874  4.6469 -0.2520
11413TIP3   OH255653   5.289   5.869   1.535  0.6192 -0.4517 -0.1266
11413TIP3    H155654   5.307   5.795   1.592 -0.3229 -0.3719  0.2932
11413TIP3    H255655   5.219   5.838   1.477 -0.5794  0.4588  0.8001
11414TIP3   OH255656   0.417   5.357   3.746 -0.6590 -0.5800 -0.0334
11414TIP3    H155657   0.455   5.321   3.826 -0.3843 -0.3866 -0.0758
11414TIP3    H255658   0.408   5.450   3.764 -0.1125 -0.4520 -0.4166
11415TIP3   OH255659   5.847   2.557  14.334  0.0426  0.2995  0.4221
11415TIP3    H155660   5.877   2.623  14.272  1.1481  0.6201  1.2906
11415TIP3    H255661   5.878   2.474  14.298 -0.6197  0.3242 -0.2279
11416TIP3   OH255662   2.329   0.223   0.466  0.5082  0.1398  0.2101
11416TIP3    H155663   2.371   0.151   0.514 -0.4903  0.5802  1.7781
11416TIP3    H255664   2.365   0.302   0.506  2.0941  0.5524 -1.9461
11417TIP3   OH255665   1.851   5.326   5.463 -0.3304 -0.1751 -0.2168
11417TIP3    H155666   1.927   5.360   5.511 -0.2000  3.0661 -2.5945
11417TIP3    H255667   1.783   5.317   5.530  1.1820 -0.1068  1.3656
11418TIP3   OH255668   2.553   1.342  12.931 -0.1492 -0.0325 -0.3093
11418TIP3    H155669   2.603   1.276  12.980  0.1963  0.4773  0.0338
11418TIP3    H255670   2.595   1.345  12.845 -0.1148 -0.2021 -0.2991
11419TIP3   OH255671   2.103   3.294   4.753 -0.4810  0.2213  0.6003
11419TIP3    H155672   2.197   3.309   4.744 -0.7102  1.4573  0.1574
11419TIP3    H255673   2.063   3.353   4.689 -1.5708 -0.0896  0.9825
11420TIP3   OH255674   2.018   0.484   2.578  0.4222 -0.5348  0.5132
11420TIP3    H155675   2.056   0.413   2.525 -0.5554  1.0472 -2.4214
11420TIP3    H255676   2.082   0.555   2.571 -0.7309  0.4372 -0.4218
11421TIP3   OH255677   3.998   5.328  12.726  0.1014 -0.2537  0.4567
11421TIP3    H155678   4.059   5.312  12.653  1.1173 -0.8698  1.4171
11421TIP3    H255679   3.943   5.400  12.695  3.1680  2.3202  0.6464
11422TIP3   OH255680   6.319   3.985   6.164 -0.5006 -0.2793 -0.4318
11422TIP3    H155681   6.346   4.034   6.241  0.7788 -0.3336 -0.8277
11422TIP3    H255682   6.228   4.010   6.150  0.2670  2.4082 -0.9242
11423TIP3   OH255683   6.351   0.337  13.260 -0.6245 -0.0954 -0.1192
11423TIP3    H155684   6.399   0.367  13.336 -0.2767 -0.8075 -0.0547
11423TIP3    H255685   6.309   0.256  13.288 -0.5195 -0.3450 -0.6753
11424TIP3   OH255686   4.721   3.834   1.101 -0.3331  0.4104 -0.2132
11424TIP3    H155687   4.645   3.780   1.080  0.3401 -0.3823 -0.6544
11424TIP3    H255688   4.793   3.771   1.109  0.6904  1.3428 -1.8584
11425TIP3   OH255689   4.145   2.491  14.242 -0.1226 -0.2412 -0.0270
11425TIP3    H155690   4.091   2.559  14.201 -2.5645 -2.0171  0.1364
11425TIP3    H255691   4.106   2.479  14.329  2.3539  0.4603  1.2229
11426TIP3   OH255692   1.653   1.260  13.117 -0.0515 -0.7974 -0.4056
11426TIP3    H155693   1.717   1.281  13.185  0.8719 -0.6874 -1.3014
11426TIP3    H255694   1.601   1.188  13.154  0.0888 -0.3672  0.6281
11427TIP3   OH255695   2.421   6.427  16.817 -0.1726  0.3083  0.0103
11427TIP3    H155696   2.411   6.421  16.912  4.3505 -0.2635  0.5447
11427TIP3    H255697   2.378   6.348  16.784  1.9840 -1.8111  1.9941
11428TIP3   OH255698   4.302   0.115  12.274  0.4499  0.2928 -0.3387
11428TIP3    H155699   4.366   0.075  12.332  0.2086  0.2597 -0.0927
11428TIP3    H255700   4.222   0.064  12.288  0.9633 -1.0867 -2.2818
11429TIP3   OH255701   1.431   4.260  14.095  0.3526 -0.1990 -0.7754
11429TIP3    H155702   1.425   4.185  14.155  2.6635 -1.0657 -1.5461
11429TIP3    H255703   1.439   4.220  14.008  2.2534  0.9113 -1.1336
11430TIP3   OH255704   4.788   3.713   3.145  0.4601 -0.0827  0.1139
11430TIP3    H155705   4.738   3.632   3.132  0.7527 -0.0731 -1.1976
11430TIP3    H255706   4.722   3.780   3.159  0.2547 -0.7540  2.5263
11431TIP3   OH255707   4.993   3.493   5.921 -0.5336  0.1413 -0.3692
11431TIP3    H155708   4.966   3.535   5.839 -0.9691  0.7433  0.0749
11431TIP3    H255709   5.046   3.560   5.965  0.1002 -0.3568 -0.3752
11432TIP3   OH255710   3.201   5.654   2.272 -0.0039 -0.0857 -0.3082
11432TIP3    H155711   3.232   5.609   2.193 -0.4725 -0.9189 -0.0302
11432TIP3    H255712   3.106   5.640   2.271  0.1419 -1.2221  1.0898
11433TIP3   OH255713   2.790   4.870   4.791 -0.3349  0.0760  0.3593
11433TIP3    H155714   2.729   4.821   4.735  1.8478  0.8008 -2.7847
11433TIP3    H255715   2.855   4.805   4.817  0.6312  0.5118 -0.9342
11434TIP3   OH255716   1.822   3.051  13.435  0.1032 -0.2521 -0.2688
11434TIP3    H155717   1.778   2.967  13.448  0.4784 -0.5389 -0.8590
11434TIP3    H255718   1.876   3.039  13.357  1.4875 -0.0052  0.6381
11435TIP3   OH255719   2.965   0.978   6.365 -0.2573  0.3064 -0.4361
11435TIP3    H155720   2.870   0.974   6.371 -0.2542  2.6023  2.4308
11435TIP3    H255721   2.991   0.895   6.324 -3.4841 -0.0536 -1.8864
11436TIP3   OH255722   1.585   1.162   4.165 -0.5362 -0.2284  0.4038
11436TIP3    H155723   1.621   1.186   4.250  1.0362 -0.4659 -0.1954
11436TIP3    H255724   1.569   1.068   4.171 -0.2775 -0.2732  0.3801
11437TIP3   OH255725   6.500   3.128   2.928  0.5266  0.1190 -0.2251
11437TIP3    H155726   6.433   3.066   2.899 -0.2539  0.7325  0.2191
11437TIP3    H255727   6.468   3.158   3.013  0.6269  1.5224 -0.6727
11438TIP3   OH255728   0.351   6.699  12.629  0.4880  0.1638 -0.0621
11438TIP3    H155729   0.330   6.787  12.660  1.1076  0.1136  0.4964
11438TIP3    H255730   0.395   6.657  12.702  1.9313  0.0261 -0.9890
11439TIP3   OH255731   0.638   3.639  12.327 -0.6601  1.0401 -0.1754
11439TIP3    H155732   0.721   3.663  12.368 -1.6581  1.6805  1.5253
11439TIP3    H255733   0.605   3.721  12.290 -0.8448  0.9222 -0.2700
11440TIP3   OH255734   0.513   0.936   4.690  0.3955  0.1655 -0.7165
11440TIP3    H155735   0.491   0.921   4.598 -2.5308 -0.7919  0.0729
11440TIP3    H255736   0.509   1.031   4.700 -1.7405  0.1274 -1.0289
11441TIP3   OH255737   6.703   5.085  14.236 -0.2003 -0.2735  0.9905
11441TIP3    H155738   6.793   5.109  14.253  0.6557 -3.0299  0.6706
11441TIP3    H255739   6.662   5.079  14.323  0.3394 -0.4784  1.2310
11442TIP3   OH255740   4.775   5.420  14.696  0.4545 -0.1359 -0.2234
11442TIP3    H155741   4.854   5.443  14.746  0.4358  1.3463 -0.8290
11442TIP3    H255742   4.742   5.340  14.737  1.0352  0.4632  1.4523
11443TIP3   OH255743   3.924   3.070   3.342  0.3979  0.0022  0.5000
11443TIP3    H155744   3.872   3.031   3.412 -1.4603  0.1305 -0.7784
11443TIP3    H255745   3.879   3.043   3.261  2.5097 -0.1714 -0.6537
11444TIP3   OH255746   1.261   2.348  12.589  0.7429  0.0045 -0.4178
11444TIP3    H155747   1.170   2.355  12.616  0.3034 -1.0326 -1.5755
11444TIP3    H255748   1.259   2.357  12.494  2.1030  2.1813 -0.2739
11445TIP3   OH255749   1.010   4.640   4.580 -0.4755  1.0263  1.0352
11445TIP3    H155750   0.948   4.626   4.652  1.1369 -0.1573  2.2590
11445TIP3    H255751   1.055   4.721   4.602 -0.8515  1.3289  0.6967
11446TIP3   OH255752   4.851   4.369   2.308 -0.1732 -0.3004  1.2907
11446TIP3    H155753   4.921   4.324   2.261 -0.8725 -0.6081  0.5352
11446TIP3    H255754   4.805   4.298   2.354 -1.5115 -0.4304 -0.2032
11447TIP3   OH255755   3.419   3.399   5.380 -0.1014 -0.1114 -0.2103
11447TIP3    H155756   3.440   3.338   5.309 -3.1829 -1.1871 -0.2443
11447TIP3    H255757   3.398   3.481   5.336 -2.3006 -0.8621 -0.5830
11448TIP3   OH255758   0.592   1.247  15.848  0.6595  0.1491 -0.5333
11448TIP3    H155759   0.512   1.266  15.897  0.6573  1.8541 -1.1953
11448TIP3    H255760   0.576   1.161  15.809 -0.0591 -0.4032  0.9348
11449TIP3   OH255761   1.971   4.137   0.589  0.2424  0.0895 -0.0185
11449TIP3    H155762   2.033   4.210   0.588  1.7196 -1.1164  0.7133
11449TIP3    H255763   2.017   4.067   0.637 -1.3450 -1.1279 -0.2259
11450TIP3   OH255764   0.596   6.242  14.221  0.4548 -0.3283  0.4127
11450TIP3    H155765   0.684   6.259  14.188  0.5307 -1.9457 -0.2715
11450TIP3    H255766   0.610   6.186  14.297  0.1850  2.0880  2.3097
11451TIP3   OH255767   5.647   3.499  15.654 -0.6233 -0.0332  0.1124
11451TIP3    H155768   5.706   3.554  15.603  0.1622 -1.8047 -0.9374
11451TIP3    H255769   5.704   3.433  15.694 -1.5423 -0.0999  1.3253
11452TIP3   OH255770   6.710   1.536   5.119 -0.2699  0.0162 -0.6183
11452TIP3    H155771   6.636   1.510   5.065 -0.2252  0.5487 -0.9412
11452TIP3    H255772   6.684   1.621   5.156  0.0846  0.0993 -0.5581
11453TIP3   OH255773   3.756   6.735  14.271 -0.4136 -0.0172  0.4115
11453TIP3    H155774   3.792   6.654  14.236  0.2511 -0.0731  1.2104
11453TIP3    H255775   3.677   6.751  14.218 -0.0617 -0.7001 -0.3339
11454TIP3   OH255776   5.129   0.175  11.331 -0.2812 -0.0791  0.3555
11454TIP3    H155777   5.130   0.249  11.270 -0.3234 -0.6460 -0.3439
11454TIP3    H255778   5.203   0.191  11.389 -0.6876  0.8546  0.6260
11455TIP3   OH255779   6.773   3.967   3.109 -0.1729 -0.0986  0.2368
11455TIP3    H155780   6.750   3.929   3.024  1.9075 -1.0663  0.0857
11455TIP3    H255781   6.701   3.942   3.167 -1.0247 -0.4453 -0.9423
11456TIP3   OH255782   3.259   4.022   4.248  0.2291 -0.4253  0.1843
11456TIP3    H155783   3.294   4.024   4.337  0.6794 -0.8992  0.0226
11456TIP3    H255784   3.202   3.944   4.246 -0.3722  0.0066  0.2718
11457TIP3   OH255785   6.029   0.772  11.275 -0.2923 -0.4265 -0.0124
11457TIP3    H155786   5.938   0.798  11.290 -0.7855 -1.2790 -1.4333
11457TIP3    H255787   6.025   0.677  11.265  0.5306 -0.3083 -1.5684
11458TIP3   OH255788   4.361   0.829  12.335 -0.2404  0.5409 -0.1093
11458TIP3    H155789   4.280   0.826  12.385 -1.5731 -0.8038 -2.2370
11458TIP3    H255790   4.339   0.785  12.253  2.3118  1.2547 -1.2103
11459TIP3   OH255791   3.359   1.345   2.840 -0.1826  0.2969  0.2091
11459TIP3    H155792   3.303   1.269   2.823 -0.2183  0.1595  0.9343
11459TIP3    H255793   3.323   1.414   2.785 -1.1212  0.2315  0.7352
11460TIP3   OH255794   3.528   3.448   1.974 -0.5381  0.0665 -0.8392
11460TIP3    H155795   3.535   3.389   1.899 -1.7401 -1.3600  0.1581
11460TIP3    H255796   3.589   3.413   2.038 -1.2736 -0.1169 -0.2350
11461TIP3   OH255797   6.603   0.440   5.127  0.1480 -0.0129 -0.0059
11461TIP3    H155798   6.659   0.424   5.202  1.3632  1.4701 -0.5632
11461TIP3    H255799   6.554   0.519   5.150 -2.3593 -1.7513  0.8164
11462TIP3   OH255800   0.152   1.187  11.878  0.2145 -0.2288 -0.4564
11462TIP3    H155801   0.078   1.236  11.844  0.0623 -0.0079  0.1814
11462TIP3    H255802   0.229   1.234  11.845  0.0825  1.3251  1.3397
11463TIP3   OH255803   4.711   1.028  16.902  0.1528  0.0228  0.5081
11463TIP3    H155804   4.707   1.109  16.852  0.0473 -0.1465  0.2418
11463TIP3    H255805   4.805   1.009  16.910  0.1288 -1.0131 -1.3579
11464TIP3   OH255806   5.996   3.959   2.385  0.0020 -0.3513  0.3280
11464TIP3    H155807   6.048   3.992   2.458  0.7012 -0.4885 -0.0945
11464TIP3    H255808   6.047   3.983   2.307 -0.4085 -0.7785 -0.0760
11465TIP3   OH255809   3.980   3.468   0.516  0.5387  0.0605 -0.0560
11465TIP3    H155810   4.075   3.474   0.516  0.4626  1.5152 -0.6360
11465TIP3    H255811   3.959   3.421   0.435  0.7480 -0.0043 -0.0730
11466TIP3   OH255812   1.525   1.218  14.272  0.4741 -0.2784 -0.1184
11466TIP3    H155813   1.461   1.274  14.228  1.6473  0.2564 -1.1676
11466TIP3    H255814   1.482   1.192  14.353 -0.4342  1.4170 -0.0373
11467TIP3   OH255815   1.022   1.662  15.543  0.1497 -0.0856  0.4162
11467TIP3    H155816   1.103   1.634  15.501  0.0010 -0.2651  0.2468
11467TIP3    H255817   1.005   1.595  15.610 -1.1554 -1.3802 -1.1871
11468TIP3   OH255818   3.746   2.087   5.849  0.4728 -0.3983 -0.4076
11468TIP3    H155819   3.776   2.088   5.758 -0.1441 -0.4814 -0.6122
11468TIP3    H255820   3.792   2.161   5.890  0.4959 -0.1530 -0.8718
11469TIP3   OH255821   1.759   1.473  13.946  0.6066  0.4025  0.3688
11469TIP3    H155822   1.835   1.425  13.980 -0.7179 -1.7011  0.5034
11469TIP3    H255823   1.754   1.552  14.000  3.3723  1.1824 -0.4386
11470TIP3   OH255824   2.561   3.413   2.104  0.3106  0.4124 -0.5596
11470TIP3    H155825   2.486   3.385   2.156  1.3770 -0.1118  0.7160
11470TIP3    H255826   2.524   3.436   2.019 -1.2351 -0.2221 -0.0690
11471TIP3   OH255827   4.200   0.044  11.953 -0.3488 -0.4711 -0.3366
11471TIP3    H155828   4.245  -0.032  11.990  0.8744  0.0160 -0.8168
11471TIP3    H255829   4.126   0.007  11.905 -0.9787 -1.2174  1.1776
11472TIP3   OH255830   3.102   0.789   4.666  0.5274  0.3774  0.0534
11472TIP3    H155831   3.059   0.713   4.705  1.4008  0.2553  0.8032
11472TIP3    H255832   3.177   0.752   4.619  0.2909  0.6641 -0.5523
11473TIP3   OH255833   1.154   6.369   1.903 -0.8052  0.2772  0.1548
11473TIP3    H155834   1.203   6.431   1.957 -0.1543  0.6504 -0.8527
11473TIP3    H255835   1.170   6.284   1.943 -1.0706  0.6657  1.0886
11474TIP3   OH255836   5.040   2.470  11.111  0.4739  0.4696 -0.2104
11474TIP3    H155837   4.988   2.496  11.187  0.3611  0.5612 -0.3178
11474TIP3    H255838   5.129   2.465  11.143  0.4210  0.4792 -0.0652
11475TIP3   OH255839   2.371   2.526   5.391 -0.0301  0.2595 -0.3303
11475TIP3    H155840   2.366   2.588   5.464  0.1390  0.2064 -0.2744
11475TIP3    H255841   2.426   2.455   5.423 -0.7152 -0.2031 -0.1881
11476TIP3   OH255842   3.183   1.478   4.197  0.0423 -0.2769 -0.6254
11476TIP3    H155843   3.133   1.446   4.273  0.7234  0.7025  0.2590
11476TIP3    H255844   3.226   1.557   4.229  0.7633 -0.1435 -1.8977
11477TIP3   OH255845   0.465   4.873  11.399 -0.6923  0.4393  0.0829
11477TIP3    H155846   0.542   4.887  11.455 -0.1767  0.2345 -0.5638
11477TIP3    H255847   0.502   4.856  11.313 -1.4305 -1.2162  0.0919
11478TIP3   OH255848   4.485   6.528  17.169  0.1724 -0.2340 -0.2036
11478TIP3    H155849   4.542   6.495  17.239  0.5804 -0.2017 -0.5253
11478TIP3    H255850   4.521   6.491  17.089 -0.2056 -0.1388 -0.4203
11479TIP3   OH255851   6.471   4.454  11.430  0.4237 -0.6334 -0.0659
11479TIP3    H155852   6.404   4.386  11.435 -0.2303  0.1174  1.5592
11479TIP3    H255853   6.423   4.535  11.414  1.1946 -0.5024 -1.8766
11480TIP3   OH255854   2.778   3.932   3.660  0.8411 -0.0044  0.1987
11480TIP3    H155855   2.737   3.856   3.702  1.3252 -0.3500  0.0467
11480TIP3    H255856   2.867   3.904   3.641  1.1093  0.6917  0.3859
11481TIP3   OH255857   6.045   5.757   1.687 -0.1185  0.0249 -0.1986
11481TIP3    H155858   5.950   5.756   1.681 -0.1569 -0.2001  0.5075
11481TIP3    H255859   6.072   5.826   1.626 -0.6935 -0.3894 -0.9220
11482TIP3   OH255860   4.747   6.699  13.618 -0.5732  0.1805  0.2563
11482TIP3    H155861   4.839   6.696  13.593 -0.2107  1.0840  1.3954
11482TIP3    H255862   4.704   6.750  13.549 -0.2709 -0.4774 -0.4197
11483TIP3   OH255863   1.390   1.868   4.146  0.0573 -0.3633 -0.2357
11483TIP3    H155864   1.444   1.808   4.094  1.9158 -0.5192  1.8189
11483TIP3    H255865   1.341   1.918   4.081  0.4309 -2.2828 -2.0655
11484TIP3   OH255866   1.876   1.131   4.437 -0.2381  0.7746  0.5319
11484TIP3    H155867   1.871   1.069   4.365  0.7173  2.0379 -0.6418
11484TIP3    H255868   1.785   1.148   4.460 -0.5274 -0.3577  0.2741
11485TIP3   OH255869   5.747   6.757   3.379 -0.1054  0.8086 -0.2328
11485TIP3    H155870   5.663   6.719   3.406 -0.2128  1.0105 -0.2738
11485TIP3    H255871   5.809   6.731   3.447 -0.0549  0.0973 -0.5488
11486TIP3   OH255872   5.045   3.084  10.707 -0.7112  0.4746  0.1497
11486TIP3    H155873   4.976   3.149  10.696 -2.6488 -0.8645  3.3956
11486TIP3    H255874   5.009   3.005  10.666 -0.0032  0.4330 -0.3934
11487TIP3   OH255875   2.765   5.388  10.711  0.8065 -0.1657 -0.7064
11487TIP3    H155876   2.679   5.426  10.728 -0.3412 -2.3890 -1.3463
11487TIP3    H255877   2.821   5.423  10.780 -1.6086 -2.0075  2.3427
11488TIP3   OH255878   2.547   4.842  11.144 -0.1266  0.2868 -0.0301
11488TIP3    H155879   2.525   4.925  11.101 -1.4683  0.8787  1.7064
11488TIP3    H255880   2.549   4.864  11.237 -1.8073 -1.8982  0.5520
11489TIP3   OH255881   4.859   6.292   5.767  0.2267  0.1200  0.2095
11489TIP3    H155882   4.936   6.347   5.750  1.3049 -0.7741  2.1320
11489TIP3    H255883   4.808   6.298   5.686  2.6495  0.1653 -1.3680
11490TIP3   OH255884   1.446   5.963  11.680 -0.3424 -0.2493 -0.4416
11490TIP3    H155885   1.375   6.015  11.718 -1.4287 -1.4443 -0.7969
11490TIP3    H255886   1.508   6.027  11.647 -1.3279  0.8191 -0.2436
11491TIP3   OH255887   2.131   6.208  14.573 -0.1705 -0.2307 -0.3616
11491TIP3    H155888   2.093   6.272  14.513 -2.4329 -1.1530  0.0623
11491TIP3    H255889   2.170   6.142  14.517 -1.0466 -0.3654 -0.8100
11492TIP3   OH255890   5.068   6.540  12.591  0.2511 -0.2091  0.3224
11492TIP3    H155891   5.097   6.496  12.671 -1.9909 -0.6818  0.9272
11492TIP3    H255892   5.138   6.524  12.528  1.1853 -1.4674  1.6399
11493TIP3   OH255893   4.666   3.448   2.504 -0.7223 -0.2326 -0.2322
11493TIP3    H155894   4.747   3.439   2.555 -1.6095 -3.3833  0.7053
11493TIP3    H255895   4.686   3.406   2.421 -1.1658 -0.3210 -0.2918
11494TIP3   OH255896   5.050   2.897   0.093  0.4692  0.7916 -0.2826
11494TIP3    H155897   5.057   2.802   0.086 -2.1744  0.5789 -0.1809
11494TIP3    H255898   5.000   2.923   0.016  0.0199  1.9678  0.4032
11495TIP3   OH255899   1.169   4.120   4.099  0.1138 -0.5581  0.1141
11495TIP3    H155900   1.104   4.138   4.032  0.2854 -0.8234 -0.1255
11495TIP3    H255901   1.123   4.132   4.182  0.3391  1.4518 -0.0115
11496TIP3   OH255902   4.733   3.083   0.166 -0.5037 -0.0286 -0.1847
11496TIP3    H155903   4.737   3.087   0.070  2.1236  0.2964 -0.0986
11496TIP3    H255904   4.824   3.091   0.194 -1.1745 -0.7536  2.3316
11497TIP3   OH255905   3.795   0.262   5.945 -0.1577  0.3157  0.7931
11497TIP3    H155906   3.818   0.351   5.918 -0.2919  0.7144  1.9584
11497TIP3    H255907   3.795   0.212   5.864 -0.5009  1.4661  0.0676
11498TIP3   OH255908   0.811   2.580   1.563 -0.0376 -0.1274 -0.2100
11498TIP3    H155909   0.771   2.497   1.540  0.0802 -0.4591  0.7814
11498TIP3    H255910   0.861   2.562   1.643 -1.0879  1.1972  0.7741
11499TIP3   OH255911   2.641   2.760   0.157 -0.3480  0.1530  0.2144
11499TIP3    H155912   2.712   2.786   0.097 -1.6948 -2.3266 -2.5846
11499TIP3    H255913   2.685   2.712   0.226  0.8909  0.0690 -0.6085
11500TIP3   OH255914   3.507   4.364  14.289 -0.3647  0.3812  0.4672
11500TIP3    H155915   3.566   4.353  14.215 -0.7906  2.1368 -0.1686
11500TIP3    H255916   3.449   4.288  14.286  0.8704 -0.5573  0.1837
11501TIP3   OH255917   2.947   1.423  16.281  0.4702 -0.3442  0.3394
11501TIP3    H155918   2.998   1.342  16.271 -0.7895 -0.9224 -1.5583
11501TIP3    H255919   2.858   1.393  16.298  0.2410  0.6697  0.9628
11502TIP3   OH255920   3.267   3.721  11.904  0.2858 -0.4012 -0.3674
11502TIP3    H155921   3.296   3.769  11.826  0.0739 -0.2709 -0.3689
11502TIP3    H255922   3.344   3.673  11.933  0.2921 -0.6680 -0.8191
11503TIP3   OH255923   3.461   0.092  14.290 -0.1258  0.6314  0.2812
11503TIP3    H155924   3.432   0.138  14.369 -0.4902  1.1426 -0.1369
11503TIP3    H255925   3.454  -0.001  14.312 -0.8809  0.7605  0.6249
11504TIP3   OH255926   2.231   1.710  16.644 -0.2258 -0.3703  0.6521
11504TIP3    H155927   2.226   1.800  16.678  0.1717 -0.7981  1.8454
11504TIP3    H255928   2.140   1.680  16.645 -0.1743 -0.5064  1.6852
11505TIP3   OH255929   6.739   0.183  14.606 -0.1216  0.1643 -0.4008
11505TIP3    H155930   6.825   0.161  14.570 -1.1715  0.5836 -3.3388
11505TIP3    H255931   6.743   0.277  14.623  0.4938 -0.0982  0.9432
11506TIP3   OH255932   5.948   1.285   0.057  0.5030 -0.3851 -0.5537
11506TIP3    H155933   5.958   1.340  -0.021 -1.0406  1.5372  0.5670
11506TIP3    H255934   5.979   1.339   0.129  0.5132 -1.6123  0.3737
11507TIP3   OH255935   3.672   0.115  11.690 -0.3959 -0.0567  0.5832
11507TIP3    H155936   3.577   0.103  11.699 -0.7466  1.7626 -0.5120
11507TIP3    H255937   3.694   0.182  11.754  0.0731 -0.1065  0.4734
11508TIP3   OH255938   4.680   2.120  15.457 -0.5752  0.4487  0.2312
11508TIP3    H155939   4.637   2.140  15.374  1.4537 -0.5406 -1.0907
11508TIP3    H255940   4.699   2.206  15.496 -2.3690  0.9034  0.1387
11509TIP3   OH255941   3.273   2.714   1.645  0.0047  0.0554 -0.3172
11509TIP3    H155942   3.363   2.694   1.671 -0.1050 -1.0631 -0.7805
11509TIP3    H255943   3.281   2.794   1.593  0.8143 -0.3604 -0.8458
11510TIP3   OH255944   5.463   4.187   5.430  0.1474 -0.3991  0.3423
11510TIP3    H155945   5.420   4.217   5.350  1.7527 -1.1026 -0.8138
11510TIP3    H255946   5.501   4.102   5.406  0.3702 -0.7773  1.9555
11511TIP3   OH255947   4.049   4.669   3.927  0.0453 -0.4613 -0.5642
11511TIP3    H155948   4.115   4.657   3.996  1.1718 -1.3643 -1.7681
11511TIP3    H255949   4.006   4.752   3.950 -0.0420 -1.0518  1.5618
11512TIP3   OH255950   2.437   1.834   3.617 -0.5266  0.6038 -0.3672
11512TIP3    H155951   2.388   1.914   3.602  0.3515  0.9332 -1.5560
11512TIP3    H255952   2.522   1.863   3.651 -0.9057  0.0724  1.0917
11513TIP3   OH255953   4.404   4.210  10.459 -0.9970  0.0914 -0.0068
11513TIP3    H155954   4.368   4.159  10.387  0.7129 -0.9415 -0.1692
11513TIP3    H255955   4.340   4.200  10.530 -0.6107 -2.4797  0.0392
11514TIP3   OH255956   3.497   4.119  14.529 -0.6718 -0.7559 -0.3020
11514TIP3    H155957   3.418   4.125  14.475 -1.2468 -0.1688  0.5960
11514TIP3    H255958   3.472   4.159  14.612  1.1116  1.0534 -0.6179
11515TIP3   OH255959   1.201   2.838  12.198 -0.0460 -0.5243 -0.7854
11515TIP3    H155960   1.276   2.897  12.190 -0.0463  0.4762  4.3498
11515TIP3    H255961   1.127   2.897  12.214 -1.3409 -1.6440 -2.5879
11516TIP3   OH255962   5.033   0.247   1.381 -0.0620  0.3007 -0.3391
11516TIP3    H155963   5.044   0.322   1.323  0.7277 -1.2447 -2.2335
11516TIP3    H255964   5.122   0.219   1.402 -0.2873 -1.8240 -1.9822
11517TIP3   OH255965   4.068   2.163  12.759 -0.0299 -0.0041  0.4040
11517TIP3    H155966   4.130   2.236  12.758  1.8418 -1.5498 -0.0232
11517TIP3    H255967   4.001   2.188  12.695  0.1047  1.7288  0.9124
11518TIP3   OH255968   1.128   1.999  16.670  0.1369  0.5261  0.3406
11518TIP3    H155969   1.187   1.924  16.670  0.7417  0.9884 -0.4197
11518TIP3    H255970   1.094   2.003  16.759 -0.0596 -0.7705  0.3278
11519TIP3   OH255971   2.624   2.112   0.668 -0.2805 -0.4342 -0.3306
11519TIP3    H155972   2.606   2.033   0.718  1.0082  0.0638  0.9859
11519TIP3    H255973   2.541   2.134   0.626 -0.9864 -1.7418  0.3395
11520TIP3   OH255974   0.381   1.071  16.088  0.5724 -0.2769 -0.1979
11520TIP3    H155975   0.372   1.166  16.076  1.7921 -0.2171 -0.6646
11520TIP3    H255976   0.475   1.057  16.097  0.4420 -1.5300 -0.8222
11521TIP3   OH255977   6.256   3.914   1.863 -0.0635 -0.2101  0.1356
11521TIP3    H155978   6.181   3.867   1.826 -1.2378  1.9671 -0.4116
11521TIP3    H255979   6.306   3.942   1.786 -1.4554  2.6621  0.2133
11522TIP3   OH255980   3.694   4.323  15.665 -0.0158 -0.4912  0.3722
11522TIP3    H155981   3.622   4.265  15.640 -0.8045  0.1898  1.0415
11522TIP3    H255982   3.687   4.330  15.760  1.2206 -0.7925  0.4877
11523TIP3   OH255983   3.061   4.222   0.869 -0.8031  0.1425 -0.7634
11523TIP3    H155984   3.020   4.139   0.892  0.5553 -1.0263 -2.4654
11523TIP3    H255985   3.124   4.237   0.939 -0.3947 -0.7222 -0.9414
11524TIP3   OH255986   6.081   1.622   0.055  0.1328 -0.3136  0.3057
11524TIP3    H155987   6.095   1.710   0.021  0.9421 -0.7469 -0.4973
11524TIP3    H255988   6.069   1.568  -0.023 -0.1016 -0.9582  0.7811
11525TIP3   OH255989   4.961   4.202   2.027  0.0007  0.0583 -0.4205
11525TIP3    H155990   4.925   4.229   1.943  1.1182 -0.3110 -1.0337
11525TIP3    H255991   5.054   4.188   2.009  0.8357  2.6371  1.4829
11526TIP3   OH255992   2.597   0.187  13.814 -0.1235  0.1451 -0.4544
11526TIP3    H155993   2.564   0.169  13.902  0.0670  1.1270 -0.1701
11526TIP3    H255994   2.615   0.101  13.777 -0.4603 -0.2884  0.3709
11527TIP3   OH255995   6.018   1.904   6.023  0.2370  0.0934  0.3714
11527TIP3    H155996   6.067   1.847   5.962 -3.4777 -0.4692 -2.2518
11527TIP3    H255997   5.981   1.844   6.087 -1.2149 -0.1439 -0.6617
11528TIP3   OH255998   0.729   1.722   2.119 -0.0805 -0.0899  0.0908
11528TIP3    H155999   0.814   1.740   2.078 -0.7707  1.0804 -0.8742
11528TIP3    H256000   0.747   1.650   2.180  2.0912  1.6315  1.5918
11529TIP3   OH256001   2.904   4.277   4.819  0.3952  0.0687  0.1092
11529TIP3    H156002   2.954   4.351   4.783  1.0738 -1.1108 -1.3929
11529TIP3    H256003   2.855   4.315   4.892  2.3517  1.5683  0.6870
11530TIP3   OH256004   2.267   3.814  16.906 -0.6100 -0.5836  0.2944
11530TIP3    H156005   2.225   3.871  16.842  2.0472  1.0191 -0.1128
11530TIP3    H256006   2.211   3.820  16.984 -0.5396  2.4196  0.1712
11531TIP3   OH256007   0.774   3.785   4.827  0.0022 -0.3359  0.1388
11531TIP3    H156008   0.717   3.857   4.797  3.4004  1.6760 -1.7673
11531TIP3    H256009   0.812   3.817   4.909  1.5648  0.1265 -0.7434
11532TIP3   OH256010   0.747   0.262   3.855 -0.3072 -0.0769 -0.4507
11532TIP3    H156011   0.819   0.288   3.798  1.0590 -0.0423  1.2614
11532TIP3    H256012   0.675   0.242   3.795  0.2650  2.4722 -2.0886
11533TIP3   OH256013   6.450   5.802  15.116 -0.1412 -0.1921  0.0700
11533TIP3    H156014   6.415   5.852  15.042 -1.3363  0.7663  1.2431
11533TIP3    H256015   6.484   5.870  15.175  1.5966 -0.9942  0.0152
11534TIP3   OH256016   2.574   1.651   6.331 -0.0451  0.1902  0.6457
11534TIP3    H156017   2.577   1.747   6.338  0.3338  0.3689 -1.3798
11534TIP3    H256018   2.490   1.633   6.289  0.5963 -0.2259 -0.4804
11535TIP3   OH256019   3.871   2.152  14.860  0.3142  0.7343 -0.4475
11535TIP3    H156020   3.947   2.098  14.835  0.4993  0.0429  1.5167
11535TIP3    H256021   3.909   2.225  14.909 -0.3165  0.1453  0.9294
11536TIP3   OH256022   2.235   6.159  17.077  0.4911 -0.4680 -0.2118
11536TIP3    H156023   2.194   6.095  17.135  1.2909  0.2868  1.2229
11536TIP3    H256024   2.297   6.108  17.025 -1.6624 -1.4783 -1.8400
11537TIP3   OH256025   1.843   0.844  16.070 -0.4350  0.2330 -0.3410
11537TIP3    H156026   1.777   0.910  16.046 -1.4754 -0.7279 -0.1546
11537TIP3    H256027   1.841   0.781  15.997 -0.0617 -0.0520 -0.1050
11538TIP3   OH256028   0.666   3.292   0.767 -1.0271 -0.1162 -0.0357
11538TIP3    H156029   0.605   3.227   0.802  0.8559 -0.9499  1.8348
11538TIP3    H256030   0.737   3.240   0.729 -0.2489  0.8186  0.1180
11539TIP3   OH256031   1.733   4.182  16.461  0.1599  0.0906 -0.4253
11539TIP3    H156032   1.638   4.199  16.460  0.0430 -0.4969 -0.0581
11539TIP3    H256033   1.743   4.111  16.525  1.0138  1.1599  0.6465
11540TIP3   OH256034   1.906   5.048  16.792  0.7228  0.2277  0.0652
11540TIP3    H156035   1.894   5.115  16.859  0.6423 -0.0975  0.3733
11540TIP3    H256036   1.832   4.988  16.803  0.9730 -0.0969  0.0031
11541TIP3   OH256037   0.758   5.272  17.122  0.0442 -0.0431  0.2942
11541TIP3    H156038   0.739   5.354  17.076 -0.3957 -0.7818 -0.8859
11541TIP3    H256039   0.676   5.250  17.167  0.2689  0.3471  0.8852
11542TIP3   OH256040   1.103   2.467  15.982  0.0595  0.4855 -0.2835
11542TIP3    H156041   1.193   2.495  15.994  0.2338  0.3739 -1.2858
11542TIP3    H256042   1.109   2.377  15.950 -0.4571 -0.1457  1.3269
11543TIP3   OH256043   3.506   3.650  11.529  0.5407 -0.1783  0.1924
11543TIP3    H156044   3.510   3.599  11.609  0.8885  0.2970  0.4825
11543TIP3    H256045   3.577   3.616  11.475  0.9121  0.1489  0.4754
11544TIP3   OH256046   2.472   3.260   2.943  0.1315 -0.1763  0.4734
11544TIP3    H156047   2.532   3.256   3.017 -0.1618 -1.1051  0.6701
11544TIP3    H256048   2.417   3.337   2.960  0.3503 -0.1379  1.0018
11545TIP3   OH256049   6.108   2.991  11.824 -0.6759 -0.2955 -0.8903
11545TIP3    H156050   6.077   3.073  11.862 -1.5712 -0.0631 -2.1051
11545TIP3    H256051   6.032   2.932  11.830 -0.4897 -0.5862 -1.3458
11546TIP3   OH256052   0.890   3.168  15.088  0.4439 -0.1550  0.5588
11546TIP3    H156053   0.838   3.184  15.009 -0.6058 -0.1432  1.2542
11546TIP3    H256054   0.971   3.127  15.055  0.3959  0.6494 -0.6052
11547TIP3   OH256055   2.016   5.316   0.321  0.3067 -0.7276  0.0113
11547TIP3    H156056   2.032   5.229   0.357  0.2141  0.0625  2.0023
11547TIP3    H256057   2.091   5.369   0.351 -1.5293  0.8068  2.0143
11548TIP3   OH256058   5.363   0.920   3.798 -0.8561  0.2602 -0.8152
11548TIP3    H156059   5.386   0.923   3.705  1.1866  0.5570 -0.3233
11548TIP3    H256060   5.283   0.971   3.805 -0.5818  0.9096 -2.2903
11549TIP3   OH256061   3.578   0.703  16.156  0.1120 -0.2584  0.5894
11549TIP3    H156062   3.538   0.790  16.158  1.1370  0.2318  0.0370
11549TIP3    H256063   3.509   0.645  16.124 -0.8448  0.1956  1.7677
11550TIP3   OH256064   3.839   5.555   0.897 -0.0416  0.0645  0.0794
11550TIP3    H156065   3.745   5.555   0.883  0.0473 -1.8017 -0.6055
11550TIP3    H256066   3.863   5.648   0.898 -1.6780  0.5181 -1.1871
11551TIP3   OH256067   1.796   6.325  13.640  0.4749  0.3896 -0.3214
11551TIP3    H156068   1.855   6.250  13.631  0.6696  0.4518  0.3845
11551TIP3    H256069   1.822   6.385  13.570  1.9928  0.9078  0.6659
11552TIP3   OH256070   2.914   2.009   1.276  0.9729  0.0530  0.3486
11552TIP3    H156071   2.962   2.070   1.333 -0.0688  2.5236 -1.3062
11552TIP3    H256072   2.954   2.020   1.190  0.1385 -0.9281 -0.1763
11553TIP3   OH256073   3.882   6.089   1.744 -0.2202 -0.1054  0.2186
11553TIP3    H156074   3.888   6.126   1.657  0.6380 -0.8091 -0.0314
11553TIP3    H256075   3.973   6.083   1.775 -0.3605 -1.5199  0.4345
11554TIP3   OH256076   3.854   0.286   2.569 -0.4138  0.2236  0.4343
11554TIP3    H156077   3.778   0.334   2.603  0.5329  1.4700  0.8478
11554TIP3    H256078   3.927   0.348   2.579  0.3098 -0.2633 -1.6884
11555TIP3   OH256079   2.472   2.217  12.879 -0.7203 -0.0201  0.0303
11555TIP3    H156080   2.564   2.192  12.873 -0.4150  0.7011  1.4951
11555TIP3    H256081   2.443   2.181  12.963 -1.7538 -0.1890 -0.3992
11556TIP3   OH256082   4.508   2.098   4.205  0.1156 -0.1868 -0.0054
11556TIP3    H156083   4.481   2.007   4.191 -0.5816 -0.0650  0.5235
11556TIP3    H256084   4.546   2.125   4.122 -2.7468  0.1065 -1.2969
11557TIP3   OH256085   0.557   0.620  11.949  0.3560 -0.0879 -1.1778
11557TIP3    H156086   0.520   0.623  11.861 -3.5717 -0.9383  0.3574
11557TIP3    H256087   0.572   0.528  11.967 -0.9328 -0.1374 -0.2069
11558TIP3   OH256088   0.996   0.007  10.812 -0.4946 -0.2763  0.0918
11558TIP3    H156089   1.081   0.012  10.769 -0.8368  0.2595 -0.5355
11558TIP3    H256090   0.939  -0.036  10.748 -1.1087  0.9039 -0.1620
11559TIP3   OH256091   6.135   0.347  13.091  0.2693  0.3554  0.2886
11559TIP3    H156092   6.133   0.276  13.026 -1.1009  0.8264 -0.2029
11559TIP3    H256093   6.206   0.323  13.150 -0.1944 -1.4554  0.1423
11560TIP3   OH256094   4.719   0.901   5.441  0.0693 -0.3056 -0.1122
11560TIP3    H156095   4.654   0.898   5.511  1.4178  0.1737  1.1762
11560TIP3    H256096   4.782   0.967   5.470 -0.2471  1.1273 -2.5456
11561TIP3   OH256097   5.407   6.595  11.665  0.5036 -0.2257 -0.2014
11561TIP3    H156098   5.329   6.593  11.720  0.3271  0.6622 -0.4087
11561TIP3    H256099   5.426   6.503  11.647  0.5799 -0.5371  1.3642
11562TIP3   OH256100   2.269   0.409   0.757 -0.2784 -0.5167 -0.2629
11562TIP3    H156101   2.362   0.419   0.735  0.5478  0.6076  3.3591
11562TIP3    H256102   2.224   0.473   0.703  1.5463  1.6440  0.7278
11563TIP3   OH256103   5.053   5.108  12.583  0.5054 -0.7295  0.2612
11563TIP3    H156104   4.960   5.132  12.581  0.9525  0.9869 -0.2409
11563TIP3    H256105   5.085   5.144  12.666  0.6692 -1.5710  0.5700
11564TIP3   OH256106   4.379   1.927   4.912  0.5271 -0.1554 -0.5256
11564TIP3    H156107   4.388   1.987   4.986  1.3739 -0.3037 -0.5074
11564TIP3    H256108   4.417   1.975   4.838  0.9065 -0.5372 -0.5804
11565TIP3   OH256109   1.239   1.036   0.600 -0.2977  0.4584  0.0712
11565TIP3    H156110   1.200   0.952   0.622  0.0198  0.0484 -0.8835
11565TIP3    H256111   1.206   1.096   0.666 -1.5115 -0.1530  0.0455
11566TIP3   OH256112   3.276   6.161   4.608  0.5140 -0.0737  0.5228
11566TIP3    H156113   3.283   6.228   4.540  0.5673 -0.5067  0.1008
11566TIP3    H256114   3.201   6.108   4.582  1.2906 -0.9985  0.1283
11567TIP3   OH256115   1.770   1.024   2.840 -0.0019 -0.2984 -0.2282
11567TIP3    H156116   1.809   1.110   2.858 -1.2938  0.4789 -1.0928
11567TIP3    H256117   1.726   1.000   2.922  0.2618 -0.0789 -0.0230
11568TIP3   OH256118   1.760   5.128  16.329  0.4033  0.0032  0.5599
11568TIP3    H156119   1.785   5.040  16.302 -0.8115 -0.3534  0.5567
11568TIP3    H256120   1.725   5.168  16.249 -0.7272 -0.1388  0.9783
11569TIP3   OH256121   3.024   6.608   1.183  0.1149  0.5206 -0.4056
11569TIP3    H156122   3.021   6.594   1.277 -0.0155 -1.9563 -0.7491
11569TIP3    H256123   3.093   6.673   1.170 -1.4093  2.6240  1.5462
11570TIP3   OH256124   1.347   4.573  11.835 -0.5400 -0.2981 -0.1231
11570TIP3    H156125   1.349   4.591  11.741  2.6418 -0.5555 -0.1815
11570TIP3    H256126   1.364   4.479  11.842 -0.6662 -0.2670  0.7041
11571TIP3   OH256127   6.133   0.840   1.057 -0.2162  0.2316 -0.3573
11571TIP3    H156128   6.203   0.812   1.116 -0.8994  0.8546  0.7575
11571TIP3    H256129   6.063   0.868   1.115 -1.3203 -0.1927 -1.4653
11572TIP3   OH256130   3.849   1.943  14.281  0.4283 -0.2160  0.3411
11572TIP3    H156131   3.905   1.934  14.204  1.0376 -0.3675  0.8026
11572TIP3    H256132   3.846   2.037  14.298 -0.3128 -0.1067 -0.3032
11573TIP3   OH256133   1.748   1.130  11.317  0.1010 -0.5670 -0.4799
11573TIP3    H156134   1.760   1.223  11.300  1.2980 -0.3431  1.4930
11573TIP3    H256135   1.657   1.123  11.348 -0.1501 -0.1411 -1.1096
11574TIP3   OH256136   1.600   6.755  11.127  0.4470 -0.0423  0.3545
11574TIP3    H156137   1.605   6.662  11.107 -2.4011 -0.1290 -0.1277
11574TIP3    H256138   1.511   6.768  11.160  1.0832  2.3509  1.2346
11575TIP3   OH256139   3.276   0.497   6.260 -0.3946  0.3360  0.1425
11575TIP3    H156140   3.216   0.423   6.265  0.7101 -0.4925  1.4140
11575TIP3    H256141   3.246   0.556   6.330 -0.2716  0.3345  0.1956
11576TIP3   OH256142   6.467   5.783   3.380  0.5020  0.2446  0.3094
11576TIP3    H156143   6.403   5.721   3.415  0.0704 -0.3272 -1.4314
11576TIP3    H256144   6.543   5.775   3.438  0.4610 -1.9459  0.1239
11577TIP3   OH256145   0.356   0.970  11.173  0.6510  0.0592  0.2444
11577TIP3    H156146   0.371   0.877  11.189  1.4144  0.1282 -0.0445
11577TIP3    H256147   0.350   0.978  11.078  0.5022  0.2953  0.2703
11578TIP3   OH256148   0.772   5.086  10.808 -0.1775  0.1762 -0.7074
11578TIP3    H156149   0.846   5.136  10.773  0.3394 -0.7515 -0.9757
11578TIP3    H256150   0.712   5.152  10.842  0.6258  0.9615 -0.7871
11579TIP3   OH256151   5.260   4.973  12.984 -0.2034  0.0367  0.2363
11579TIP3    H156152   5.287   5.059  12.950 -1.2172  0.1411 -0.3426
11579TIP3    H256153   5.228   4.992  13.073  0.2128  0.1535  0.3607
11580TIP3   OH256154   3.596   3.966  14.849 -0.3737  0.2667 -0.2883
11580TIP3    H156155   3.599   3.908  14.925  0.8960  0.7675  0.0477
11580TIP3    H256156   3.545   3.918  14.784 -1.7892 -0.0166  1.0034
11581TIP3   OH256157   1.870   5.753   2.655  0.2602  0.2117 -0.7898
11581TIP3    H156158   1.808   5.810   2.610 -1.4958 -1.0109  0.0452
11581TIP3    H256159   1.934   5.813   2.694 -1.2741  1.5853 -0.3468
11582TIP3   OH256160   6.495   1.494   4.952  0.5168 -0.1206 -0.7022
11582TIP3    H156161   6.424   1.431   4.962 -1.2011  1.6628 -1.5159
11582TIP3    H256162   6.526   1.481   4.862  0.3447  0.0299 -0.7820
11583TIP3   OH256163   2.382   3.075   2.323  0.3313  0.6195 -0.2960
11583TIP3    H156164   2.377   3.171   2.324 -0.0048  0.5979  1.3356
11583TIP3    H256165   2.473   3.056   2.299  0.9542  1.3905  1.3661
11584TIP3   OH256166   0.790   1.532  15.239  0.5297  0.2558 -0.4473
11584TIP3    H156167   0.739   1.481  15.176 -0.7657  0.4885  0.3958
11584TIP3    H256168   0.878   1.493  15.236 -0.2027 -1.4278 -0.4885
11585TIP3   OH256169   5.279   5.607  14.922  0.0758 -0.1305  0.2306
11585TIP3    H156170   5.325   5.581  14.842 -0.1899 -1.0547  0.3703
11585TIP3    H256171   5.193   5.638  14.891  0.2361  0.1932  0.1007
11586TIP3   OH256172   6.195   6.487   1.301 -0.2169  0.6476 -0.4328
11586TIP3    H156173   6.214   6.439   1.382 -0.1909  1.3145 -0.0423
11586TIP3    H256174   6.117   6.443   1.265  0.3216 -0.2448 -0.5350
11587TIP3   OH256175   4.543   5.290  15.956  0.2921  0.0009  0.1005
11587TIP3    H156176   4.506   5.329  16.035  0.7092  0.5783  0.0130
11587TIP3    H256177   4.558   5.365  15.897  0.8635 -0.3105 -0.1589
11588TIP3   OH256178   6.032   1.781  15.633  0.2641  0.5751 -0.3065
11588TIP3    H156179   6.116   1.826  15.639  0.9517 -0.6719 -0.2432
11588TIP3    H256180   6.021   1.740  15.719 -1.2404  2.1362  0.2659
11589TIP3   OH256181   1.213   5.025  14.635 -0.1688 -0.0572  0.4323
11589TIP3    H156182   1.168   5.109  14.621 -0.1994 -0.0646  0.4818
11589TIP3    H256183   1.305   5.045  14.623 -0.2009 -0.0812  0.1523
11590TIP3   OH256184   4.112   3.555   5.471  0.1707 -0.2435  0.3675
11590TIP3    H156185   4.134   3.558   5.377  0.0372  0.6479  0.3553
11590TIP3    H256186   4.196   3.538   5.514  0.6425  1.5880  0.2214
11591TIP3   OH256187   3.816   4.348   3.622 -0.5110 -0.2672 -0.1636
11591TIP3    H156188   3.782   4.285   3.686 -1.0644  0.2340  0.0315
11591TIP3    H256189   3.836   4.426   3.673 -0.2454 -0.1262 -0.4808
11592TIP3   OH256190   2.118   4.647   2.142 -0.1034 -0.2625 -0.3197
11592TIP3    H156191   2.027   4.673   2.127 -0.2948  0.3308  1.7421
11592TIP3    H256192   2.114   4.552   2.156 -0.6802  0.0495  1.7182
11593TIP3   OH256193   4.560   0.197  12.767  0.2349 -0.3147  0.8665
11593TIP3    H156194   4.644   0.193  12.722  0.1203 -0.7484  0.6856
11593TIP3    H256195   4.508   0.260  12.716  0.7908  0.7333  1.5707
11594TIP3   OH256196   4.088   1.595  11.000 -0.0358  0.2798  0.8531
11594TIP3    H156197   4.138   1.570  10.922  0.2899  0.5955  0.9615
11594TIP3    H256198   4.040   1.516  11.024  0.3713 -0.0055  0.7185
11595TIP3   OH256199   0.440   5.040  16.604  0.2816  0.9264  0.0411
11595TIP3    H156200   0.452   5.022  16.697 -0.9728  0.7187  0.1744
11595TIP3    H256201   0.481   5.126  16.591 -0.0049  1.1986  0.8938
11596TIP3   OH256202   4.944   2.667   3.562 -0.1212 -0.1908  0.0156
11596TIP3    H156203   4.990   2.595   3.604  0.4756  0.1625 -0.0247
11596TIP3    H256204   4.992   2.684   3.481 -2.8668 -2.6417 -2.2128
11597TIP3   OH256205   6.274   6.746  16.506 -0.2501  0.3119 -0.2935
11597TIP3    H156206   6.293   6.788  16.590 -0.8217 -0.8808  0.4485
11597TIP3    H256207   6.266   6.819  16.444 -1.4267  1.3124  0.9991
11598TIP3   OH256208   0.921   1.384  10.594 -0.4285 -0.1344 -0.7450
11598TIP3    H156209   0.858   1.446  10.630 -0.5165 -0.2907 -0.6281
11598TIP3    H256210   0.872   1.336  10.527 -0.3842 -0.1316 -0.7794
11599TIP3   OH256211   3.358   5.845   0.562  0.3960  0.5020  0.2568
11599TIP3    H156212   3.430   5.807   0.612 -1.7606 -1.4138  1.9740
11599TIP3    H256213   3.328   5.773   0.506 -1.1708  0.8406  0.6588
11600TIP3   OH256214   4.299   1.098   1.384 -0.3284 -0.5689 -0.5180
11600TIP3    H156215   4.258   1.131   1.464  1.0523 -1.8323  0.7416
11600TIP3    H256216   4.355   1.170   1.355  1.9692 -1.4042  1.7061
11601TIP3   OH256217   0.708   3.588  17.204 -0.8380 -0.2907 -0.6008
11601TIP3    H156218   0.737   3.676  17.227 -0.1422 -0.3959 -1.0618
11601TIP3    H256219   0.772   3.557  17.139 -0.0970 -1.7845  0.8107
11602TIP3   OH256220   6.092   0.093   2.674  0.1635  0.3389 -0.3959
11602TIP3    H156221   5.996   0.100   2.679  0.1580  1.5761 -2.1397
11602TIP3    H256222   6.118   0.156   2.608  2.0501 -1.2971 -1.2654
11603TIP3   OH256223   4.438   5.069  15.397  0.1583  0.4301 -0.2335
11603TIP3    H156224   4.344   5.082  15.384  0.4308  1.3064 -1.5209
11603TIP3    H256225   4.454   5.095  15.487 -1.1624 -1.7311  0.6579
11604TIP3   OH256226   3.308   2.345   2.859 -0.0935 -0.4384  0.1379
11604TIP3    H156227   3.283   2.392   2.779 -2.3640 -0.6227  0.6948
11604TIP3    H256228   3.293   2.408   2.929  2.1763 -0.1825  0.4281
11605TIP3   OH256229   5.761   0.679  17.065 -0.2602 -0.0942  0.0102
11605TIP3    H156230   5.825   0.616  17.098 -0.3849  0.3537  1.1617
11605TIP3    H256231   5.677   0.633  17.069 -0.5373  0.5185  2.0339
11606TIP3   OH256232   1.295   1.309   5.547  0.0147  0.2794 -0.0557
11606TIP3    H156233   1.371   1.367   5.552  0.8357 -0.6921 -1.0697
11606TIP3    H256234   1.233   1.345   5.610  1.3652  1.0281  0.8665
11607TIP3   OH256235   3.499   1.131  17.099 -0.0168 -0.5059 -0.7767
11607TIP3    H156236   3.499   1.160  17.190  0.4001 -2.3128 -0.1656
11607TIP3    H256237   3.412   1.153  17.066 -0.4855 -0.6477  0.3441
11608TIP3   OH256238   0.264   3.250  11.150 -0.0480 -0.0434  0.1453
11608TIP3    H156239   0.264   3.158  11.176 -2.1962 -0.7425 -2.0579
11608TIP3    H256240   0.290   3.249  11.058  1.0132  1.6675  0.4131
11609TIP3   OH256241   2.783   3.276   2.604 -0.2149 -0.1986  0.2853
11609TIP3    H156242   2.706   3.226   2.629  0.1855 -0.5880  0.7396
11609TIP3    H256243   2.788   3.267   2.509 -1.3053  0.6604  0.1339
11610TIP3   OH256244   1.271   5.860  12.467  0.0432 -0.2020 -0.1211
11610TIP3    H156245   1.220   5.809  12.530 -0.4973  0.9663  0.3983
11610TIP3    H256246   1.361   5.852  12.496  0.0553 -1.4243 -0.4447
11611TIP3   OH256247   1.053   2.186   4.198  0.5263 -0.3862 -0.1659
11611TIP3    H156248   1.048   2.092   4.179  1.2263 -0.5951  0.6717
11611TIP3    H256249   1.029   2.193   4.290  0.3949  0.2711 -0.2484
11612TIP3   OH256250   6.760   6.492  15.822 -0.3209  0.1125 -0.2176
11612TIP3    H156251   6.828   6.549  15.787 -1.5257  1.6157 -0.1758
11612TIP3    H256252   6.703   6.474  15.747  0.6750 -2.0110 -0.5039
11613TIP3   OH256253   5.043   1.734   4.112  0.0957  0.2482 -0.1324
11613TIP3    H156254   4.961   1.782   4.104 -0.1872 -0.2995 -0.5735
11613TIP3    H256255   5.093   1.782   4.178  0.0765  1.5037 -1.0095
11614TIP3   OH256256   0.930   5.519   3.340 -0.1695  0.2272 -0.0576
11614TIP3    H156257   0.961   5.436   3.374  0.7888  1.0380  1.0784
11614TIP3    H256258   0.991   5.540   3.269  0.4462  0.6500  0.5934
11615TIP3   OH256259   4.855   3.814   3.433 -0.5938  0.0762  0.2514
11615TIP3    H156260   4.784   3.763   3.394 -0.8280 -1.2969  2.3655
11615TIP3    H256261   4.849   3.900   3.392 -1.5451 -0.9546 -1.8184
11616TIP3   OH256262   0.847   4.367  16.446  0.4517  0.2447 -0.2658
11616TIP3    H156263   0.840   4.293  16.385  2.2802  0.8669 -1.2715
11616TIP3    H256264   0.929   4.352  16.493 -0.3746  0.3846  1.2622
11617TIP3   OH256265   0.840   1.681  12.311  0.2078  0.3816  0.6650
11617TIP3    H156266   0.929   1.688  12.276 -0.7052 -0.0463 -1.8914
11617TIP3    H256267   0.816   1.590  12.296 -0.7762  0.5739  1.0702
11618TIP3   OH256268   2.559   2.599   5.041  0.1931 -0.1051 -0.1959
11618TIP3    H156269   2.595   2.680   5.077 -1.3953  0.3263  0.4390
11618TIP3    H256270   2.587   2.531   5.103  0.6326  0.0951 -0.1699
11619TIP3   OH256271   4.186   6.584   1.241  0.1119  0.3418 -0.2326
11619TIP3    H156272   4.214   6.596   1.331  1.1555  0.7294 -0.6004
11619TIP3    H256273   4.099   6.544   1.247 -0.1721  1.1367  0.9479
11620TIP3   OH256274   4.387   5.940  14.528 -0.1295 -0.2203  0.0360
11620TIP3    H156275   4.350   6.007  14.471  0.1184 -1.8551 -2.1281
11620TIP3    H256276   4.423   5.875  14.468 -0.4323 -2.3379  2.0603
11621TIP3   OH256277   5.996   2.939   0.001 -0.4922  0.6539 -0.1727
11621TIP3    H156278   5.959   2.932  -0.087  0.9128  1.1530 -0.8061
11621TIP3    H256279   5.945   3.008   0.043  0.4524  2.1290 -1.4206
11622TIP3   OH256280   3.654   6.669  13.828  0.5079 -0.2430  0.2208
11622TIP3    H156281   3.717   6.622  13.773  0.6558  1.6705 -1.2830
11622TIP3    H256282   3.699   6.749  13.854 -0.3744 -0.0827  1.3364
11623TIP3   OH256283   3.958   2.299  12.998  0.5307  0.6171 -0.0563
11623TIP3    H156284   4.022   2.304  12.927  0.6414  0.0396  0.0023
11623TIP3    H256285   3.980   2.218  13.044  1.1603  1.5470  1.3067
11624TIP3   OH256286   4.000   6.666   3.553 -0.2978  0.1898  0.1458
11624TIP3    H156287   3.936   6.726   3.593 -0.3886  0.8947 -1.0461
11624TIP3    H256288   4.006   6.694   3.462  1.9174  0.2818  0.3087
11625TIP3   OH256289   6.746   0.947  16.379  0.0412  0.3924  0.1377
11625TIP3    H156290   6.827   0.975  16.337  0.8551 -0.0525  1.3865
11625TIP3    H256291   6.768   0.865  16.423 -0.3547  1.6113  2.6961
11626TIP3   OH256292   4.463   6.043  16.956  0.6156  0.0323 -0.3867
11626TIP3    H156293   4.382   6.093  16.943  0.0480 -0.7679  0.0011
11626TIP3    H256294   4.499   6.076  17.038  0.5895  0.2784 -0.4748
11627TIP3   OH256295   0.973   3.308   6.041 -0.4681 -0.2964  0.6179
11627TIP3    H156296   1.063   3.316   6.072 -0.2581  0.4368 -0.1512
11627TIP3    H256297   0.966   3.218   6.010  0.2437 -0.1195 -0.0634
11628TIP3   OH256298   3.385   4.774   3.042  0.4084  0.3914 -0.1624
11628TIP3    H156299   3.353   4.835   2.976 -1.5681 -0.2116  0.1885
11628TIP3    H256300   3.480   4.778   3.035  0.2546  1.7150 -1.7642
11629TIP3   OH256301   5.622   3.194   1.344 -0.3137  0.6760 -0.4259
11629TIP3    H156302   5.646   3.279   1.382 -0.0868 -0.0402  1.0640
11629TIP3    H256303   5.526   3.192   1.349 -0.4633  1.6517 -2.2799
11630TIP3   OH256304   4.976   0.497   0.854  0.4179  0.3432  0.0684
11630TIP3    H156305   4.995   0.434   0.924 -0.1288 -0.5276 -0.5540
11630TIP3    H256306   4.887   0.526   0.871 -0.3711 -1.2157 -1.2624
11631TIP3   OH256307   4.684   3.477   1.679 -0.4086 -0.3435 -0.0630
11631TIP3    H156308   4.714   3.508   1.593 -0.9036 -1.3152 -0.6015
11631TIP3    H256309   4.743   3.518   1.741  1.7637 -1.8694 -1.0661
11632TIP3   OH256310   1.667   2.164   4.106 -0.1372  0.4591  0.3412
11632TIP3    H156311   1.579   2.142   4.136  0.4792 -1.2865  0.9044
11632TIP3    H256312   1.691   2.241   4.157 -0.4085 -0.4959  1.9553
11633TIP3   OH256313   1.899   0.136   0.229  0.5962 -0.0517  0.7417
11633TIP3    H156314   1.833   0.070   0.251  0.5118 -0.3412 -0.3397
11633TIP3    H256315   1.970   0.121   0.291  0.0525 -0.3635  1.2902
11634TIP3   OH256316   3.240   5.419  10.906 -1.0238  0.5641 -0.3866
11634TIP3    H156317   3.321   5.420  10.956 -1.6276 -1.4709  0.6831
11634TIP3    H256318   3.223   5.511  10.886  1.4577  1.0151 -0.5254
11635TIP3   OH256319   6.655   5.925   0.636  0.1254  0.0685  0.3650
11635TIP3    H156320   6.561   5.943   0.638 -0.1657 -0.9884 -1.9721
11635TIP3    H256321   6.697   6.006   0.664 -1.4413  0.9907  0.0491
11636TIP3   OH256322   1.776   0.809  13.397  0.0062 -0.6225 -0.4397
11636TIP3    H156323   1.752   0.779  13.485 -1.3867  1.7622  0.0453
11636TIP3    H256324   1.841   0.878  13.412  1.3161 -1.6416 -1.3855
11637TIP3   OH256325   2.011   0.626  12.083  0.3487 -0.8169 -0.1780
11637TIP3    H156326   1.935   0.658  12.034  1.3796  2.0702  0.0442
11637TIP3    H256327   1.973   0.579  12.157 -1.2127 -1.6973 -1.4784
11638TIP3   OH256328   5.497   3.475  12.288 -0.2474 -0.8282 -0.1000
11638TIP3    H156329   5.541   3.475  12.373 -0.9550 -0.6860  0.2642
11638TIP3    H256330   5.492   3.567  12.264 -0.1332 -0.8616 -0.2548
11639TIP3   OH256331   6.298   2.784   3.606  0.0790 -0.3176 -0.5709
11639TIP3    H156332   6.374   2.726   3.611 -0.8707 -1.4543  0.8156
11639TIP3    H256333   6.233   2.734   3.556  0.0176  0.4319 -1.2665
11640TIP3   OH256334   3.295   3.662   1.785  0.5128  0.5847  0.0755
11640TIP3    H156335   3.377   3.700   1.816  0.3245  2.3653 -1.4908
11640TIP3    H256336   3.319   3.577   1.750  1.7752  1.2993 -0.8281
11641TIP3   OH256337   0.460   0.393  11.476  0.3674  0.2212  0.6529
11641TIP3    H156338   0.554   0.398  11.457  0.3289  0.4366  0.5175
11641TIP3    H256339   0.448   0.449  11.552  0.9357 -2.6017  2.8916
11642TIP3   OH256340   3.428   3.297  12.984  0.2609 -0.0379 -0.4093
11642TIP3    H156341   3.495   3.282  13.051  0.6783 -1.3350 -1.1182
11642TIP3    H256342   3.418   3.392  12.982  1.5960  0.1237  0.1684
11643TIP3   OH256343   0.989   3.101  16.878 -0.5660  0.0907 -0.1233
11643TIP3    H156344   1.053   3.171  16.886 -0.0973 -0.2326 -0.9618
11643TIP3    H256345   0.950   3.093  16.965 -1.1483  1.8795 -0.2093
11644TIP3   OH256346   4.556   6.042  13.049  0.1082  0.0194  0.1460
11644TIP3    H156347   4.637   5.991  13.043  0.2299  0.3035 -0.7697
11644TIP3    H256348   4.549   6.085  12.964 -1.1491 -0.2079  0.1261
11645TIP3   OH256349   0.723   2.439   5.064  0.0601  0.6994 -0.4063
11645TIP3    H156350   0.722   2.513   5.125  0.7558  1.2486 -1.0673
11645TIP3    H256351   0.696   2.476   4.980 -2.4442 -0.3621 -0.1176
11646TIP3   OH256352   0.902   5.305  15.638 -0.4839 -0.0456  0.0809
11646TIP3    H156353   0.981   5.273  15.681  0.0385  0.0740 -0.7943
11646TIP3    H256354   0.906   5.269  15.549 -1.4354 -0.0850  0.0439
11647TIP3   OH256355   6.218   3.875   3.213 -0.1092 -0.5508  0.2391
11647TIP3    H156356   6.225   3.831   3.298 -0.0423  2.4263  1.8322
11647TIP3    H256357   6.124   3.879   3.196 -0.1547 -0.6332  0.4612
11648TIP3   OH256358   2.096   0.925   6.066  0.5017 -0.7091 -0.6680
11648TIP3    H156359   2.109   0.946   6.159 -3.5467 -0.5181 -0.0763
11648TIP3    H256360   2.116   1.007   6.021 -0.8424  0.2125  0.3685
11649TIP3   OH256361   2.224   2.028   5.416  0.5303  0.2642 -0.2674
11649TIP3    H156362   2.250   1.944   5.455 -0.9541  0.0582  0.3185
11649TIP3    H256363   2.254   2.022   5.325  0.0622 -1.0822 -0.3531
11650TIP3   OH256364   3.788   5.779   1.399  0.1463  1.2293  0.7664
11650TIP3    H156365   3.696   5.794   1.423 -0.3061  1.1537 -0.8180
11650TIP3    H256366   3.822   5.867   1.381  0.2122  1.2010  0.7578
11651TIP3   OH256367   2.847   2.452  13.231 -0.0404  0.4948  0.4596
11651TIP3    H156368   2.927   2.403  13.212 -0.4347  0.3288 -0.8278
11651TIP3    H256369   2.869   2.543  13.208 -0.4701  0.3178 -0.7049
11652TIP3   OH256370   5.655   3.393  12.762 -0.2456 -0.2024  0.4457
11652TIP3    H156371   5.638   3.385  12.856  0.8718 -0.5527  0.6209
11652TIP3    H256372   5.739   3.349  12.749 -0.9237 -1.1456 -0.9045
11653TIP3   OH256373   1.132   6.281   5.369  0.0557 -0.3138 -0.0001
11653TIP3    H156374   1.175   6.264   5.286  1.6884  1.3096  0.4725
11653TIP3    H256375   1.058   6.338   5.347  0.3564 -0.0694 -0.3768
11654TIP3   OH256376   3.284   4.260  17.087 -0.4224 -0.5235 -0.8006
11654TIP3    H156377   3.233   4.330  17.128  0.9650 -0.1981  0.4308
11654TIP3    H256378   3.298   4.290  16.998 -2.1268 -0.4895 -1.0712
11655TIP3   OH256379   2.060   3.249   3.744  0.1564  0.1537  0.2363
11655TIP3    H156380   2.010   3.187   3.798 -0.7578 -0.9704 -1.8424
11655TIP3    H256381   2.071   3.204   3.660  3.8957  0.7512  0.3256
11656TIP3   OH256382   3.754   1.852   2.335 -0.4075 -0.2151 -0.0583
11656TIP3    H156383   3.792   1.881   2.417  0.6967 -0.8418 -0.3314
11656TIP3    H256384   3.829   1.831   2.280 -1.1468 -1.4814 -0.6109
11657TIP3   OH256385   5.731   5.892  13.683 -0.1470 -0.3683 -0.0610
11657TIP3    H156386   5.771   5.807  13.663 -0.2654 -0.6274  0.7808
11657TIP3    H256387   5.656   5.898  13.624  0.8362 -0.0985 -1.2952
11658TIP3   OH256388   3.789   4.844   1.358 -0.0125 -0.3631 -0.2787
11658TIP3    H156389   3.853   4.788   1.402 -1.0178 -0.8362  0.6005
11658TIP3    H256390   3.821   4.933   1.373 -0.1214 -0.5421  1.0658
11659TIP3   OH256391   0.355   5.009   1.455 -0.0835 -0.0126 -0.0730
11659TIP3    H156392   0.338   5.094   1.496  1.7710  0.2992  0.0988
11659TIP3    H256393   0.380   4.952   1.528 -0.1870 -0.4063 -0.3424
11660TIP3   OH256394   2.481   3.430   3.334  0.1699 -0.1230 -0.6720
11660TIP3    H156395   2.452   3.378   3.408  3.2609  1.7849  1.9835
11660TIP3    H256396   2.576   3.434   3.342  0.2082  4.2105 -1.8843
11661TIP3   OH256397   6.049   6.200   1.005 -0.3661  0.1806  0.0224
11661TIP3    H156398   6.126   6.159   0.965 -0.5812  0.0662 -0.2719
11661TIP3    H256399   5.974   6.156   0.965 -0.5779 -1.4450  2.0783
11662TIP3   OH256400   4.440   6.307  16.779 -0.0672  0.2851  0.7060
11662TIP3    H156401   4.434   6.369  16.706  3.4796  0.0895  0.1489
11662TIP3    H256402   4.481   6.358  16.849  0.1802 -0.6396  1.2289
11663TIP3   OH256403   0.219   5.934   6.457  0.5399  0.1278  0.5020
11663TIP3    H156404   0.233   5.840   6.444  0.8027  0.2984 -0.4842
11663TIP3    H256405   0.288   5.976   6.406  0.9592  0.8527  1.6334
11664TIP3   OH256406   0.690   6.764   4.403  0.1704  0.6325 -0.3650
11664TIP3    H156407   0.658   6.800   4.320 -0.3301  1.5025  0.2015
11664TIP3    H256408   0.747   6.691   4.377  2.3360  2.7059 -1.5800
11665TIP3   OH256409   5.871   0.435   5.380 -0.1045  0.2129  0.0345
11665TIP3    H156410   5.838   0.350   5.353 -1.5332  0.7449  0.0622
11665TIP3    H256411   5.823   0.456   5.460  2.6114 -0.4191  1.8956
11666TIP3   OH256412   1.654   6.092   0.666  0.0839 -0.1124  0.1224
11666TIP3    H156413   1.666   6.140   0.584  1.4564  1.9081  1.4509
11666TIP3    H256414   1.571   6.125   0.700  0.2165  0.0983  0.2402
11667TIP3   OH256415   1.663   2.661  14.915  0.0846  1.3606  0.4180
11667TIP3    H156416   1.652   2.715  14.994  0.7013  0.3106  1.2373
11667TIP3    H256417   1.731   2.705  14.865  0.7198  1.2473  1.1766
11668TIP3   OH256418   6.016   1.413   4.337 -0.5861 -0.4464  0.0033
11668TIP3    H156419   6.055   1.328   4.317 -0.2940 -0.2751 -0.1503
11668TIP3    H256420   5.927   1.392   4.366 -1.3740 -0.6233 -2.4277
11669TIP3   OH256421   6.701   4.462   3.144 -0.6715 -0.5754 -0.0089
11669TIP3    H156422   6.651   4.462   3.225  1.5747 -0.4779  1.4426
11669TIP3    H256423   6.790   4.440   3.171 -0.3712 -3.0932 -2.7801
11670TIP3   OH256424   5.028   3.852   2.018  0.6659  0.9396  0.8126
11670TIP3    H156425   5.016   3.864   2.113  1.2830 -0.1534  1.0345
11670TIP3    H256426   5.092   3.781   2.011 -2.2327 -1.6391 -0.4244
11671TIP3   OH256427   4.836   2.893  13.500  0.4618 -0.8802 -0.0069
11671TIP3    H156428   4.820   2.970  13.554 -0.4970 -0.9058 -0.2441
11671TIP3    H256429   4.928   2.870  13.517  0.3492 -0.5107  1.1155
11672TIP3   OH256430   2.360   1.620  15.581 -0.7574 -0.0257 -0.2061
11672TIP3    H156431   2.295   1.588  15.518 -1.7839  2.5835 -0.5452
11672TIP3    H256432   2.419   1.675  15.529  0.1472 -0.2193  0.5931
11673TIP3   OH256433   4.832   6.284   0.552  0.2627 -0.1503  0.5939
11673TIP3    H156434   4.788   6.363   0.583  0.3015 -0.1232  0.5802
11673TIP3    H256435   4.781   6.212   0.589  0.4655 -0.1168  0.9382
11674TIP3   OH256436   2.799   0.012   6.030 -0.6321 -0.0363  0.6324
11674TIP3    H156437   2.869   0.072   6.005 -0.0044 -0.1847  2.0323
11674TIP3    H256438   2.839  -0.046   6.094 -1.8295 -0.6188  0.8564
11675TIP3   OH256439   5.493   2.985   1.770  0.0466  0.0550 -0.2428
11675TIP3    H156440   5.434   2.958   1.699 -0.7762 -1.5788  1.0268
11675TIP3    H256441   5.438   3.032   1.831  0.4817  0.2914 -0.0276
11676TIP3   OH256442   0.727   2.736  15.700  0.2302  0.0623 -0.5080
11676TIP3    H156443   0.753   2.656  15.747 -1.4540 -1.4627 -2.1055
11676TIP3    H256444   0.638   2.754  15.732  0.8105  1.6563  0.2678
11677TIP3   OH256445   3.227   0.782  16.554 -0.5809 -0.2962  0.2470
11677TIP3    H156446   3.236   0.768  16.460 -2.0770  0.5295 -0.0361
11677TIP3    H256447   3.255   0.700  16.594 -1.4856 -1.2173 -0.9982
11678TIP3   OH256448   2.732   1.683   4.643 -0.1973  0.0249  0.5916
11678TIP3    H156449   2.651   1.681   4.591  0.7342  0.4632 -0.9209
11678TIP3    H256450   2.790   1.621   4.599  0.3441 -0.1732  1.5836
11679TIP3   OH256451   0.334   6.767  11.624 -0.4443 -0.2029 -0.2056
11679TIP3    H156452   0.378   6.688  11.594 -0.6982  0.7869 -3.2979
11679TIP3    H256453   0.241   6.752  11.606 -0.3520  1.2942 -2.0378
11680TIP3   OH256454   3.022   5.705   5.779  0.6833 -0.2795 -0.1734
11680TIP3    H156455   2.969   5.678   5.854  1.4753  0.2508  0.5866
11680TIP3    H256456   2.972   5.676   5.702 -0.6992  0.2230  0.5331
11681TIP3   OH256457   1.803   3.761  14.181 -1.0618  0.0628 -0.3344
11681TIP3    H156458   1.843   3.751  14.267 -0.1724 -1.1118 -0.8758
11681TIP3    H256459   1.723   3.708  14.185 -1.0363  0.0331 -0.2246
11682TIP3   OH256460   2.859   4.382  15.897  0.2717  0.0775  0.0964
11682TIP3    H156461   2.866   4.291  15.924  1.9558  0.4523  1.0026
11682TIP3    H256462   2.869   4.379  15.801  2.1424 -0.5491  0.2774
11683TIP3   OH256463   0.991   5.545   2.541  0.3606  0.4339 -0.1252
11683TIP3    H156464   0.985   5.635   2.509  0.3554  0.8687  1.0615
11683TIP3    H256465   0.920   5.498   2.496  1.0893  0.7396 -1.6254
11684TIP3   OH256466   3.187   6.112  12.403 -0.5809 -0.2184  0.2830
11684TIP3    H156467   3.278   6.111  12.432 -0.3458  1.6678 -0.3406
11684TIP3    H256468   3.189   6.069  12.317  0.0803  1.6299 -0.6550
11685TIP3   OH256469   0.233   1.554   1.343  0.4789 -0.4660 -0.1253
11685TIP3    H156470   0.179   1.476   1.355  0.5161 -0.3972  0.4984
11685TIP3    H256471   0.170   1.624   1.325  0.2000 -0.0227  2.3387
11686TIP3   OH256472   4.048   4.554  15.318  0.8621 -0.5447  0.7876
11686TIP3    H156473   4.011   4.466  15.332  1.7107 -0.5294  3.3818
11686TIP3    H256474   3.972   4.612  15.325  0.6016 -0.9141  1.1167
11687TIP3   OH256475   1.799   1.219  10.728  0.1523 -0.2839  0.1265
11687TIP3    H156476   1.822   1.229  10.636 -0.6983 -1.4191 -0.2236
11687TIP3    H256477   1.772   1.127  10.737 -2.1825  0.4206  0.9347
11688TIP3   OH256478   1.684   5.628   4.822  0.4800  0.4565  0.2556
11688TIP3    H156479   1.694   5.534   4.806 -1.0548  0.4443 -0.6714
11688TIP3    H256480   1.751   5.648   4.887  0.3643 -1.4141  0.9748
11689TIP3   OH256481   1.862   1.494   1.473  0.7460 -0.4888  0.0724
11689TIP3    H156482   1.785   1.473   1.420  0.8709 -1.0565  0.1124
11689TIP3    H256483   1.841   1.578   1.513  0.3767 -0.3766 -0.3540
11690TIP3   OH256484   3.473   5.752  13.815  0.1536 -0.4187 -0.2393
11690TIP3    H156485   3.491   5.682  13.878  0.5043 -0.3654 -0.2764
11690TIP3    H256486   3.404   5.718  13.758 -1.2799  0.1066  1.1293
11691TIP3   OH256487   3.535   0.531  13.767 -0.6847  0.1636  0.5855
11691TIP3    H156488   3.621   0.489  13.757 -0.8313 -0.2514  1.0034
11691TIP3    H256489   3.549   0.621  13.740 -0.2831 -0.0753 -0.0204
11692TIP3   OH256490   0.286   0.523   3.416  0.1714 -0.2198  0.1476
11692TIP3    H156491   0.357   0.493   3.472  0.7637 -0.1336 -0.5464
11692TIP3    H256492   0.212   0.466   3.439  0.3022  0.0459  1.2507
11693TIP3   OH256493   6.408   0.746   4.314  0.3773  0.3174  0.0249
11693TIP3    H156494   6.390   0.789   4.398  1.9828  0.3654  0.3668
11693TIP3    H256495   6.385   0.811   4.248 -0.8402  0.3038  0.4291
11694TIP3   OH256496   0.023   6.489  10.394 -0.3539  0.1416  0.2736
11694TIP3    H156497   0.077   6.410  10.393 -2.7571 -1.5586 -1.0240
11694TIP3    H256498  -0.056   6.464  10.441 -0.1447  2.5287  1.9886
11695TIP3   OH256499   5.496   2.820  16.058 -0.9746 -0.2744 -0.1548
11695TIP3    H156500   5.578   2.816  16.108 -1.3987 -1.0001  0.4815
11695TIP3    H256501   5.473   2.729  16.043 -2.2202 -0.0849  0.5679
11696TIP3   OH256502   3.756   3.265  11.724  0.3465 -0.3882  0.5631
11696TIP3    H156503   3.678   3.277  11.670 -0.3375 -0.3588  1.5386
11696TIP3    H256504   3.819   3.224  11.666 -0.1211  0.3289 -0.4715
11697TIP3   OH256505   3.139   4.352  12.467 -0.4148 -0.5375  0.2697
11697TIP3    H156506   3.142   4.290  12.540  0.9708  0.4375  1.0733
11697TIP3    H256507   3.229   4.384  12.460 -1.2055  1.7244  0.1823
11698TIP3   OH256508   3.342   4.467   0.848  0.5658  0.3373  0.0102
11698TIP3    H156509   3.306   4.495   0.764 -0.2156  0.8139  0.4981
11698TIP3    H256510   3.283   4.505   0.913 -0.3454 -2.1997  0.7111
11699TIP3   OH256511   1.544   3.831   3.080  0.4774 -0.1652  0.6315
11699TIP3    H156512   1.493   3.884   3.017  0.4536 -1.0978 -0.1412
11699TIP3    H256513   1.486   3.758   3.101  0.4970  0.1285  1.7394
11700TIP3   OH256514   6.525   3.190  15.583  0.1100  0.1730 -0.2982
11700TIP3    H156515   6.494   3.268  15.536  0.3327  0.3193 -0.2011
11700TIP3    H256516   6.605   3.218  15.627  0.0337 -0.0329 -0.0260
11701TIP3   OH256517   2.881   6.571   0.961  0.2048  0.7865  0.1526
11701TIP3    H156518   2.900   6.485   0.923  1.0630  1.2394 -0.4517
11701TIP3    H256519   2.940   6.578   1.035 -0.0068  0.7779  0.3237
11702TIP3   OH256520   2.994   4.008   1.018 -0.5040  0.3350  0.0865
11702TIP3    H156521   2.954   4.048   1.096  1.4692  0.9811  0.7883
11702TIP3    H256522   2.937   3.933   0.998 -0.5480 -0.3895  2.7082
11703TIP3   OH256523   1.973   2.402  10.416  0.4310 -0.2695  0.4386
11703TIP3    H156524   1.895   2.453  10.440  1.3958  1.3320  0.2797
11703TIP3    H256525   2.046   2.460  10.438  1.5949 -1.9103  0.9378
11704TIP3   OH256526   5.222   2.562  12.520 -0.0361  0.4877 -0.3292
11704TIP3    H156527   5.220   2.581  12.614  1.3386 -2.4512  0.3816
11704TIP3    H256528   5.211   2.647  12.477 -0.4746  1.9021  2.4826
11705TIP3   OH256529   5.060   5.746  11.223 -0.3128 -0.2240  0.0261
11705TIP3    H156530   5.074   5.841  11.217  1.2232 -0.4717 -0.5722
11705TIP3    H256531   4.989   5.729  11.161  0.3185  0.3560 -0.8690
11706TIP3   OH256532   0.082   5.921  12.481 -0.6028 -0.1380 -0.3204
11706TIP3    H156533   0.110   5.857  12.416 -0.7507 -0.9886  0.4485
11706TIP3    H256534   0.082   5.873  12.564 -0.3844  0.9470  0.3160
11707TIP3   OH256535   5.099   4.388  10.517  0.3555 -0.3499 -0.2072
11707TIP3    H156536   5.026   4.443  10.491  0.2292 -1.1152 -1.5003
11707TIP3    H256537   5.067   4.298  10.507  1.3362 -0.6904 -0.4002
11708TIP3   OH256538   6.473   5.852  12.627  0.2268 -0.1901 -0.0781
11708TIP3    H156539   6.490   5.836  12.534 -0.4904 -1.9729  0.0744
11708TIP3    H256540   6.556   5.888  12.661  1.4457 -2.2081 -0.8086
11709TIP3   OH256541   3.327   5.247   5.026  0.0386  0.5618 -0.3951
11709TIP3    H156542   3.248   5.193   5.028  0.2623  0.1923 -1.2520
11709TIP3    H256543   3.397   5.187   5.052  0.3361  0.3449 -1.6633
11710TIP3   OH256544   2.393   5.893   4.485  0.2533 -0.2691 -0.0730
11710TIP3    H156545   2.365   5.812   4.443  0.7406 -1.2216  1.4342
11710TIP3    H256546   2.426   5.867   4.570  3.4352  1.0965 -0.8067
11711TIP3   OH256547   2.637   3.062  12.032 -0.1045 -0.3391  1.1997
11711TIP3    H156548   2.719   3.017  12.012  0.1055  0.9634 -1.0025
11711TIP3    H256549   2.663   3.131  12.094 -0.0679 -1.8625  2.8951
11712TIP3   OH256550   2.838   5.173   4.571 -0.4999  0.4607 -0.0503
11712TIP3    H156551   2.796   5.088   4.560 -0.1586  0.2217  0.4590
11712TIP3    H256552   2.932   5.153   4.577 -0.2518  1.0285 -1.7551
11713TIP3   OH256553   5.125   0.264   5.756 -0.3559 -0.1122  0.1074
11713TIP3    H156554   5.094   0.315   5.831 -0.3438 -0.5287  0.3949
11713TIP3    H256555   5.198   0.314   5.721 -0.0516 -0.1629  0.6682
11714TIP3   OH256556   2.795   3.259   2.942  0.2118  0.1173  0.2792
11714TIP3    H156557   2.764   3.199   2.875  1.7236  0.5791 -0.8848
11714TIP3    H256558   2.890   3.247   2.942  0.4529  1.8924  0.6033
11715TIP3   OH256559   3.070   5.524   5.143 -0.6219  0.3531 -0.0612
11715TIP3    H156560   3.068   5.429   5.150  1.0465  0.2606 -0.6210
11715TIP3    H256561   2.988   5.546   5.099  0.1433 -1.0677 -2.3085
11716TIP3   OH256562   2.486   2.719   4.779 -0.2559  0.2007 -0.5118
11716TIP3    H156563   2.400   2.695   4.744 -0.7872  0.6587  0.4690
11716TIP3    H256564   2.485   2.687   4.870  0.1018  1.4241 -0.0729
11717TIP3   OH256565   2.432   0.734  12.410 -0.0085  0.0754  0.1243
11717TIP3    H156566   2.396   0.699  12.329 -1.3989 -1.6824  1.4498
11717TIP3    H256567   2.473   0.817  12.385 -2.0002  0.4511 -2.0384
11718TIP3   OH256568   0.999   1.647   0.240  0.2629 -0.3801 -0.0763
11718TIP3    H156569   1.045   1.722   0.279  0.5588 -1.1198  1.0114
11718TIP3    H256570   1.027   1.647   0.149  0.3686  0.7525 -0.0581
11719TIP3   OH256571   2.089   0.792  14.528 -0.6001 -0.5128  0.2489
11719TIP3    H156572   2.133   0.852  14.587 -0.8535 -0.6711  0.5972
11719TIP3    H256573   2.069   0.715  14.581  0.0518 -1.0638 -0.2759
11720TIP3   OH256574   5.898   6.000  16.069 -0.1728 -0.3119 -0.5657
11720TIP3    H156575   5.835   6.070  16.052 -0.6440 -0.3578  0.9482
11720TIP3    H256576   5.865   5.925  16.019 -1.4121 -0.3820  0.3340
11721TIP3   OH256577   2.207   3.258   4.448 -0.1012  0.6729  0.3750
11721TIP3    H156578   2.180   3.321   4.515 -1.4581 -2.1575  2.6451
11721TIP3    H256579   2.181   3.298   4.365 -1.4796  2.7993  1.7790
11722TIP3   OH256580   4.320   0.482   2.491 -0.5070 -0.0818 -0.3838
11722TIP3    H156581   4.232   0.478   2.454 -0.2067  1.4218 -1.3184
11722TIP3    H256582   4.370   0.535   2.429  1.1448 -1.1875 -0.0261
11723TIP3   OH256583   2.005   6.281  13.912  0.2290  0.3412 -0.3635
11723TIP3    H156584   2.032   6.318  13.828 -1.0601  1.3601 -0.3576
11723TIP3    H256585   1.912   6.305  13.920  0.3541  0.3427  1.3882
11724TIP3   OH256586   1.817   0.048  12.390 -0.0919 -0.0039  0.2857
11724TIP3    H156587   1.857  -0.013  12.452  0.0309 -0.7522 -0.5169
11724TIP3    H256588   1.723   0.026  12.391  0.0539 -0.6807 -0.5218
11725TIP3   OH256589   3.253   2.693  15.429 -0.1158  0.0154 -0.1109
11725TIP3    H156590   3.322   2.741  15.384  1.7871 -1.2477  1.4221
11725TIP3    H256591   3.275   2.601  15.415 -2.4917 -0.4406 -1.1172
11726TIP3   OH256592   3.387   5.128  16.195 -0.1000  0.3465  0.1780
11726TIP3    H156593   3.472   5.142  16.153 -1.2400 -0.7324 -2.5701
11726TIP3    H256594   3.341   5.211  16.185  0.1912  0.5583  0.6076
11727TIP3   OH256595   2.893   3.606   3.536  0.3196  0.7855 -0.0307
11727TIP3    H156596   2.957   3.550   3.581 -0.3411 -1.1855 -1.4937
11727TIP3    H256597   2.934   3.692   3.534  1.8039  0.1362  1.3539
11728TIP3   OH256598   2.049   1.135  15.005 -0.2835  0.0052  0.1958
11728TIP3    H156599   1.983   1.166  14.943  1.5423  2.4938 -0.5874
11728TIP3    H256600   2.041   1.193  15.081  1.7337  1.0974 -0.3869
11729TIP3   OH256601   2.653   0.817  13.965  0.5049 -0.1304 -0.6445
11729TIP3    H156602   2.559   0.829  13.951  0.7412  2.5616 -0.2313
11729TIP3    H256603   2.695   0.876  13.902  1.8504  0.5945  0.8811
11730TIP3   OH256604   6.079   3.977  13.872  0.1832  0.1471 -0.1391
11730TIP3    H156605   6.104   3.920  13.945  1.9208  0.4113 -0.5284
11730TIP3    H256606   6.160   4.019  13.845 -1.1364  3.2206  0.4883
11731TIP3   OH256607   0.820   1.813  16.064  0.3189  0.0847  0.2841
11731TIP3    H156608   0.883   1.829  15.994  0.0211  0.2933  0.0595
11731TIP3    H256609   0.798   1.900  16.098 -0.9524  0.1406 -0.6257
11732TIP3   OH256610   0.830   0.962   1.255  0.3558  0.4870  0.6879
11732TIP3    H156611   0.755   0.992   1.204  0.4083 -0.6282 -0.0685
11732TIP3    H256612   0.799   0.882   1.298  1.0129  0.1983  0.6294
11733TIP3   OH256613   0.390   2.659  16.610  0.0691 -0.1306  0.5742
11733TIP3    H156614   0.345   2.694  16.534 -0.4223 -2.5746 -0.2788
11733TIP3    H256615   0.482   2.658  16.585 -0.0619 -0.6765  0.1137
11734TIP3   OH256616   1.503   3.637  14.747  0.9145 -0.2666 -0.3010
11734TIP3    H156617   1.539   3.609  14.831  0.3950 -0.6725 -0.2057
11734TIP3    H256618   1.578   3.668  14.697  0.9632  2.0870  1.1279
11735TIP3   OH256619   6.105   2.572  13.371  0.7892  0.2801 -0.0584
11735TIP3    H156620   6.041   2.517  13.326  0.5485  1.3524 -1.0497
11735TIP3    H256621   6.081   2.566  13.464  0.3444 -0.7101 -0.2298
11736TIP3   OH256622   2.985   0.100  14.838 -0.0072 -0.3789  0.0919
11736TIP3    H156623   3.043   0.030  14.867 -1.4135 -1.2466  0.8140
11736TIP3    H256624   2.998   0.170  14.902  1.5336  0.1230 -0.7333
11737TIP3   OH256625   3.243   4.955  15.256  0.0526  0.3427 -0.6954
11737TIP3    H156626   3.267   4.865  15.279 -0.5252  0.0074 -1.3962
11737TIP3    H256627   3.218   4.995  15.340 -0.4568 -0.3848 -0.4941
11738TIP3   OH256628   6.506   3.153   0.055  0.6092 -0.0894  0.1516
11738TIP3    H156629   6.555   3.166   0.136 -1.0618  0.1201  1.1567
11738TIP3    H256630   6.546   3.213  -0.008  1.2099  0.5545  1.1443
11739TIP3   OH256631   3.792   4.252  16.743  0.3231 -0.8899 -0.0863
11739TIP3    H156632   3.726   4.303  16.696 -0.0898 -0.7419  0.6480
11739TIP3    H256633   3.818   4.309  16.815  2.0618 -0.4941 -1.0082
11740TIP3   OH256634   3.073   2.580  14.038  0.5307 -0.3374 -0.5817
11740TIP3    H156635   3.026   2.523  13.978  0.7222 -0.0702 -0.9901
11740TIP3    H256636   3.104   2.652  13.983 -2.4887  1.8803  0.5080
11741TIP3   OH256637   0.897   3.821  13.771 -0.1931  0.0891 -0.2437
11741TIP3    H156638   0.987   3.821  13.737 -0.3536 -0.8033 -0.6886
11741TIP3    H256639   0.856   3.896  13.729  0.3951  0.5998  0.0921
11742TIP3   OH256640   5.891   4.713   3.456  0.9156  0.0899  0.0725
11742TIP3    H156641   5.919   4.760   3.378  0.1089 -0.8433 -0.7951
11742TIP3    H256642   5.796   4.704   3.446  0.5938  1.1660  1.8327
11743TIP3   OH256643   5.685   4.230  15.183  0.2325 -0.3888  0.2097
11743TIP3    H156644   5.769   4.224  15.228  0.7100 -0.3607 -0.6605
11743TIP3    H256645   5.676   4.323  15.160  0.6547 -0.6434 -0.9923
11744TIP3   OH256646   5.001   6.446  12.212 -0.6005 -0.6188  0.4630
11744TIP3    H156647   5.076   6.388  12.227 -0.0911  0.3226  1.6901
11744TIP3    H256648   4.940   6.394  12.160  1.9386 -0.5890 -2.6627
11745TIP3   OH256649   5.461   3.241   2.686 -0.2169 -0.7320  0.1648
11745TIP3    H156650   5.393   3.226   2.620  0.6661  0.5528 -1.0658
11745TIP3    H256651   5.441   3.327   2.721  1.5581  0.2628 -1.1985
11746TIP3   OH256652   5.612   0.500  16.454  0.4847  0.3479  0.0878
11746TIP3    H156653   5.534   0.543  16.489  0.1778 -1.0926  1.2397
11746TIP3    H256654   5.597   0.496  16.360 -0.9014 -0.0438  0.3177
11747TIP3   OH256655   5.593   5.088  16.280 -0.1172 -0.0403  0.0927
11747TIP3    H156656   5.603   5.022  16.349 -0.9601  1.3787  1.6173
11747TIP3    H256657   5.677   5.087  16.234  0.6978 -0.5812  1.5525
11748TIP3   OH256658   5.457   1.605   5.683  0.2558  0.5993  0.5941
11748TIP3    H156659   5.531   1.554   5.651  0.6169  1.8442 -0.5910
11748TIP3    H256660   5.464   1.601   5.779  2.0307  0.9630  0.4901
11749TIP3   OH256661   6.577   5.791   0.148 -0.4161  0.7700 -0.1173
11749TIP3    H156662   6.655   5.815   0.199 -0.6013  0.0060  0.5260
11749TIP3    H256663   6.552   5.704   0.180 -0.8773  0.5256 -1.1065
11750TIP3   OH256664   3.605   4.054  11.501  0.3910 -0.4301  0.0124
11750TIP3    H156665   3.584   3.968  11.466  1.7227 -1.4504  1.6502
11750TIP3    H256666   3.696   4.047  11.530 -0.1603  0.8368  2.1658
11751TIP3   OH256667   6.376   6.338  14.003  0.3397 -0.2087  1.3118
11751TIP3    H156668   6.418   6.385  13.931 -0.9729 -2.3469 -0.9013
11751TIP3    H256669   6.403   6.386  14.082  2.6235  1.5643 -0.4924
11752TIP3   OH256670   5.799   4.606  14.963 -0.0926  0.3233  1.0339
11752TIP3    H156671   5.828   4.686  14.917  1.5670  0.4405  2.2420
11752TIP3    H256672   5.836   4.615  15.051 -1.7647 -0.7488  1.8538
11753TIP3   OH256673   4.570   5.431   0.207  0.1504 -0.0147  0.0641
11753TIP3    H156674   4.535   5.507   0.252  0.2906 -0.7046  1.3895
11753TIP3    H256675   4.523   5.428   0.124 -0.6843  0.8478  0.4913
11754TIP3   OH256676   4.641   1.729   2.582 -0.3402  0.3502  0.5971
11754TIP3    H156677   4.655   1.668   2.655 -2.1246 -0.1158  0.5669
11754TIP3    H256678   4.644   1.816   2.623  1.8598  0.2578  0.6944
11755TIP3   OH256679   4.836   2.152  16.421  0.4238 -0.4795  0.0857
11755TIP3    H156680   4.751   2.109  16.420  0.5127 -0.6426 -0.3022
11755TIP3    H256681   4.834   2.210  16.345  1.0019 -1.1439 -0.4421
11756TIP3   OH256682   6.251   3.659   2.264 -0.3366 -0.4563 -0.4970
11756TIP3    H156683   6.177   3.616   2.222  0.4915 -1.6553 -0.7820
11756TIP3    H256684   6.327   3.609   2.233  0.4634 -0.0386  0.7738
11757TIP3   OH256685   6.479   6.227   1.367 -0.1722 -0.1569 -0.1019
11757TIP3    H156686   6.441   6.283   1.434  0.3443  1.4604 -1.1233
11757TIP3    H256687   6.549   6.178   1.412  0.3756  1.1415  0.4649
11758TIP3   OH256688   6.299   3.445  14.572 -0.3412  0.0232  0.4846
11758TIP3    H156689   6.293   3.370  14.513  0.4337  0.6959 -0.4743
11758TIP3    H256690   6.305   3.407  14.660  0.2777 -1.0413 -0.0117
11759TIP3   OH256691   4.980   0.775   4.295 -0.2881 -0.0051 -0.1355
11759TIP3    H156692   5.014   0.835   4.360 -0.9690  0.2710 -0.0275
11759TIP3    H256693   4.970   0.692   4.342  3.8354 -1.1543 -1.1245
11760TIP3   OH256694   1.928   2.599   6.480  0.0260  0.2210  0.4040
11760TIP3    H156695   1.899   2.578   6.569  0.1190  2.0937  0.9080
11760TIP3    H256696   2.024   2.596   6.485  0.0152 -1.4035 -0.0925
11761TIP3   OH256697   1.365   5.325  16.621 -0.0035 -0.5113 -0.3329
11761TIP3    H156698   1.309   5.327  16.544 -1.5965  0.8184  0.8347
11761TIP3    H256699   1.340   5.244  16.666 -0.5414 -0.2401 -0.1415
11762TIP3   OH256700   0.241   5.872   1.161 -0.1271 -0.1457  0.2083
11762TIP3    H156701   0.197   5.907   1.084 -0.3839 -0.2067  0.3287
11762TIP3    H256702   0.283   5.949   1.202  2.0778 -0.4678 -1.3404
11763TIP3   OH256703   6.514   1.377  12.526  0.6298  0.0000  0.1590
11763TIP3    H156704   6.430   1.332  12.537  0.4190  0.0693 -0.9972
11763TIP3    H256705   6.545   1.348  12.440  0.8803  1.4279 -0.2467
11764TIP3   OH256706   3.071   6.178  11.444  0.0305  0.1273 -0.3105
11764TIP3    H156707   3.032   6.254  11.400  1.8382  0.9589 -0.5323
11764TIP3    H256708   3.107   6.214  11.525  0.6099 -0.5701 -0.2620
11765TIP3   OH256709   3.969   6.218  16.180  0.3817  0.1531 -0.0816
11765TIP3    H156710   3.908   6.151  16.149  1.1380 -1.3905  1.6858
11765TIP3    H256711   4.042   6.169  16.218  2.1507  1.9714 -0.9831
11766TIP3   OH256712   6.384   1.772   2.279 -0.6869 -0.0243  0.1103
11766TIP3    H156713   6.344   1.837   2.222 -2.1268 -0.3446  0.7293
11766TIP3    H256714   6.310   1.723   2.315  0.3976 -2.8974 -1.3780
11767TIP3   OH256715   6.110   5.637   2.112  0.2692 -0.0833  0.4207
11767TIP3    H156716   6.025   5.652   2.153  0.0417  1.1556 -0.4994
11767TIP3    H256717   6.147   5.563   2.162 -1.3670 -0.6997  0.7664
11768TIP3   OH256718   4.372   1.115   0.142 -0.3582  0.3636 -0.4764
11768TIP3    H156719   4.281   1.093   0.123 -0.1802 -0.7207 -0.1254
11768TIP3    H256720   4.403   1.159   0.062 -0.9749  0.0865 -0.8752
11769TIP3   OH256721   1.635   5.001  12.132  0.2924 -0.0233 -0.3041
11769TIP3    H156722   1.650   4.974  12.041 -0.8410  1.7379 -1.0342
11769TIP3    H256723   1.707   4.961  12.181  1.5713 -0.0436 -2.1662
11770TIP3   OH256724   0.332   4.503   2.180  0.2704 -0.6176 -0.7312
11770TIP3    H156725   0.426   4.510   2.198  0.2160  0.1147 -0.7068
11770TIP3    H256726   0.322   4.532   2.089 -0.2583  1.9796  0.1077
11771TIP3   OH256727   1.755   5.359   4.578  0.2490  0.2069  0.2315
11771TIP3    H156728   1.729   5.359   4.485 -0.5317  2.1509  0.4316
11771TIP3    H256729   1.842   5.319   4.578  0.3329  0.3286 -1.3661
11772TIP3   OH256730   5.114   1.386  15.681 -0.2826  0.0512  0.4861
11772TIP3    H156731   5.026   1.394  15.645  0.2125  0.9529 -0.5456
11772TIP3    H256732   5.112   1.439  15.761  0.0215  2.1342 -0.8485
11773TIP3   OH256733   0.873   4.082   3.581 -0.4451 -0.9702  0.3058
11773TIP3    H156734   0.927   4.006   3.559 -0.5490 -0.8021 -0.5724
11773TIP3    H256735   0.932   4.157   3.571 -0.8465 -0.7774 -0.7382
11774TIP3   OH256736   0.601   4.117   3.204  0.0432 -0.0242 -0.4461
11774TIP3    H156737   0.696   4.123   3.208 -0.0796  0.5324  2.9050
11774TIP3    H256738   0.577   4.167   3.127  2.2703  2.6079  0.4922
11775TIP3   OH256739   4.632   6.421   0.149  0.3745 -0.2976 -0.2762
11775TIP3    H156740   4.629   6.345   0.207 -0.6848 -0.5114 -0.6020
11775TIP3    H256741   4.722   6.423   0.116 -0.0844 -2.5037 -1.7065
11776TIP3   OH256742   2.462   3.676  14.709 -0.2720  0.7336  0.0072
11776TIP3    H156743   2.395   3.733  14.669  0.0543  0.2095 -1.3182
11776TIP3    H256744   2.425   3.652  14.794 -1.8606  0.3194 -0.7727
11777TIP3   OH256745   5.993   0.595  11.799 -0.4971 -0.1395  0.1561
11777TIP3    H156746   6.083   0.571  11.820  0.2309  1.6095 -0.8906
11777TIP3    H256747   5.948   0.594  11.884  0.8618  0.4327  0.9044
11778TIP3   OH256748   3.942   1.768  14.853 -0.1620 -0.5581 -0.1403
11778TIP3    H156749   3.889   1.805  14.783 -0.8312  0.4152  0.8771
11778TIP3    H256750   4.029   1.805  14.839 -0.1443 -0.8478 -0.8162
11779TIP3   OH256751   1.382   6.726  11.291 -0.2308 -0.5717 -0.3175
11779TIP3    H156752   1.405   6.687  11.375 -0.2835 -2.0950 -0.9880
11779TIP3    H256753   1.290   6.703  11.278 -0.0000 -1.0595 -1.1597
11780TIP3   OH256754   2.054   5.571   4.873 -0.1309  0.1057  0.4995
11780TIP3    H156755   1.970   5.613   4.890 -0.3112  0.3626 -1.0038
11780TIP3    H256756   2.102   5.634   4.819  0.6753 -0.4252  0.5890
11781TIP3   OH256757   4.026   2.236   0.335 -0.3730 -0.6676 -0.4211
11781TIP3    H156758   3.952   2.202   0.385 -0.2105 -0.0758  0.2258
11781TIP3    H256759   4.097   2.174   0.353  0.0272  0.1862  1.0550
11782TIP3   OH256760   2.639   1.283  12.153  0.3278 -0.3090 -0.1025
11782TIP3    H156761   2.640   1.191  12.128  1.2295 -0.1747 -0.6129
11782TIP3    H256762   2.719   1.295  12.205 -0.2515 -0.0185  0.7334
11783TIP3   OH256763   6.770   6.611   3.490 -0.0091 -0.3111 -0.3515
11783TIP3    H156764   6.763   6.667   3.412 -1.5042 -0.6694 -0.4807
11783TIP3    H256765   6.847   6.556   3.473 -0.1510 -0.1794 -1.4287
11784TIP3   OH256766   1.219   3.417   1.849 -0.0845  0.2023 -0.3897
11784TIP3    H156767   1.129   3.393   1.828 -0.0491 -0.8035  0.5363
11784TIP3    H256768   1.221   3.425   1.944  0.5523  1.3030 -0.4845
11785TIP3   OH256769   4.561   0.359   5.075 -0.6358  0.0851 -0.3530
11785TIP3    H156770   4.512   0.438   5.100  0.4698  0.8648 -0.5982
11785TIP3    H256771   4.570   0.366   4.980  0.6921  0.4010 -0.2129
11786TIP3   OH256772   1.933   0.764   5.897 -0.3568  0.1037  0.6363
11786TIP3    H156773   1.918   0.685   5.948 -1.2958  0.1038  0.3585
11786TIP3    H256774   1.990   0.818   5.953 -1.0191 -0.0848  1.5032
11787TIP3   OH256775   3.073   1.096   5.527  0.2521 -0.2572 -0.6012
11787TIP3    H156776   2.978   1.086   5.530  0.2734 -0.3278  0.0264
11787TIP3    H256777   3.107   1.014   5.563  0.4645  1.2092  2.8080
11788TIP3   OH256778   1.389   1.382  16.964 -0.3526  0.4679  0.4400
11788TIP3    H156779   1.334   1.386  17.041  0.4958 -1.2294  1.1516
11788TIP3    H256780   1.391   1.290  16.940  1.3616  0.6395 -0.1476
11789TIP3   OH256781   0.726   1.826   5.024 -0.1199 -0.1183  0.3253
11789TIP3    H156782   0.685   1.882   4.958  0.6132 -0.0820 -0.1078
11789TIP3    H256783   0.688   1.855   5.107 -1.4386 -0.5138 -0.1202
11790TIP3   OH256784   6.244   2.944   0.766 -0.2126  0.2130  0.4899
11790TIP3    H156785   6.262   2.869   0.709 -2.2988 -0.4485  0.6705
11790TIP3    H256786   6.320   2.950   0.823  1.1543 -0.1574 -1.2408
11791TIP3   OH256787   2.220   2.005   0.750 -0.1485  0.1982  0.2125
11791TIP3    H156788   2.231   2.003   0.845  0.3763 -0.1341  0.1459
11791TIP3    H256789   2.302   1.970   0.715 -0.9737 -1.2118 -0.3250
11792TIP3   OH256790   3.781   5.565  17.186  0.0011  0.7426  0.1308
11792TIP3    H156791   3.779   5.566  17.282 -1.8430  0.0328  0.1151
11792TIP3    H256792   3.698   5.604  17.160  0.7366  1.4519 -1.1960
11793TIP3   OH256793   6.161   0.822  15.524  0.8420 -0.3060  0.6654
11793TIP3    H156794   6.114   0.828  15.441  0.5935  0.7764  0.8845
11793TIP3    H256795   6.091   0.827  15.590  1.1826  0.4353  0.9724
11794TIP3   OH256796   2.213   3.700   4.421  0.0968  0.7490 -0.3667
11794TIP3    H156797   2.253   3.621   4.385 -0.8484  1.0573 -2.1715
11794TIP3    H256798   2.182   3.748   4.344  0.4061  2.7449  0.7155
11795TIP3   OH256799   0.033   4.026  13.324  0.5505  0.6940  0.0104
11795TIP3    H156800  -0.060   4.039  13.306  0.4715 -0.5201 -0.5636
11795TIP3    H256801   0.034   3.961  13.394  0.9728 -0.4211 -1.0071
11796TIP3   OH256802   2.135   0.084  13.450 -0.4235  0.2474 -0.2701
11796TIP3    H156803   2.151   0.145  13.379 -0.2532  0.4577 -0.0545
11796TIP3    H256804   2.212   0.027  13.451  0.5905  1.5956  1.1124
11797TIP3   OH256805   6.402   4.078  11.800 -0.0585  0.3068 -0.0849
11797TIP3    H156806   6.344   4.153  11.808  0.8776  0.9833  0.4417
11797TIP3    H256807   6.444   4.089  11.714  1.3701  1.3469  0.7105
11798TIP3   OH256808   4.138   6.064   6.715  0.3442  0.0696  0.1401
11798TIP3    H156809   4.055   6.102   6.743  0.0756  0.2665 -0.8857
11798TIP3    H256810   4.114   6.000   6.648  0.9146 -0.8574  0.8028
11799TIP3   OH256811   6.502   0.505  12.321 -0.1542  0.2088  0.4563
11799TIP3    H156812   6.439   0.574  12.345 -0.4294  0.3385 -0.5828
11799TIP3    H256813   6.587   0.543  12.341 -0.2887  0.9681 -0.3472
11800TIP3   OH256814   2.527   5.521  17.007  0.0253  0.0942  0.3860
11800TIP3    H156815   2.500   5.464  17.079  0.2889 -0.6679 -0.1221
11800TIP3    H256816   2.621   5.532  17.020  0.0435  0.0946  0.2487
11801TIP3   OH256817   2.850   0.159  15.835 -0.3241  0.3892 -0.6133
11801TIP3    H156818   2.814   0.248  15.834  1.2368  1.0666  1.2567
11801TIP3    H256819   2.928   0.163  15.780  0.8146  0.6543  1.0072
11802TIP3   OH256820   1.184   4.807  14.470 -0.8078 -0.3821 -0.2290
11802TIP3    H156821   1.191   4.895  14.507  0.1501 -0.5620  0.0087
11802TIP3    H256822   1.170   4.750  14.545  1.7850 -0.8281 -0.0506
11803TIP3   OH256823   4.901   6.392   1.744 -0.5208  0.1582  0.0199
11803TIP3    H156824   4.877   6.394   1.652  0.6655  1.5171 -0.2835
11803TIP3    H256825   4.870   6.476   1.778 -3.1502 -1.3496  1.4455
11804TIP3   OH256826   4.992   1.454   1.215 -0.4670  0.0578  0.3289
11804TIP3    H156827   4.937   1.400   1.271 -0.7648  0.8779  0.8335
11804TIP3    H256828   5.038   1.512   1.275  2.1852 -1.6646  0.0903
11805TIP3   OH256829   6.507   4.387  12.276  0.1003  0.6140 -0.4965
11805TIP3    H156830   6.522   4.481  12.264  0.7421  0.7605  1.3536
11805TIP3    H256831   6.467   4.380  12.363  0.9277 -0.9139 -0.2217
11806TIP3   OH256832   2.179   3.629   1.245 -0.2840 -0.2475 -0.1267
11806TIP3    H156833   2.161   3.668   1.330 -0.7597 -0.8048  0.0318
11806TIP3    H256834   2.186   3.535   1.262  0.3203 -0.2939 -0.5892
11807TIP3   OH256835   3.649   3.016  11.514 -0.1764 -0.3154  0.1316
11807TIP3    H156836   3.683   3.050  11.431 -0.5752 -1.7361 -0.6200
11807TIP3    H256837   3.725   3.011  11.571  0.3988 -0.8809 -0.6746
11808TIP3   OH256838   1.118   2.854  14.549  0.3883  0.4217 -0.2737
11808TIP3    H156839   1.195   2.912  14.551 -1.1537  2.5728 -0.9987
11808TIP3    H256840   1.047   2.911  14.518 -1.2898 -1.7686 -0.5195
11809TIP3   OH256841   3.973   0.300   4.180 -0.0325 -0.2244  0.0225
11809TIP3    H156842   3.906   0.283   4.115 -1.1334 -1.8910  1.5286
11809TIP3    H256843   4.043   0.237   4.160  0.2235  0.1870 -0.3719
11810TIP3   OH256844   2.787   2.755   1.991  0.6858  0.4837 -0.4011
11810TIP3    H156845   2.723   2.711   2.046  1.7102 -0.7916 -0.2212
11810TIP3    H256846   2.749   2.842   1.976 -1.2896 -0.3960 -0.6722
11811TIP3   OH256847   6.408   5.055   6.498  0.1742  0.8091 -0.1925
11811TIP3    H156848   6.386   4.977   6.448 -1.3653 -1.1081  3.2516
11811TIP3    H256849   6.495   5.038   6.533 -0.0047  0.7971  0.2509
11812TIP3   OH256850   0.260   4.474  15.502  0.0996  0.0980 -0.3221
11812TIP3    H156851   0.274   4.492  15.595  0.6710 -1.3278 -0.1176
11812TIP3    H256852   0.343   4.497  15.460  0.4640 -0.9786 -0.2107
11813TIP3   OH256853   5.732   1.584  15.784 -0.0845  0.7919 -0.9075
11813TIP3    H156854   5.815   1.539  15.767  0.5698  1.9013 -0.6293
11813TIP3    H256855   5.707   1.621  15.699  0.4875  1.7707 -0.6537
11814TIP3   OH256856   0.820   0.180  12.158 -0.2486 -0.6490 -0.2835
11814TIP3    H156857   0.785   0.220  12.237 -0.0860 -0.7050 -0.1839
11814TIP3    H256858   0.743   0.165  12.103 -0.1721  0.9306 -0.8390
11815TIP3   OH256859   1.376   0.866  12.347  0.3713  0.3271 -0.1727
11815TIP3    H156860   1.451   0.812  12.372  0.4281 -0.2856 -1.6221
11815TIP3    H256861   1.412   0.935  12.291  0.3510  2.1156  1.9504
11816TIP3   OH256862   3.803   2.915   2.280  0.1230 -0.6363 -0.1231
11816TIP3    H156863   3.849   2.976   2.337 -0.1981  1.7737 -2.3552
11816TIP3    H256864   3.859   2.838   2.276  1.0966 -0.0565  1.8148
11817TIP3   OH256865   5.479   0.555   4.777  0.1564 -0.1747  0.2485
11817TIP3    H156866   5.561   0.514   4.749  0.7809  0.7374  0.7310
11817TIP3    H256867   5.470   0.632   4.721  0.2729  0.4181  1.0392
11818TIP3   OH256868   4.368   3.054  16.946  0.8795  0.4114 -0.0428
11818TIP3    H156869   4.281   3.032  16.912  0.9636  1.3613 -0.9042
11818TIP3    H256870   4.351   3.099  17.029  0.6453 -1.3512  0.8745
11819TIP3   OH256871   1.765   0.218   1.640 -0.7097  0.2184 -0.4908
11819TIP3    H156872   1.788   0.269   1.562  0.5519  1.4170  0.6398
11819TIP3    H256873   1.745   0.284   1.706  0.0733 -0.7679  0.7505
11820TIP3   OH256874   5.224   2.931  12.657 -0.3119  0.1434  0.1064
11820TIP3    H156875   5.287   2.864  12.630 -1.2736 -0.4563 -0.6618
11820TIP3    H256876   5.253   3.010  12.613  1.4821  0.5352  1.8842
11821TIP3   OH256877   5.400   0.411   0.189  0.0146  0.1856  0.8433
11821TIP3    H156878   5.478   0.364   0.219 -0.2766 -0.2597  0.9130
11821TIP3    H256879   5.352   0.347   0.136 -1.9297 -0.6135  3.4542
11822TIP3   OH256880   2.977   2.327   5.743  0.3107 -0.3490  0.6980
11822TIP3    H156881   2.992   2.278   5.824  1.8641  0.0445  0.6626
11822TIP3    H256882   3.056   2.379   5.731 -1.0287  1.6817  0.3706
11823TIP3   OH256883   2.688   3.391   3.501  0.1376  0.0301  0.3531
11823TIP3    H156884   2.760   3.452   3.484  1.1003 -0.2804  3.0637
11823TIP3    H256885   2.726   3.305   3.484  0.1760 -0.0883  1.0424
11824TIP3   OH256886   4.890   6.664   3.355  0.3027  0.6100 -0.2803
11824TIP3    H156887   4.961   6.727   3.373  0.7986  0.0271 -0.1682
11824TIP3    H256888   4.831   6.711   3.297  1.1462  0.8750 -0.9478
11825TIP3   OH256889   4.002   2.640  15.332  0.3775  0.1386 -0.1953
11825TIP3    H156890   3.986   2.556  15.374 -0.9019  0.0817 -0.7673
11825TIP3    H256891   4.051   2.618  15.253  1.6468  0.1173  0.5951
11826TIP3   OH256892   6.770   0.960   5.637  0.2959  0.1572  0.0662
11826TIP3    H156893   6.855   0.934   5.674  0.8736  0.7664 -0.7952
11826TIP3    H256894   6.791   1.035   5.582 -0.6182 -0.4556 -1.1298
11827TIP3   OH256895   0.042   6.442   2.239 -0.3749 -0.0942  0.4425
11827TIP3    H156896  -0.026   6.508   2.231  0.1420  0.1770 -1.9160
11827TIP3    H256897   0.035   6.390   2.159  0.5930 -1.5946  1.3054
11828TIP3   OH256898   4.197   6.407  15.574  0.1462  0.9714  0.6106
11828TIP3    H156899   4.230   6.448  15.494 -1.4247  2.4669  0.6909
11828TIP3    H256900   4.143   6.334  15.544  2.3422 -0.6472  0.4429
11829TIP3   OH256901   6.472   2.501  13.444 -0.0379  0.5299  0.0095
11829TIP3    H156902   6.537   2.432  13.460  0.6527  1.1838  0.0353
11829TIP3    H256903   6.505   2.547  13.366  0.3115  1.8002  0.9023
11830TIP3   OH256904   0.424   2.615  14.701 -0.1272  0.2577 -0.0003
11830TIP3    H156905   0.504   2.633  14.750 -0.0198  2.0374 -0.7917
11830TIP3    H256906   0.456   2.581  14.617 -0.3025 -2.4101  0.9577
11831TIP3   OH256907   5.598   2.318  11.403 -0.1015 -0.0082 -0.8057
11831TIP3    H156908   5.660   2.386  11.377  0.1930 -0.7859 -2.1937
11831TIP3    H256909   5.523   2.331  11.345 -0.0540 -0.8454 -1.0557
11832TIP3   OH256910   4.599   2.745  13.459  0.2527  0.1769 -0.7462
11832TIP3    H156911   4.666   2.812  13.447  0.3424  0.0125 -1.1450
11832TIP3    H256912   4.528   2.791  13.504  0.5429  0.4029 -0.5127
11833TIP3   OH256913   4.476   5.110  14.019  0.5630 -0.1963 -0.4275
11833TIP3    H156914   4.480   5.017  14.042  0.4947  0.0787  0.6941
11833TIP3    H256915   4.385   5.124  13.992  0.4911 -0.3846 -0.2845
11834TIP3   OH256916   2.497   2.544  11.142 -0.4430  0.1839 -0.8014
11834TIP3    H156917   2.490   2.499  11.058 -2.3475  1.2612 -1.2628
11834TIP3    H256918   2.457   2.629  11.126  1.0048  1.1578  0.6765
11835TIP3   OH256919   6.512   4.251   6.226  0.5659  0.5551  0.0133
11835TIP3    H156920   6.462   4.283   6.150  0.6851 -0.8105 -0.6514
11835TIP3    H256921   6.448   4.247   6.297 -0.4964 -1.8915 -1.0195
11836TIP3   OH256922   3.766   1.367   3.072  0.1469  0.4311  0.1369
11836TIP3    H156923   3.689   1.419   3.051 -0.6278 -1.3163 -1.5282
11836TIP3    H256924   3.813   1.418   3.138 -3.1378  0.8565  2.2328
11837TIP3   OH256925   4.691   4.622  10.917 -0.2850  0.0096  0.1500
11837TIP3    H156926   4.628   4.692  10.899 -0.3324 -0.6245 -2.2878
11837TIP3    H256927   4.640   4.541  10.909  0.2267 -0.4014  0.9478
11838TIP3   OH256928   2.296   1.935   0.410  0.2929 -0.2586 -0.4501
11838TIP3    H156929   2.344   1.853   0.402  1.6590  0.4945 -0.1658
11838TIP3    H256930   2.327   1.989   0.337 -0.9172 -0.1581 -0.8951
11839TIP3   OH256931   1.393   3.226  11.334  0.0518  0.1946  0.4336
11839TIP3    H156932   1.453   3.157  11.305 -0.3532 -0.5194  1.2890
11839TIP3    H256933   1.371   3.202  11.424 -0.0917  1.4394  0.7350
11840TIP3   OH256934   1.009   5.060   3.593 -0.2010 -0.0622 -0.0964
11840TIP3    H156935   0.983   5.122   3.526 -1.2844 -0.0134  0.3682
11840TIP3    H256936   0.927   5.022   3.625  0.3252 -0.3199  0.9709
11841TIP3   OH256937   2.833   5.889  16.536 -0.3263 -0.3130 -0.5460
11841TIP3    H156938   2.897   5.928  16.477 -1.4919 -0.1152 -1.7100
11841TIP3    H256939   2.749   5.900  16.491 -1.1423 -0.8285  0.8112
11842TIP3   OH256940   3.875   5.936   4.168 -0.2852 -0.0901  0.3425
11842TIP3    H156941   3.794   5.893   4.140 -0.7887  0.8963  0.2570
11842TIP3    H256942   3.846   6.005   4.228  0.5484 -0.1920  0.8677
11843TIP3   OH256943   3.460   6.072  10.914 -0.0646 -0.1963 -0.1510
11843TIP3    H156944   3.489   6.058  10.824 -0.6760 -0.0159 -0.3794
11843TIP3    H256945   3.427   5.987  10.942 -0.6001 -0.0566 -0.3628
11844TIP3   OH256946   5.829   4.136   5.478 -0.4427  0.1637  0.2817
11844TIP3    H156947   5.906   4.080   5.491  2.2062  3.2893 -1.1846
11844TIP3    H256948   5.764   4.079   5.438  1.9158 -2.0173 -0.5767
11845TIP3   OH256949   5.768   6.134   4.707 -0.3573 -0.3223 -0.2997
11845TIP3    H156950   5.741   6.226   4.707  0.8891  0.0703  2.1828
11845TIP3    H256951   5.697   6.089   4.661 -2.0058  1.5886  0.2687
11846TIP3   OH256952   0.609   4.315   4.469 -0.1007  0.7571 -0.5902
11846TIP3    H156953   0.520   4.315   4.505 -0.5712 -0.6006 -1.7169
11846TIP3    H256954   0.628   4.407   4.452 -0.7310  1.2004  1.0056
11847TIP3   OH256955   5.625   6.691   1.142  0.4225  0.4008  0.2697
11847TIP3    H156956   5.608   6.655   1.054  4.0556  0.6186 -0.6185
11847TIP3    H256957   5.676   6.622   1.186  1.0842  1.4569  1.1734
11848TIP3   OH256958   4.732   2.254  16.966 -0.2429 -0.0020  0.1215
11848TIP3    H156959   4.735   2.209  16.881 -0.5537  0.0687  0.0722
11848TIP3    H256960   4.822   2.248  16.999 -0.0133  0.3789 -0.4254
11849TIP3   OH256961   5.277   4.109  13.814 -0.5130  0.5705  0.0731
11849TIP3    H156962   5.212   4.175  13.791 -1.1654 -0.1928 -0.3175
11849TIP3    H256963   5.278   4.109  13.910  0.3412  1.9517  0.0797
11850TIP3   OH256964   6.021   6.367  11.566  0.3861  0.1710 -0.0677
11850TIP3    H156965   5.962   6.442  11.560  1.0187  0.5806 -1.1675
11850TIP3    H256966   5.972   6.295  11.528 -0.4710 -0.1370  1.5722
11851TIP3   OH256967   6.196   2.159   3.968  0.3792  0.4981  0.0925
11851TIP3    H156968   6.144   2.236   3.946  0.3239  0.4611  0.0974
11851TIP3    H256969   6.276   2.195   4.007  0.7192  0.5779 -0.6827
11852TIP3   OH256970   0.318   4.317   4.475  0.1271 -0.2772  0.4119
11852TIP3    H156971   0.254   4.271   4.420 -1.0044  1.9048 -0.1366
11852TIP3    H256972   0.266   4.382   4.522  1.9761  1.6317 -0.1471
11853TIP3   OH256973   5.969   2.487  16.267 -0.2412 -0.6274  0.0991
11853TIP3    H156974   5.976   2.528  16.181  0.8804  0.1185  0.5208
11853TIP3    H256975   6.023   2.409  16.262  2.0793  0.8438  0.8995
11854TIP3   OH256976   5.362   3.546  10.786 -1.1999 -0.4373  0.7685
11854TIP3    H156977   5.302   3.570  10.715  0.7668 -1.7203 -1.3600
11854TIP3    H256978   5.401   3.464  10.758  1.4123  0.2668  2.2130
11855TIP3   OH256979   4.625   2.085  14.302  0.1236  0.3050 -0.0788
11855TIP3    H156980   4.559   2.147  14.331 -0.8513 -0.7077 -0.0743
11855TIP3    H256981   4.575   2.005  14.282  0.9729  0.3914 -2.7656
11856TIP3   OH256982   4.174   1.497  11.317  0.3072  0.6940  0.1799
11856TIP3    H156983   4.103   1.442  11.284  1.5575 -1.7401  1.4690
11856TIP3    H256984   4.141   1.533  11.399 -0.3677  1.6061 -0.4788
11857TIP3   OH256985   2.984   4.734   1.494  0.0580 -0.2598  0.1064
11857TIP3    H156986   2.989   4.651   1.540 -1.4381  0.6009  1.8958
11857TIP3    H256987   2.913   4.722   1.430 -0.7804 -0.0863  0.9877
11858TIP3   OH256988   4.444   2.367   3.717  0.5329  0.6397  0.1099
11858TIP3    H156989   4.508   2.389   3.650 -1.1501  2.2067 -1.0228
11858TIP3    H256990   4.418   2.277   3.697  1.5361  0.3911 -0.0885
11859TIP3   OH256991   4.651   3.492  11.171  0.5775  0.1951  0.3334
11859TIP3    H156992   4.673   3.580  11.141  2.4207  0.0026  1.0322
11859TIP3    H256993   4.584   3.504  11.238 -0.6382  0.9069 -0.9872
11860TIP3   OH256994   6.293   3.708   4.049 -0.2464 -0.0516  0.2700
11860TIP3    H156995   6.328   3.797   4.047  0.1049 -0.1954 -0.0237
11860TIP3    H256996   6.347   3.662   4.114 -0.7501  0.0841  0.7874
11861TIP3   OH256997   3.328   5.875   1.733 -0.5319  0.4458  0.9427
11861TIP3    H156998   3.342   5.845   1.823 -1.1084 -0.1486  0.8348
11861TIP3    H256999   3.256   5.820   1.700  0.0631  0.2652 -0.0693
11862TIP3   OH257000   0.277   6.283  13.708 -0.4961 -0.3823  0.1781
11862TIP3    H157001   0.190   6.306  13.742  0.6328  3.0911  0.9904
11862TIP3    H257002   0.322   6.245  13.783 -0.0226  1.6079  0.9420
11863TIP3   OH257003   4.725   0.216   5.237  0.1098 -0.4103 -0.3742
11863TIP3    H157004   4.676   0.274   5.179  0.9337  0.4041 -0.2736
11863TIP3    H257005   4.749   0.272   5.311 -0.9101 -1.4260  0.7499
11864TIP3   OH257006   3.355   3.060  11.416  0.1257 -0.0782 -0.3540
11864TIP3    H157007   3.430   3.007  11.444  0.6624 -0.3339 -2.2120
11864TIP3    H257008   3.281   3.023  11.464  0.8589 -1.1254 -0.0039
11865TIP3   OH257009   6.237   4.903   1.153  0.2142 -0.6146 -0.1974
11865TIP3    H157010   6.187   4.968   1.202  2.4240  0.2895  0.9472
11865TIP3    H257011   6.171   4.853   1.105 -1.6872  1.1754  0.4622
11866TIP3   OH257012   2.439   2.971   5.716 -0.2648  0.1903  0.1136
11866TIP3    H157013   2.530   2.942   5.711 -0.2335  0.3028  0.0342
11866TIP3    H257014   2.438   3.038   5.784 -0.5814 -0.9198  1.2325
11867TIP3   OH257015   3.654   6.372  13.565  0.1357  0.0287 -0.3107
11867TIP3    H157016   3.742   6.336  13.576 -0.3225 -0.6629  1.1994
11867TIP3    H257017   3.669   6.462  13.537  1.2971 -0.6960 -2.1182
11868TIP3   OH257018   2.728   4.797   5.946 -0.0379 -0.1565  0.7571
11868TIP3    H157019   2.710   4.773   6.036  0.5895 -0.5365  0.7848
11868TIP3    H257020   2.816   4.835   5.949  0.6788 -1.7216  0.0392
11869TIP3   OH257021   4.281   5.294  12.816  0.1619  0.4585  0.0095
11869TIP3    H157022   4.343   5.237  12.861  0.4397 -0.2423 -1.2340
11869TIP3    H257023   4.195   5.264  12.846  0.2579 -1.2972 -1.3795
11870TIP3   OH257024   0.586   6.533   5.651 -0.1926 -0.4527  0.0473
11870TIP3    H157025   0.606   6.584   5.730 -1.0079 -0.0585  0.0006
11870TIP3    H257026   0.640   6.454   5.660 -1.2453 -1.0322  1.6686
11871TIP3   OH257027   6.460   1.589  16.244 -0.0373  0.0921 -0.2271
11871TIP3    H157028   6.552   1.564  16.242 -0.3060 -0.9249 -3.4181
11871TIP3    H257029   6.461   1.679  16.277  2.5428  1.4350 -3.5708
11872TIP3   OH257030   4.576   5.738   5.238  0.1067 -0.3549  0.6416
11872TIP3    H157031   4.644   5.771   5.297  0.0725  1.4281 -0.2981
11872TIP3    H257032   4.497   5.786   5.262 -0.2457 -0.6397  0.0806
11873TIP3   OH257033   3.479   1.705   5.585  0.4519  0.2151 -0.0912
11873TIP3    H157034   3.453   1.786   5.629  2.2659  0.2487  0.9991
11873TIP3    H257035   3.458   1.636   5.648 -0.7157 -0.1345 -0.8546
11874TIP3   OH257036   6.596   3.241  14.365  0.0835  0.1023 -0.4916
11874TIP3    H157037   6.554   3.231  14.279 -2.2302 -2.4044  0.8769
11874TIP3    H257038   6.615   3.335  14.371 -1.3145  0.5901 -2.9982
11875TIP3   OH257039   6.170   6.773   3.100 -0.6228  0.8743  0.3463
11875TIP3    H157040   6.147   6.689   3.139 -0.3492  0.5049 -0.2829
11875TIP3    H257041   6.131   6.838   3.158  1.7954  0.4270  2.5501
11876TIP3   OH257042   4.234   6.774  14.453 -0.0629  0.0505  0.7093
11876TIP3    H157043   4.168   6.708  14.432  0.2316 -0.0220 -0.0270
11876TIP3    H257044   4.246   6.767  14.547  0.3368 -1.2950  0.5718
11877TIP3   OH257045   2.845   1.906  14.375  0.0738  0.2213  0.0198
11877TIP3    H157046   2.793   1.924  14.296  2.0382 -0.4007 -1.4525
11877TIP3    H257047   2.782   1.866  14.436 -1.1736 -0.5977 -1.7388
11878TIP3   OH257048   0.189   4.127   1.961  0.5699  0.0330  0.3034
11878TIP3    H157049   0.140   4.155   2.038  0.1784  0.1332  0.0209
11878TIP3    H257050   0.131   4.063   1.919  0.3213  0.7732 -0.4844
11879TIP3   OH257051   1.190   2.466  12.929 -0.3464  0.5866 -0.1212
11879TIP3    H157052   1.259   2.456  12.863 -0.9480 -0.9816 -0.5341
11879TIP3    H257053   1.113   2.425  12.890 -0.3775 -1.5601  2.0563
11880TIP3   OH257054   2.827   2.835  15.970  0.2156 -0.0371 -0.2781
11880TIP3    H157055   2.756   2.771  15.969  0.2540 -0.1202  1.0723
11880TIP3    H257056   2.804   2.898  15.903 -2.1468  1.0000  1.4485
11881TIP3   OH257057   4.761   1.697  13.126  0.4381  0.4410 -0.3467
11881TIP3    H157058   4.683   1.749  13.150  1.6510  1.1492  2.3361
11881TIP3    H257059   4.769   1.707  13.032 -1.1451  2.6406 -0.2877
11882TIP3   OH257060   3.779   5.938   3.607 -0.4362  0.2030  0.1675
11882TIP3    H157061   3.736   6.011   3.651 -0.3124  0.8830 -0.8170
11882TIP3    H257062   3.708   5.894   3.560 -0.4964 -0.2693  0.6924
11883TIP3   OH257063   1.636   4.627  11.795 -0.6339  0.0453  0.4903
11883TIP3    H157064   1.652   4.608  11.702  2.0722  0.4786  0.8453
11883TIP3    H257065   1.578   4.556  11.824  1.0499 -1.9189 -0.7616
11884TIP3   OH257066   2.836   5.287   2.429 -0.2658  0.3844  0.0743
11884TIP3    H157067   2.930   5.291   2.415 -0.3174 -0.5727 -0.6037
11884TIP3    H257068   2.821   5.338   2.508  1.1001 -1.4079  1.5253
11885TIP3   OH257069   5.439   6.667  15.604 -0.2880  0.0253  0.7785
11885TIP3    H157070   5.413   6.651  15.514 -0.3146 -0.5355  0.8886
11885TIP3    H257071   5.403   6.754  15.624 -0.2074  0.1863  0.2261
11886TIP3   OH257072   0.200   2.978   0.566 -0.4909  0.6095 -0.3114
11886TIP3    H157073   0.164   3.065   0.550 -2.7964 -0.5494 -1.8278
11886TIP3    H257074   0.267   2.968   0.498  0.3651  1.5098  0.3934
11887TIP3   OH257075   4.318   6.389   0.438 -0.2314  0.0066  0.6489
11887TIP3    H157076   4.299   6.483   0.437 -1.5265 -0.2387  0.6839
11887TIP3    H257077   4.322   6.366   0.530  0.2842  0.0666  0.6406
11888TIP3   OH257078   1.261   6.693  12.848 -0.0818 -0.1744 -0.1785
11888TIP3    H157079   1.292   6.751  12.918 -0.7410 -0.1993  0.1411
11888TIP3    H257080   1.298   6.607  12.870  1.7751  0.3361 -1.2351
11889TIP3   OH257081   0.675   2.142   5.701  0.4811 -0.0639  0.3797
11889TIP3    H157082   0.654   2.049   5.691 -0.9284  0.4541 -1.7992
11889TIP3    H257083   0.728   2.163   5.624  0.4524  1.0378  0.6577
11890TIP3   OH257084   6.631   5.263  16.705  0.1385 -0.2606  0.5849
11890TIP3    H157085   6.671   5.203  16.768  0.1273 -0.5978  0.2710
11890TIP3    H257086   6.692   5.336  16.700  1.5984 -1.5204 -1.1332
11891TIP3   OH257087   0.783   3.315   0.528 -0.4834  0.5060  0.2165
11891TIP3    H157088   0.750   3.354   0.608 -1.6248  0.1024 -0.0586
11891TIP3    H257089   0.831   3.386   0.485 -1.4929  1.2601  0.3188
11892TIP3   OH257090   6.241   2.754   4.936  0.2189 -0.2542 -0.3941
11892TIP3    H157091   6.238   2.790   5.024 -0.3113 -1.8906  0.2763
11892TIP3    H257092   6.179   2.681   4.938  0.5840 -0.6288 -1.9789
11893TIP3   OH257093   0.534   4.300   2.458 -0.6685 -0.3419 -0.4288
11893TIP3    H157094   0.584   4.368   2.412  0.3128 -1.2370 -0.7016
11893TIP3    H257095   0.552   4.220   2.410 -2.2984 -0.7103 -0.4613
11894TIP3   OH257096   3.956   2.595  10.875 -0.1145 -0.3487  0.4816
11894TIP3    H157097   3.962   2.541  10.953  1.3794 -0.1310  0.5260
11894TIP3    H257098   3.862   2.599  10.856 -0.3647 -1.5946  1.4157
11895TIP3   OH257099   2.045   3.833   2.267  0.1548  0.2790  0.5024
11895TIP3    H157100   1.951   3.830   2.251 -0.1283  2.8562  1.4614
11895TIP3    H257101   2.055   3.808   2.359  0.3120  0.7677  0.6238
11896TIP3   OH257102   0.226   4.686   1.477 -0.8505  0.4713 -0.2884
11896TIP3    H157103   0.196   4.602   1.440  1.7319 -0.0530 -1.2634
11896TIP3    H257104   0.169   4.751   1.437 -0.5989 -0.4878 -2.2614
11897TIP3   OH257105   4.216   5.585   4.908 -0.2412 -0.0089 -0.6861
11897TIP3    H157106   4.220   5.490   4.901 -2.7810 -0.1813 -0.2616
11897TIP3    H257107   4.147   5.611   4.848 -0.3134  1.4615  0.0087
11898TIP3   OH257108   3.191   2.920   5.022  0.0752 -0.7859 -0.8915
11898TIP3    H157109   3.248   2.941   5.095 -1.1986  1.2619 -0.4336
11898TIP3    H257110   3.198   2.996   4.963  0.1692 -1.8731 -2.2967
11899TIP3   OH257111   2.205   0.358  16.167  0.4873 -0.1868  0.2716
11899TIP3    H157112   2.196   0.320  16.080 -1.8259  2.4123 -0.6959
11899TIP3    H257113   2.264   0.433  16.154 -0.0049  0.3167  0.8961
11900TIP3   OH257114   3.060   0.938   2.800  0.2185  0.2650  0.2952
11900TIP3    H157115   2.998   1.009   2.782  1.3417  0.8901 -1.2349
11900TIP3    H257116   3.140   0.982   2.829  1.2873 -0.2752 -1.7206
11901TIP3   OH257117   5.073   1.925  12.393 -0.0753  0.2035  0.1246
11901TIP3    H157118   5.113   1.885  12.316 -0.9090  1.5128 -1.0194
11901TIP3    H257119   5.146   1.940  12.453  0.4725 -1.5129 -0.1005
11902TIP3   OH257120   6.445   3.954   4.008 -0.8791 -0.5870  0.2844
11902TIP3    H157121   6.490   3.991   3.932  0.4653 -2.3887  0.1693
11902TIP3    H257122   6.393   4.026   4.042  1.2144  1.2508 -0.2631
11903TIP3   OH257123   5.031   3.087   0.276 -0.5944  0.8898 -0.4265
11903TIP3    H157124   5.037   3.038   0.194 -1.0496  1.9749 -1.1167
11903TIP3    H257125   5.121   3.113   0.294 -0.6098  1.3917 -1.0455
11904TIP3   OH257126   3.052   0.065  12.169  0.0191  0.1483 -0.3390
11904TIP3    H157127   3.062   0.023  12.255 -1.2900  0.7636  0.1270
11904TIP3    H257128   3.049   0.159  12.189  0.6019  0.3495 -1.1539
11905TIP3   OH257129   1.676   3.145  15.681  0.3547  0.5468 -0.2828
11905TIP3    H157130   1.591   3.124  15.719  1.2228 -1.3179  0.7247
11905TIP3    H257131   1.692   3.236  15.705 -0.2606  0.1639  1.6355
11906TIP3   OH257132   1.924   5.417   0.090  0.3460 -0.1479 -0.6750
11906TIP3    H157133   1.956   5.373   0.168  0.3094  0.1470 -0.4937
11906TIP3    H257134   1.992   5.402   0.024  1.1984  1.0609 -0.0917
11907TIP3   OH257135   1.786   4.422   2.363 -0.2846  0.4102 -0.3329
11907TIP3    H157136   1.702   4.412   2.317 -0.9352  0.1656  0.8905
11907TIP3    H257137   1.762   4.437   2.454  1.0373 -0.7735  0.2227
11908TIP3   OH257138   3.848   0.885  16.071  0.4774  0.5445 -0.2323
11908TIP3    H157139   3.885   0.797  16.071  0.1565  0.4065  0.7191
11908TIP3    H257140   3.803   0.892  15.987  0.2459 -0.3094 -0.1842
11909TIP3   OH257141   0.631   5.711   5.416  0.1492 -0.2844 -0.0211
11909TIP3    H157142   0.663   5.621   5.414 -0.8287 -0.6462  0.5659
11909TIP3    H257143   0.588   5.720   5.500  0.0943  0.6853 -0.1469
11910TIP3   OH257144   3.468   0.810  11.829 -0.1409  0.2484  0.4542
11910TIP3    H157145   3.538   0.810  11.895 -0.0961  2.1939  0.4469
11910TIP3    H257146   3.444   0.902  11.820 -0.4443 -0.0137 -1.9383
11911TIP3   OH257147   5.431   3.092  16.520 -0.1847  0.1511  0.1460
11911TIP3    H157148   5.409   3.185  16.521  1.3863  0.5433 -0.4181
11911TIP3    H257149   5.385   3.057  16.443  0.4735  0.7768 -0.5307
11912TIP3   OH257150   1.122   1.734   1.687  0.5491  0.1565 -0.0681
11912TIP3    H157151   1.056   1.747   1.619  0.1130 -0.8117  0.1748
11912TIP3    H257152   1.202   1.713   1.639  0.2554 -0.4639 -0.2853
11913TIP3   OH257153   0.148   4.995  15.657  0.3307  0.5883 -0.2068
11913TIP3    H157154   0.110   4.935  15.593  2.2976 -0.2696 -0.5975
11913TIP3    H257155   0.161   5.077  15.609 -0.7758  0.8210 -0.1299
11914TIP3   OH257156   2.958   0.639  12.821  0.5045 -0.7924  0.1670
11914TIP3    H157157   2.972   0.588  12.900  0.8540 -0.4235  0.3386
11914TIP3    H257158   2.993   0.584  12.751  1.0614 -0.6981  0.3752
11915TIP3   OH257159   2.252   3.979  15.703 -0.4254 -0.6448 -0.1159
11915TIP3    H157160   2.344   3.998  15.718 -0.9971  1.2918  1.1818
11915TIP3    H257161   2.206   4.053  15.742 -2.6232 -2.6273  1.2023
11916TIP3   OH257162   5.543   0.676   2.880  0.2624  0.4690  0.1035
11916TIP3    H157163   5.636   0.654   2.870  0.1892  1.4510 -3.3609
11916TIP3    H257164   5.544   0.752   2.939  1.5799 -0.1509  0.9118
11917TIP3   OH257165   2.742   2.559  16.566  0.3251  0.5503 -0.8952
11917TIP3    H157166   2.731   2.649  16.597 -0.6944  0.3001 -0.5381
11917TIP3    H257167   2.742   2.567  16.470 -1.9591  0.6949 -0.9096
11918TIP3   OH257168   5.900   1.688  12.861  0.2116  0.1679 -0.4735
11918TIP3    H157169   5.830   1.672  12.797  0.6433 -1.5626 -0.5289
11918TIP3    H257170   5.853   1.708  12.942 -0.3663 -0.6707 -0.5882
11919TIP3   OH257171   2.888   2.458  14.881 -0.2527  0.3974  0.3738
11919TIP3    H157172   2.838   2.463  14.963 -0.5677 -1.0942  0.2984
11919TIP3    H257173   2.874   2.542  14.839 -2.1745  0.2512  0.6707
11920TIP3   OH257174   3.294   0.453  14.473  0.2415  0.0408  0.2975
11920TIP3    H157175   3.376   0.417  14.440  1.2655  0.3315  2.4300
11920TIP3    H257176   3.232   0.380  14.470  0.6516 -0.2583 -1.0615
11921TIP3   OH257177   3.129   3.941  15.601 -0.8182 -0.8516  0.2943
11921TIP3    H157178   3.136   3.936  15.505 -0.9010 -1.3215  0.3093
11921TIP3    H257179   3.042   3.976  15.617 -0.1322  0.9729  0.1719
11922TIP3   OH257180   3.063   2.670  11.606 -0.3868  0.1659  0.1729
11922TIP3    H157181   3.136   2.613  11.633 -0.3496  0.5122  0.8023
11922TIP3    H257182   2.990   2.642  11.661 -1.0261 -0.8982 -1.1900
11923TIP3   OH257183   2.547   2.107  13.173  0.2265  0.5656 -0.2044
11923TIP3    H157184   2.541   2.033  13.235 -0.9842  0.3928 -0.5164
11923TIP3    H257185   2.628   2.090  13.125  0.9060  0.4073  0.9561
11924TIP3   OH257186   3.440   4.496  17.238  0.1219 -0.4942  0.1347
11924TIP3    H157187   3.365   4.438  17.224 -0.2887 -0.0680  0.5416
11924TIP3    H257188   3.509   4.439  17.272  0.3956 -1.1243 -1.4400
11925TIP3   OH257189   6.701   6.204   0.779 -0.2523 -0.0854  0.2210
11925TIP3    H157190   6.758   6.212   0.702  0.1699  0.7844  0.6203
11925TIP3    H257191   6.705   6.290   0.820  0.6103 -0.9410  1.9790
11926TIP3   OH257192   5.858   0.515   0.018 -0.7311  0.3333  0.2293
11926TIP3    H157193   5.800   0.440   0.013 -2.2302  1.5181 -0.8910
11926TIP3    H257194   5.825   0.567   0.091 -0.4413  0.4834  0.2548
11927TIP3   OH257195   4.410   4.960   1.837  0.1514  0.8685  0.1363
11927TIP3    H157196   4.362   4.900   1.894 -1.3898  1.9837  0.0458
11927TIP3    H257197   4.456   4.903   1.775 -0.3970 -0.2529  0.7400
11928TIP3   OH257198   6.529   1.049  14.852  0.0277 -0.1792 -0.4650
11928TIP3    H157199   6.454   1.101  14.881  0.5566  0.5520 -0.3793
11928TIP3    H257200   6.588   1.047  14.927  0.6582  0.3241 -0.9434
11929TIP3   OH257201   2.722   3.606  13.347 -0.0830  0.1000  0.1859
11929TIP3    H157202   2.665   3.674  13.382 -0.7388 -0.2338 -0.2087
11929TIP3    H257203   2.736   3.630  13.256  0.9135  0.5065  0.4434
11930TIP3   OH257204   6.113   3.688  14.613  0.6689 -0.2210 -0.3913
11930TIP3    H157205   6.026   3.726  14.627  1.1644 -0.1411  2.8019
11930TIP3    H257206   6.096   3.600  14.579 -0.6431 -0.0993 -0.0688
11931TIP3   OH257207   0.613   0.770  14.577 -0.1644  0.0655 -0.0916
11931TIP3    H157208   0.624   0.821  14.496  0.8278 -1.8491 -1.2172
11931TIP3    H257209   0.532   0.721  14.564  0.3577 -0.7725 -0.2420
11932TIP3   OH257210   1.998   1.367   2.516  0.4114 -0.3018 -0.0125
11932TIP3    H157211   2.074   1.420   2.493  1.2632 -2.0515 -1.2841
11932TIP3    H257212   2.024   1.320   2.595 -0.4615  1.3741  1.3046
11933TIP3   OH257213   4.032   6.674  15.171 -0.4564 -0.3115  0.3703
11933TIP3    H157214   3.998   6.745  15.225  0.9463 -0.7303  1.8607
11933TIP3    H257215   3.968   6.604  15.179 -0.1703 -0.4416  1.6797
11934TIP3   OH257216   0.337   0.192  17.122  0.1477  0.0969  0.1760
11934TIP3    H157217   0.245   0.200  17.146  0.0990  2.3361 -0.6345
11934TIP3    H257218   0.369   0.117  17.173 -2.6889 -2.2772 -1.4212
11935TIP3   OH257219   1.577   4.318  15.879 -0.7483 -0.0355 -0.2543
11935TIP3    H157220   1.521   4.396  15.875 -1.4861 -0.5000  0.6570
11935TIP3    H257221   1.642   4.339  15.947 -2.7864 -1.3541  2.1781
11936TIP3   OH257222   2.384   0.925   0.111  0.4466  0.2195 -0.1649
11936TIP3    H157223   2.407   0.969   0.030  1.8633 -0.8441 -0.3751
11936TIP3    H257224   2.355   0.838   0.084  1.2338 -0.2507  0.4626
11937TIP3   OH257225   4.431   5.452  17.174 -0.2164 -0.0680 -0.3702
11937TIP3    H157226   4.444   5.529  17.119 -0.7705  0.3275  0.0455
11937TIP3    H257227   4.370   5.397  17.125  0.0654 -0.1706 -0.6032
11938TIP3   OH257228   6.312   6.538  14.420 -0.4964 -0.0077 -0.2118
11938TIP3    H157229   6.224   6.537  14.382 -0.2310  2.6657 -0.9839
11938TIP3    H257230   6.298   6.538  14.514 -1.2623 -1.4114 -0.3083
11939TIP3   OH257231   0.177   6.373  12.551  0.8378  0.4564  0.2460
11939TIP3    H157232   0.089   6.392  12.585  0.7513  1.1865 -0.3534
11939TIP3    H257233   0.194   6.445  12.490  0.3406 -1.6342 -2.4200
11940TIP3   OH257234   4.592   2.862   3.873  0.2101 -0.7905  0.0652
11940TIP3    H157235   4.676   2.844   3.831  0.8985  0.0754  1.0400
11940TIP3    H257236   4.577   2.955   3.858 -0.0859 -0.7243  0.7373
11941TIP3   OH257237   3.150   3.692   3.305 -0.2827  0.3016 -0.0880
11941TIP3    H157238   3.136   3.786   3.305 -0.4193  0.2865 -1.4040
11941TIP3    H257239   3.216   3.677   3.373  1.7172  1.6396 -1.6870
11942TIP3   OH257240   3.255   4.064   5.481 -0.4172  0.1230 -0.2544
11942TIP3    H157241   3.223   4.146   5.519 -0.3283 -0.9942  2.3746
11942TIP3    H257242   3.190   4.042   5.415 -1.4287  1.3873  0.2851
11943TIP3   OH257243   5.534   1.187   6.094  0.1326  0.3905  0.0410
11943TIP3    H157244   5.564   1.122   6.031  1.2774  1.7674 -0.8873
11943TIP3    H257245   5.613   1.211   6.142 -0.1562  1.5073 -0.0312
11944TIP3   OH257246   1.067   2.612  14.651  0.6459  0.2085  0.0611
11944TIP3    H157247   1.087   2.619  14.744 -0.3672 -0.0824  0.3147
11944TIP3    H257248   1.062   2.702  14.620  0.3176  0.3245  0.4440
11945TIP3   OH257249   2.320   1.363  11.517 -0.0277  0.0944 -0.3674
11945TIP3    H157250   2.363   1.385  11.599  1.8242 -0.8924 -1.0242
11945TIP3    H257251   2.362   1.420  11.452 -0.8854  0.2897 -0.7487
11946TIP3   OH257252   6.407   5.196   5.096  0.0551 -0.3687  0.7591
11946TIP3    H157253   6.416   5.140   5.019 -2.0069  1.1726 -0.6408
11946TIP3    H257254   6.431   5.284   5.066 -2.8417  0.6559  1.2730
11947TIP3   OH257255   4.007   6.354  17.035  0.5921  0.0572 -0.2309
11947TIP3    H157256   4.040   6.287  17.095  0.2113  0.9205  0.9638
11947TIP3    H257257   4.046   6.435  17.067 -0.4479  0.6800 -0.5270
11948TIP3   OH257258   1.296   6.535   4.887  0.2418 -0.1714  0.0227
11948TIP3    H157259   1.324   6.489   4.807 -0.8546  1.7040 -1.4960
11948TIP3    H257260   1.201   6.539   4.880  0.0573 -1.0095  2.0265
11949TIP3   OH257261   5.085   5.629  16.399  0.6466 -0.2077  0.4878
11949TIP3    H157262   5.130   5.598  16.320  0.8551 -1.1941  0.9870
11949TIP3    H257263   5.015   5.686  16.366  1.1093 -0.1365 -0.3813
11950TIP3   OH257264   3.414   6.425  16.237 -0.0762 -0.2067  0.8756
11950TIP3    H157265   3.323   6.414  16.208 -0.4608 -1.1231  2.3798
11950TIP3    H257266   3.466   6.390  16.165 -0.8996  0.3371 -0.0037
11951TIP3   OH257267   2.986   2.062   5.299  0.5370 -0.1934 -0.1470
11951TIP3    H157268   3.071   2.063   5.255  0.5939  0.0959 -0.0337
11951TIP3    H257269   2.979   1.975   5.337  0.9601 -0.0876  0.1776
11952TIP3   OH257270   5.208   1.817  10.572 -0.9548  0.3406 -0.3820
11952TIP3    H157271   5.202   1.813  10.477 -1.2300  0.6980 -0.3814
11952TIP3    H257272   5.130   1.770  10.603 -2.3321  2.5483 -0.3565
11953TIP3   OH257273   3.326   1.500   0.507  0.2574 -0.0543 -0.2166
11953TIP3    H157274   3.271   1.425   0.533 -1.3178  0.7830 -1.0562
11953TIP3    H257275   3.398   1.461   0.458 -1.2775 -0.9365 -1.8293
11954TIP3   OH257276   5.867   5.921  11.485 -0.1330 -0.0806  0.0386
11954TIP3    H157277   5.827   5.965  11.410 -0.8067 -0.7692 -0.0046
11954TIP3    H257278   5.952   5.891  11.453 -0.7139 -1.0001 -0.6657
11955TIP3   OH257279   5.996   0.994  14.673  0.1329 -0.0537  0.3767
11955TIP3    H157280   5.912   0.950  14.656  0.0201 -0.3619  1.6922
11955TIP3    H257281   5.985   1.082  14.637 -1.4183  0.5172  2.1783
11956TIP3   OH257282   2.596   1.442   0.930  0.0965 -0.5185 -0.5529
11956TIP3    H157283   2.588   1.486   0.845  1.8468 -0.2701 -0.5979
11956TIP3    H257284   2.688   1.451   0.953 -0.5303  0.2384  1.8164
11957TIP3   OH257285   0.811   2.068  10.795 -0.1656  0.2677  0.7054
11957TIP3    H157286   0.861   2.140  10.835 -1.5175  0.8988  1.2889
11957TIP3    H257287   0.741   2.112  10.748  0.9965 -0.5084 -1.8178
11958TIP3   OH257288   1.141   4.910   0.350 -0.1936 -0.3807 -0.8362
11958TIP3    H157289   1.170   4.858   0.275  1.2730 -1.3702  0.3706
11958TIP3    H257290   1.206   4.891   0.418 -0.3506  2.0563  0.0521
11959TIP3   OH257291   4.951   1.466  15.331  0.0123 -0.0458 -0.0677
11959TIP3    H157292   4.985   1.409  15.263  0.9818 -0.3457  0.6576
11959TIP3    H257293   5.028   1.509  15.368 -0.3586 -0.7588  1.6155
11960TIP3   OH257294   1.232   2.063  15.116 -0.3120  0.5989  0.0181
11960TIP3    H157295   1.142   2.095  15.116 -0.8219 -0.8032  0.7552
11960TIP3    H257296   1.238   2.008  15.194  1.5720  1.7474  0.6959
11961TIP3   OH257297   0.400   1.128   1.437 -0.3094 -0.2680  0.0431
11961TIP3    H157298   0.389   1.045   1.483  0.0065  0.4600  1.4438
11961TIP3    H257299   0.312   1.164   1.429 -0.3816 -0.4723 -0.0608
11962TIP3   OH257300   5.506   1.862   4.914 -0.4080  0.2418  0.2043
11962TIP3    H157301   5.411   1.868   4.907 -0.3208  2.0752  0.4565
11962TIP3    H257302   5.524   1.863   5.008 -0.0839  0.7209  0.1378
11963TIP3   OH257303   0.135   1.150   4.609  0.2507  0.5529  0.4035
11963TIP3    H157304   0.116   1.103   4.690  0.0258  0.1984  0.1445
11963TIP3    H257305   0.167   1.235   4.639  0.5060  0.2981  0.8694
11964TIP3   OH257306   1.036   6.041   4.749  0.6929 -0.1640  0.7961
11964TIP3    H157307   1.059   5.948   4.756 -1.4800 -0.6903  1.4174
11964TIP3    H257308   0.972   6.055   4.820 -2.2128  0.7545 -1.8922
11965TIP3   OH257309   1.260   0.690  14.235 -0.2482  0.5548 -0.7380
11965TIP3    H157310   1.236   0.610  14.188 -2.6873  0.2125  1.0282
11965TIP3    H257311   1.356   0.687  14.238 -0.2423 -1.7017 -1.7011
11966TIP3   OH257312   2.405   1.978  15.630  0.2894  0.9532 -0.2518
11966TIP3    H157313   2.370   2.062  15.660  2.4278  0.9637  2.3810
11966TIP3    H257314   2.408   1.986  15.535 -1.9315  2.8660 -0.2013
11967TIP3   OH257315   5.851   1.664  11.205  0.1829  0.1066  0.6374
11967TIP3    H157316   5.922   1.608  11.173 -0.3912 -1.3277  1.8078
11967TIP3    H257317   5.863   1.665  11.300 -1.5474 -0.3995  0.8782
11968TIP3   OH257318   0.100   6.135  15.475  0.4117  0.1719  0.3186
11968TIP3    H157319   0.119   6.214  15.526 -0.7497  0.7030 -0.0632
11968TIP3    H257320   0.006   6.138  15.458  0.2570 -1.5634  0.7269
11969TIP3   OH257321   1.240   2.214  11.281 -1.0370  0.1118  0.3539
11969TIP3    H157322   1.224   2.298  11.325 -0.9097 -0.0472  0.6980
11969TIP3    H257323   1.273   2.239  11.194 -0.7639  0.4219  0.5423
11970TIP3   OH257324   5.278   2.944  15.564  0.4283  0.3609 -0.0778
11970TIP3    H157325   5.239   3.000  15.496 -1.6768  1.1804  1.7504
11970TIP3    H257326   5.338   3.003  15.611 -0.2283  0.5592  0.5269
11971TIP3   OH257327   2.666   5.067   0.905 -0.6320 -0.4293  0.1375
11971TIP3    H157328   2.601   5.084   0.973  0.7705  4.8463  0.3881
11971TIP3    H257329   2.640   5.126   0.833  2.1653 -0.3680 -0.8728
11972TIP3   OH257330   4.360   2.520   4.989 -0.4603  0.8283  0.4336
11972TIP3    H157331   4.357   2.434   4.948  0.8730  0.2962  1.3901
11972TIP3    H257332   4.313   2.577   4.929  1.2065  0.0242 -1.7249
11973TIP3   OH257333   2.962   3.499   1.984 -0.2648 -0.7650 -0.3801
11973TIP3    H157334   3.052   3.518   2.010  0.0518 -0.2269 -1.8421
11973TIP3    H257335   2.945   3.560   1.912 -1.5074 -1.4739 -0.6911
11974TIP3   OH257336   3.875   3.308  15.751  0.1983  0.6526 -0.4649
11974TIP3    H157337   3.856   3.278  15.840  2.0143  2.0035  0.4167
11974TIP3    H257338   3.918   3.233  15.709  0.3513  0.3868  0.1594
11975TIP3   OH257339   3.955   6.205  16.540 -0.1072 -0.8975 -0.2785
11975TIP3    H157340   3.876   6.179  16.492  0.3167 -0.6292 -1.1452
11975TIP3    H257341   3.971   6.134  16.601 -0.8789 -1.0760 -0.2808
11976TIP3   OH257342   4.336   1.065  14.401 -0.8292  0.3699 -0.0977
11976TIP3    H157343   4.409   1.055  14.340 -0.5906 -1.8062  0.4889
11976TIP3    H257344   4.376   1.101  14.480 -0.9130  1.9515 -0.7598
11977TIP3   OH257345   5.423   1.734  13.968  0.1027 -0.5653  0.2922
11977TIP3    H157346   5.511   1.710  13.996  0.1900 -0.6338 -0.0304
11977TIP3    H257347   5.429   1.740  13.872 -0.1369 -0.1435  0.3019
11978TIP3   OH257348   2.359   5.467  15.570 -0.1005 -0.5086  0.4170
11978TIP3    H157349   2.294   5.531  15.542 -1.3418 -1.9502 -0.1099
11978TIP3    H257350   2.307   5.394  15.603  1.2795 -1.2592  0.9707
11979TIP3   OH257351   5.660   2.340  15.243 -0.2636  0.1156 -0.2159
11979TIP3    H157352   5.627   2.407  15.303  0.0525  0.4591 -0.4192
11979TIP3    H257353   5.718   2.286  15.297  0.4567  0.7600 -0.3359
11980TIP3   OH257354   0.462   0.597   4.579 -0.5487 -0.3433 -0.0483
11980TIP3    H157355   0.379   0.553   4.598 -0.2881 -0.8197 -0.0040
11980TIP3    H257356   0.520   0.527   4.550 -0.3324  0.0777 -0.6345
11981TIP3   OH257357   1.990   1.875  12.749 -0.0015  0.1338 -0.0269
11981TIP3    H157358   1.898   1.862  12.770  0.2370  0.3957  1.2451
11981TIP3    H257359   2.032   1.791  12.772 -0.1073 -0.4008 -1.7464
11982TIP3   OH257360   4.054   6.256  15.132  0.2705  0.1329  0.3631
11982TIP3    H157361   4.112   6.185  15.104  1.6938  1.1220  0.7255
11982TIP3    H257362   4.013   6.287  15.051 -1.0242 -1.6472  0.3041
11983TIP3   OH257363   3.662   0.148  13.890 -0.1666  0.2606  0.0878
11983TIP3    H157364   3.582   0.146  13.942  0.3134 -3.0774  0.7734
11983TIP3    H257365   3.718   0.211  13.936 -0.9133 -0.3315  1.8590
11984TIP3   OH257366   1.713   0.210   5.166  0.2436 -0.2562  0.1535
11984TIP3    H157367   1.704   0.237   5.257 -0.3969 -0.2443  0.0905
11984TIP3    H257368   1.795   0.251   5.136  0.3939 -0.1688  0.6851
11985TIP3   OH257369   2.421   5.112   3.237  0.4635 -0.4586 -0.1467
11985TIP3    H157370   2.332   5.122   3.273  1.2604  0.2265  1.6726
11985TIP3    H257371   2.460   5.044   3.292  1.6633  0.5171  0.2110
11986TIP3   OH257372   0.472   6.529  16.275 -0.1418 -0.0292  0.1344
11986TIP3    H157373   0.551   6.584  16.270  0.3549 -0.6822  0.8082
11986TIP3    H257374   0.475   6.490  16.362 -1.1026 -0.2326  0.0809
11987TIP3   OH257375   4.206   6.143  12.280  0.3833 -0.3727  0.5644
11987TIP3    H157376   4.111   6.136  12.291  0.3028  1.2192  0.9579
11987TIP3    H257377   4.217   6.207  12.210  1.1504 -1.7063 -0.5597
11988TIP3   OH257378   3.736   2.351  15.990  0.1301 -0.4337  0.3704
11988TIP3    H157379   3.647   2.320  16.007 -0.1953  0.3121  0.0553
11988TIP3    H257380   3.724   2.431  15.939  1.0339 -1.7384 -1.9816
11989TIP3   OH257381   5.222   1.934   3.590 -0.1176  0.2111  0.2399
11989TIP3    H157382   5.157   1.957   3.657 -2.7922 -2.3435 -1.3791
11989TIP3    H257383   5.250   1.846   3.614 -0.5787 -0.4401 -1.5998
11990TIP3   OH257384   4.555   6.321   5.362  0.0146  0.0264 -0.0815
11990TIP3    H157385   4.470   6.340   5.401  0.2058  2.3021 -0.7302
11990TIP3    H257386   4.618   6.367   5.417  0.4977  1.2533 -1.6054
11991TIP3   OH257387   0.000   2.794   3.658  0.3029  0.0365  0.1833
11991TIP3    H157388  -0.070   2.833   3.607 -0.3000 -1.2765 -0.0237
11991TIP3    H257389   0.074   2.788   3.597  0.3374  0.6940  0.1663
11992TIP3   OH257390   0.046   4.990  14.830 -0.2586 -0.2791  0.4041
11992TIP3    H157391   0.026   5.009  14.738 -0.8688 -0.3024  0.5286
11992TIP3    H257392  -0.032   4.946  14.863 -0.1214 -0.0907  0.9909
11993TIP3   OH257393   1.010   2.253   5.255 -0.7380  0.1600  0.1187
11993TIP3    H157394   1.027   2.288   5.168  0.0078  1.0489  0.6135
11993TIP3    H257395   1.010   2.330   5.312  1.4340 -0.6899  1.2993
11994TIP3   OH257396   0.772   4.326  12.198 -0.1774  0.0276  0.1257
11994TIP3    H157397   0.800   4.355  12.111  1.2728 -1.4017  0.0904
11994TIP3    H257398   0.813   4.388  12.258  0.5451 -0.2229 -0.1049
11995TIP3   OH257399   0.914   6.463   5.347 -0.9750 -0.2670 -0.4191
11995TIP3    H157400   0.844   6.419   5.299 -0.7679 -2.5148  1.2314
11995TIP3    H257401   0.876   6.544   5.378 -2.5715 -1.0353 -0.3376
11996TIP3   OH257402   3.416   5.895  14.044 -0.2982  0.2349  0.3633
11996TIP3    H157403   3.349   5.841  14.085  1.0965 -0.8612  1.2537
11996TIP3    H257404   3.439   5.848  13.963  1.1532 -0.7234  1.3040
11997TIP3   OH257405   3.074   1.465   0.086  0.5140  0.0788  0.5173
11997TIP3    H157406   3.157   1.512   0.085  0.9230 -0.6191  1.0790
11997TIP3    H257407   3.011   1.526   0.048  1.0297  1.0893  1.2613
11998TIP3   OH257408   6.759   6.645  10.696 -0.3992 -0.1814  0.3748
11998TIP3    H157409   6.786   6.729  10.733 -0.0484 -1.0027  2.0739
11998TIP3    H257410   6.810   6.635  10.616 -0.2505  1.0933  0.3089
11999TIP3   OH257411   3.022   0.508  14.808  0.1918  0.1782 -0.5172
11999TIP3    H157412   2.981   0.464  14.734 -0.7746  0.0977  0.0563
11999TIP3    H257413   2.983   0.595  14.809  0.2495  0.2011 -0.1381
12000TIP3   OH257414   0.263   0.324  14.658 -0.8433 -0.6797  0.1610
12000TIP3    H157415   0.234   0.310  14.567 -2.6131 -0.0906  0.6073
12000TIP3    H257416   0.331   0.258  14.672  0.2930 -0.0248 -1.9607
12001TIP3   OH257417   0.617   5.899   2.195 -0.1798  0.3611  0.0902
12001TIP3    H157418   0.703   5.937   2.215 -0.5045 -0.0690  2.3995
12001TIP3    H257419   0.629   5.858   2.109  1.2080  2.4869 -0.7687
12002TIP3   OH257420   0.356   0.261  14.982  0.0817  0.0960  0.1945
12002TIP3    H157421   0.268   0.231  14.961 -0.2743  0.9177  0.4944
12002TIP3    H257422   0.400   0.270  14.897 -0.7177  1.4708 -0.0902
12003TIP3   OH257423   4.794   5.299   6.493 -0.3569  0.1159  0.3690
12003TIP3    H157424   4.877   5.277   6.536  0.3317  1.2609 -0.3175
12003TIP3    H257425   4.802   5.392   6.473 -2.1322  0.4152  0.9571
12004TIP3   OH257426   1.266   6.404  16.147 -0.3611  0.1836 -0.2769
12004TIP3    H157427   1.180   6.385  16.110 -0.6037 -1.8011  1.2094
12004TIP3    H257428   1.323   6.336  16.111  0.4378  1.0628 -0.6900
12005TIP3   OH257429   5.964   5.074  12.439  0.6532 -0.5174 -0.0135
12005TIP3    H157430   6.055   5.082  12.411  0.4291 -0.6603 -0.7969
12005TIP3    H257431   5.926   5.008  12.381  0.4401 -1.5671  1.2944
12006TIP3   OH257432   1.213   0.784  13.221  0.0024 -0.4425 -0.1925
12006TIP3    H157433   1.239   0.696  13.194  2.0579 -0.3022  1.2161
12006TIP3    H257434   1.269   0.842  13.168 -1.0889  0.0227 -0.8536
12007TIP3   OH257435   5.634   4.188   4.469  0.2045  0.8471  0.0186
12007TIP3    H157436   5.574   4.263   4.467  0.4831  1.0472 -0.7326
12007TIP3    H257437   5.636   4.156   4.380 -0.5432 -0.5745  0.5009
12008TIP3   OH257438   2.675   3.279  12.225  0.6135 -0.1963  0.4150
12008TIP3    H157439   2.705   3.228  12.300  1.1660 -0.6138 -0.0776
12008TIP3    H257440   2.747   3.338  12.205 -0.1349  0.9826  1.1500
12009TIP3   OH257441   6.047   1.517   0.503 -0.1459  0.2783 -0.3196
12009TIP3    H157442   5.953   1.498   0.506 -0.3871  1.5374  0.3406
12009TIP3    H257443   6.083   1.473   0.580 -0.0530 -0.9173 -1.0376
12010TIP3   OH257444   0.506   4.026  15.266 -0.0905  0.2661  0.0857
12010TIP3    H157445   0.576   4.032  15.201  1.2892 -0.0170  1.5151
12010TIP3    H257446   0.431   4.066  15.223  0.7521 -0.0105 -1.7267
12011TIP3   OH257447   1.896   5.624   2.961  0.0041 -0.1229  0.3918
12011TIP3    H157448   1.914   5.716   2.982  1.0250 -0.6438  1.8584
12011TIP3    H257449   1.923   5.614   2.870  2.5570  0.3545  1.0566
12012TIP3   OH257450   5.280   2.017  12.542  0.3668  0.7762  0.0205
12012TIP3    H157451   5.288   2.110  12.520 -1.6085  0.5624 -1.7392
12012TIP3    H257452   5.330   1.972  12.473  0.0679  0.4483  0.0190
12013TIP3   OH257453   5.522   6.572   0.886  0.6512 -0.1609 -0.2957
12013TIP3    H157454   5.466   6.648   0.869  0.0373 -0.4773  0.3262
12013TIP3    H257455   5.606   6.596   0.846 -0.0167  0.1752 -1.5366
12014TIP3   OH257456   1.821   2.183  15.502 -0.3746 -0.5941  0.1399
12014TIP3    H157457   1.791   2.102  15.460 -1.6169 -0.5353  0.8984
12014TIP3    H257458   1.895   2.155  15.557 -0.4065 -1.1099 -0.0735
12015TIP3   OH257459   5.588   2.987   3.980 -0.0061  0.2054  0.3705
12015TIP3    H157460   5.538   2.954   3.906 -0.0088  0.0084  0.4604
12015TIP3    H257461   5.679   2.984   3.951 -0.1588  2.1262 -0.4119
12016TIP3   OH257462   1.785   5.353  12.006 -0.0230 -0.6913 -0.2065
12016TIP3    H157463   1.733   5.342  12.087 -0.4611 -2.4896 -0.7033
12016TIP3    H257464   1.876   5.356  12.036 -0.3086  0.7557  0.5320
12017TIP3   OH257465   2.317   6.100  16.320 -0.4450  0.1506  0.6278
12017TIP3    H157466   2.300   6.189  16.350 -2.4778 -0.2592  0.7617
12017TIP3    H257467   2.336   6.051  16.400  0.6198  0.4491  0.5594
12018TIP3   OH257468   1.657   1.592  15.063 -0.0339  0.2102 -0.3926
12018TIP3    H157469   1.566   1.615  15.079 -0.2300 -0.7650 -0.0460
12018TIP3    H257470   1.700   1.675  15.041 -1.0164  0.6557 -0.6402
12019TIP3   OH257471   2.314   2.506   2.421 -0.3409 -0.5025 -0.1871
12019TIP3    H157472   2.218   2.504   2.428 -0.5112  1.3361 -1.7463
12019TIP3    H257473   2.344   2.539   2.506 -1.1635  0.2747 -0.1966
12020TIP3   OH257474   6.406   1.910   3.846 -0.1114  0.5637 -0.2928
12020TIP3    H157475   6.478   1.869   3.799  1.1521  0.2864  1.8186
12020TIP3    H257476   6.429   2.003   3.849 -0.1006  0.5532 -0.0556
12021TIP3   OH257477   5.240   4.450  16.524  0.0930 -0.3045 -0.7732
12021TIP3    H157478   5.191   4.513  16.577  0.8154 -0.8173  0.5100
12021TIP3    H257479   5.173   4.410  16.468 -0.6144  0.4977 -0.5234
12022TIP3   OH257480   6.414   5.604   1.140  0.1374  0.3259 -0.6673
12022TIP3    H157481   6.426   5.692   1.105  0.4407  0.7032  0.3527
12022TIP3    H257482   6.335   5.611   1.194  1.5763  0.6404  1.4614
12023TIP3   OH257483   0.818   5.907   0.101  0.5634 -0.2194 -0.0838
12023TIP3    H157484   0.820   5.959   0.181 -0.9818 -1.8009  1.0313
12023TIP3    H257485   0.885   5.840   0.114 -0.4357 -1.1403  0.3710
12024TIP3   OH257486   0.728   1.074   5.438  0.2781 -0.1397  0.2976
12024TIP3    H157487   0.816   1.039   5.420  0.6665  0.7434  0.4322
12024TIP3    H257488   0.735   1.112   5.525 -0.1760  0.1404  0.2115
12025TIP3   OH257489   5.440   5.263  14.611  0.2795  0.0859 -0.1460
12025TIP3    H157490   5.427   5.356  14.594 -0.3313  0.0212 -0.0242
12025TIP3    H257491   5.535   5.251  14.607  0.4886  1.0309  1.4205
12026TIP3   OH257492   6.559   5.905  17.122  0.5914  0.0132 -0.2530
12026TIP3    H157493   6.464   5.897  17.116  0.6827 -1.5284  0.1952
12026TIP3    H257494   6.580   5.883  17.212  1.3954  0.2098 -0.3872
12027TIP3   OH257495   5.729   2.256   4.999  0.2432 -0.5662  0.3554
12027TIP3    H157496   5.669   2.219   5.064 -1.4043  2.4408  0.6303
12027TIP3    H257497   5.799   2.295   5.051  0.1774 -0.2713  0.2225
12028TIP3   OH257498   6.153   6.274   5.701 -0.0181 -0.0486  0.0534
12028TIP3    H157499   6.221   6.336   5.730  1.4292 -1.1996 -0.7776
12028TIP3    H257500   6.163   6.199   5.760 -1.1756  0.1518  0.5009
12029TIP3   OH257501   5.286   3.037   6.370  0.2279  0.1100 -0.2440
12029TIP3    H157502   5.234   3.016   6.448  0.2269 -1.0839 -0.5521
12029TIP3    H257503   5.256   2.974   6.304  0.3223  1.0223 -1.1729
12030TIP3   OH257504   5.964   6.487  13.603 -0.7811 -0.3114 -0.5725
12030TIP3    H157505   6.024   6.421  13.569 -1.2592 -0.7267 -0.6150
12030TIP3    H257506   6.010   6.570  13.589 -0.6323 -0.5418 -1.5011
12031TIP3   OH257507   0.402   3.373   5.454  0.6746 -0.3739  0.4034
12031TIP3    H157508   0.332   3.308   5.463  0.5928 -0.4333 -0.6370
12031TIP3    H257509   0.359   3.457   5.472  0.0982 -0.3019 -1.2530
12032TIP3   OH257510   3.193   2.202  13.345 -0.1217 -0.0926 -0.2218
12032TIP3    H157511   3.254   2.235  13.412  2.8280 -2.2351 -1.7074
12032TIP3    H257512   3.167   2.116  13.378 -0.7534 -0.0380 -0.5729
12033TIP3   OH257513   3.865   4.667  14.491  0.3274  0.2433  0.5900
12033TIP3    H157514   3.919   4.640  14.416 -0.6993 -1.8458  0.5642
12033TIP3    H257515   3.901   4.751  14.517  2.0271  0.0364 -0.9730
12034TIP3   OH257516   0.536   6.074   5.012  0.4911  0.7449  0.3530
12034TIP3    H157517   0.613   6.030   5.050  0.7161  2.0631  1.4585
12034TIP3    H257518   0.563   6.094   4.922  1.8459  2.1011  1.0310
12035TIP3   OH257519   6.489   2.276  12.291 -0.1214 -0.1710  0.4399
12035TIP3    H157520   6.410   2.234  12.257  0.0069 -0.0096 -0.0616
12035TIP3    H257521   6.493   2.250  12.383 -1.1086  0.3504  0.6338
12036TIP3   OH257522   3.949   2.702   5.004 -0.1926 -0.6940  0.0766
12036TIP3    H157523   3.919   2.617   5.036 -3.1443 -0.4925 -1.9492
12036TIP3    H257524   3.997   2.683   4.924  0.5502 -0.5686  0.4869
12037TIP3   OH257525   3.759   5.182  12.917  0.0054 -0.2313  0.1665
12037TIP3    H157526   3.668   5.162  12.894 -0.3342  0.1763  1.1399
12037TIP3    H257527   3.755   5.269  12.957  0.6917 -0.6260  1.1050
12038TIP3   OH257528   3.106   3.082  15.620  0.2698 -0.1383  0.0901
12038TIP3    H157529   3.107   3.120  15.708  0.7049 -0.6561  0.3129
12038TIP3    H257530   3.171   3.132  15.571  0.0697  0.1119  0.0802
12039TIP3   OH257531   5.456   4.026  11.394 -1.1111  0.2673 -0.1289
12039TIP3    H157532   5.415   3.942  11.414  0.2124 -0.5762 -0.8757
12039TIP3    H257533   5.488   4.016  11.304  0.3055  1.0598  0.2731
12040TIP3   OH257534   6.112   1.387  15.274  0.5744 -0.2850 -0.8559
12040TIP3    H157535   6.144   1.426  15.355 -1.4146 -1.2817  0.4599
12040TIP3    H257536   6.100   1.462  15.215  0.9245  0.6012  0.1762
12041TIP3   OH257537   0.740   6.550  15.475 -0.1702 -0.4672  0.7669
12041TIP3    H157538   0.767   6.501  15.552 -1.2725 -1.2170  0.7013
12041TIP3    H257539   0.658   6.592  15.501 -0.9822 -1.3960 -0.2392
12042TIP3   OH257540   0.217   6.633   2.042 -0.2604 -0.5174 -0.1157
12042TIP3    H157541   0.204   6.612   1.950  0.3405  1.2018 -0.6237
12042TIP3    H257542   0.189   6.725   2.049 -0.1356 -0.5874  1.3642
12043TIP3   OH257543   5.280   3.754  12.808  0.4228  0.7333  0.3347
12043TIP3    H157544   5.225   3.732  12.733  2.2239 -0.7371 -0.5869
12043TIP3    H257545   5.355   3.799  12.769  1.3339  0.0215  1.2543
12044TIP3   OH257546   5.046   5.688  13.141  0.1196 -0.1663 -0.0399
12044TIP3    H157547   5.053   5.592  13.139  1.7889 -0.0576 -0.0947
12044TIP3    H257548   5.042   5.714  13.049  0.4569 -0.1382 -0.0483
12045TIP3   OH257549   4.459   3.664   5.074 -0.1278  0.2669 -0.2479
12045TIP3    H157550   4.471   3.593   5.011  1.4015 -0.0401  0.3838
12045TIP3    H257551   4.456   3.743   5.020 -0.2500 -0.1300 -0.8244
12046TIP3   OH257552   3.644   4.876  14.406 -0.0498  0.1618 -0.5730
12046TIP3    H157553   3.689   4.882  14.490  0.6812  1.8895 -1.0760
12046TIP3    H257554   3.571   4.816  14.423  1.2153 -1.0208  0.7757
12047TIP3   OH257555   0.292   4.877  14.870 -0.5703 -0.3070  0.8473
12047TIP3    H157556   0.217   4.934  14.854  0.3451  0.5428 -0.4686
12047TIP3    H257557   0.353   4.931  14.921  1.5725  0.9487 -2.8848
12048TIP3   OH257558   6.110   2.643   2.530  0.2254 -0.1225 -0.2356
12048TIP3    H157559   6.158   2.593   2.464  1.5227  0.1858  0.4494
12048TIP3    H257560   6.108   2.586   2.606  0.4806  0.3008  0.0923
12049TIP3   OH257561   0.207   0.292   1.820 -0.6216 -0.0931 -0.0649
12049TIP3    H157562   0.208   0.353   1.746 -0.7947  1.3415  1.1021
12049TIP3    H257563   0.223   0.206   1.780  0.7193  0.8420 -1.5933
12050TIP3   OH257564   6.306   1.622   5.663  0.1206 -0.1780  0.0300
12050TIP3    H157565   6.347   1.595   5.746  0.7819  2.3035  0.5446
12050TIP3    H257566   6.362   1.692   5.630 -2.2476  1.4608 -0.6236
12051TIP3   OH257567   5.941   6.246   0.270  0.2761 -0.1883  0.4695
12051TIP3    H157568   5.984   6.326   0.301 -0.5555 -1.1617  4.3763
12051TIP3    H257569   5.902   6.271   0.187  2.6014  2.6113  0.1067
12052TIP3   OH257570   5.306   2.435   0.884 -0.8428 -0.0422 -0.4152
12052TIP3    H157571   5.245   2.365   0.861 -1.8324  0.4368  0.6883
12052TIP3    H257572   5.286   2.505   0.821 -0.4728 -0.4083 -0.9411
12053TIP3   OH257573   3.714   5.318  14.554  0.5245  0.3033  0.0490
12053TIP3    H157574   3.774   5.368  14.609  0.7024  1.5576 -1.2656
12053TIP3    H257575   3.692   5.241  14.607  2.4367  0.3601  0.9656
12054TIP3   OH257576   0.691   1.378   3.906  0.3709  0.1807 -0.3999
12054TIP3    H157577   0.644   1.369   3.989 -0.3649 -0.1952 -0.8506
12054TIP3    H257578   0.766   1.434   3.926  0.6610 -0.5823  0.7038
12055TIP3   OH257579   0.576   1.157  16.946 -0.1920 -0.3462 -0.4141
12055TIP3    H157580   0.586   1.131  16.854  1.3131 -0.6897 -0.1720
12055TIP3    H257581   0.666   1.159  16.979 -0.6467  0.8405  0.7617
12056TIP3   OH257582   2.604   4.196  16.022 -0.2427  0.2696 -0.7307
12056TIP3    H157583   2.692   4.213  16.055 -0.3350 -1.0129  0.2324
12056TIP3    H257584   2.546   4.248  16.078 -0.1345  0.7482 -1.0622
12057TIP3   OH257585   2.301   6.786  16.806  0.4410  0.0749  0.4721
12057TIP3    H157586   2.289   6.708  16.752  2.1119 -0.6153  1.0697
12057TIP3    H257587   2.384   6.824  16.776  1.4259 -0.3526  2.5859
12058TIP3   OH257588   5.476   6.424   2.439  0.0178 -0.1641 -0.4331
12058TIP3    H157589   5.466   6.426   2.344  0.6123 -0.0491 -0.4912
12058TIP3    H257590   5.499   6.333   2.459 -0.6528 -0.3172 -0.3435
12059TIP3   OH257591   4.228   3.917  15.550 -0.0323 -0.2446  0.2489
12059TIP3    H157592   4.148   3.882  15.588  1.0369 -0.7496  2.1276
12059TIP3    H257593   4.210   3.923  15.456 -1.5296 -2.2649  0.3805
12060TIP3   OH257594   5.019   0.762  13.823  0.1286 -0.7778 -0.6652
12060TIP3    H157595   4.983   0.844  13.857  0.5983 -1.1260  0.7058
12060TIP3    H257596   5.029   0.706  13.900  0.3946 -1.9045 -1.5025
12061TIP3   OH257597   3.763   1.054   5.089 -0.1495  0.2755  0.2133
12061TIP3    H157598   3.707   0.982   5.059  0.6824 -0.0413 -0.6080
12061TIP3    H257599   3.848   1.012   5.106  0.7345  1.2867 -1.5762
12062TIP3   OH257600   0.953   2.081  15.043 -0.4628  0.4173 -0.8288
12062TIP3    H157601   0.962   2.074  14.948 -1.6319 -3.1143 -0.7774
12062TIP3    H257602   0.866   2.044  15.061  0.2594 -0.1765  1.7019
12063TIP3   OH257603   6.333   4.898   6.290 -0.2185  0.2913  0.3337
12063TIP3    H157604   6.318   4.806   6.311 -0.1259  0.7643  2.5911
12063TIP3    H257605   6.246   4.933   6.272 -0.1564 -0.4421 -1.4390
12064TIP3   OH257606   1.023   4.941  13.148 -0.0649 -0.2928 -0.3258
12064TIP3    H157607   0.939   4.896  13.140  0.1044 -0.3410 -1.9299
12064TIP3    H257608   1.068   4.895  13.219 -0.5828 -1.5269 -0.7876
12065TIP3   OH257609   4.022   4.096   0.310 -0.4631  0.1065  0.2501
12065TIP3    H157610   4.012   4.025   0.374 -3.2128  1.3511  1.2607
12065TIP3    H257611   4.117   4.103   0.297  0.0544 -1.2896  2.9217
12066TIP3   OH257612   0.027   1.377   1.260 -0.0855 -0.5835 -0.3686
12066TIP3    H157613   0.086   1.374   1.184  0.0721 -0.5674 -0.2477
12066TIP3    H257614  -0.053   1.419   1.227 -0.7396 -2.3039 -1.0164
12067TIP3   OH257615   2.782   4.009   5.269  0.3218 -0.3229  0.1095
12067TIP3    H157616   2.743   4.042   5.189  1.3492  0.8733  0.0778
12067TIP3    H257617   2.762   4.075   5.335  3.6367  1.2026 -0.2725
12068TIP3   OH257618   6.706   0.747   1.229 -0.1064 -0.0942 -0.2579
12068TIP3    H157619   6.778   0.802   1.259 -0.1556  0.3555 -0.9667
12068TIP3    H257620   6.748   0.675   1.183 -0.0933 -0.0682 -0.2859
12069TIP3   OH257621   2.775   1.147  12.985 -0.3655 -0.2293 -0.3221
12069TIP3    H157622   2.856   1.098  12.971  0.3173  0.6557  0.4013
12069TIP3    H257623   2.790   1.195  13.066 -1.8205 -0.4366  0.0850
12070TIP3   OH257624   2.430   1.520  16.292 -0.4784  0.1367  0.0253
12070TIP3    H157625   2.397   1.565  16.214  1.4517  2.6377  0.5935
12070TIP3    H257626   2.497   1.579  16.327 -1.7129 -0.6547  3.9074
12071TIP3   OH257627   6.504   1.800   5.660 -0.1378 -0.1713  0.1495
12071TIP3    H157628   6.499   1.763   5.748  1.9041  1.1286  0.8505
12071TIP3    H257629   6.516   1.894   5.673  1.1216 -0.0683 -1.4862
12072TIP3   OH257630   4.990   0.870  16.865  0.0007 -0.4446 -0.3341
12072TIP3    H157631   4.988   0.919  16.782  1.0906  0.6398  0.2754
12072TIP3    H257632   4.981   0.779  16.838  2.4674 -0.3106 -1.8592
12073TIP3   OH257633   2.128   4.140  13.155  0.4011  0.1140  0.1093
12073TIP3    H157634   2.070   4.071  13.187 -0.5770 -1.2088 -4.1486
12073TIP3    H257635   2.209   4.128  13.203 -1.4110 -0.7906  3.0365
12074TIP3   OH257636   2.833   5.838  14.883  1.2479  0.3993  0.1860
12074TIP3    H157637   2.866   5.755  14.918  1.0838  0.3806  0.2966
12074TIP3    H257638   2.792   5.881  14.958 -0.1658 -0.1777 -0.2415
12075TIP3   OH257639   6.603   5.525   1.620  0.5974  0.3476 -0.7574
12075TIP3    H157640   6.671   5.473   1.663  0.9526  3.1786  2.2779
12075TIP3    H257641   6.521   5.488   1.652  0.7574 -0.4930 -1.2892
12076TIP3   OH257642   4.174   0.251  16.505  0.2143 -0.3312  0.1170
12076TIP3    H157643   4.200   0.286  16.590  1.0846 -0.3081 -0.1502
12076TIP3    H257644   4.153   0.159  16.523 -0.6786 -0.0485  0.5549
12077TIP3   OH257645   0.688   5.321   1.337 -0.1885  0.0108  0.4097
12077TIP3    H157646   0.623   5.365   1.392  0.5059  0.7824  0.6146
12077TIP3    H257647   0.724   5.390   1.282  0.9101 -0.2977  0.7305
12078TIP3   OH257648   3.805   1.103   3.113  0.4328  0.5273 -0.3537
12078TIP3    H157649   3.771   1.064   3.193  2.1433  0.0382  0.1629
12078TIP3    H257650   3.774   1.194   3.115  1.2834  0.8016  1.3808
12079TIP3   OH257651   5.100   5.577   5.855 -0.3964  0.1447  0.5124
12079TIP3    H157652   5.004   5.573   5.854 -0.3751  0.0129 -0.9418
12079TIP3    H257653   5.128   5.510   5.793  0.6492  0.2606  0.8477
12080TIP3   OH257654   2.662   5.164  13.697  0.0508 -0.2642  0.1730
12080TIP3    H157655   2.571   5.171  13.669  0.3395  1.3842 -0.4572
12080TIP3    H257656   2.667   5.083  13.746 -1.6948 -0.5112 -0.0503
12081TIP3   OH257657   0.386   1.415   4.419  0.0163 -0.1402  0.4066
12081TIP3    H157658   0.448   1.430   4.490  3.1095 -0.1700 -2.1894
12081TIP3    H257659   0.393   1.321   4.401  0.3068  0.1185 -0.8472
12082TIP3   OH257660   2.325   2.699  12.445  0.4216  0.0462 -0.3779
12082TIP3    H157661   2.242   2.689  12.493  1.4212 -1.0601  1.1737
12082TIP3    H257662   2.372   2.768  12.492  1.0587 -0.4620 -0.2604
12083TIP3   OH257663   0.475   5.880  14.041 -1.0779 -0.2388  0.1064
12083TIP3    H157664   0.542   5.884  13.973 -0.5865 -0.1085  0.5893
12083TIP3    H257665   0.456   5.787  14.050 -0.0046 -0.3947  0.8784
12084TIP3   OH257666   3.150   6.051  11.125 -0.5458 -0.5345 -0.1332
12084TIP3    H157667   3.220   6.102  11.164  0.1482 -1.8128  0.3361
12084TIP3    H257668   3.195   5.985  11.072 -1.3548 -1.7637  0.6777
12085TIP3   OH257669   1.155   1.667   5.289 -0.2801 -0.1656  0.6820
12085TIP3    H157670   1.082   1.725   5.313 -0.0836  0.9383 -1.2346
12085TIP3    H257671   1.227   1.693   5.346 -0.1934  1.5140 -0.1731
12086TIP3   OH257672   3.921   4.582   3.719 -0.1445 -0.4355 -0.1403
12086TIP3    H157673   3.965   4.610   3.798  1.1818  0.0641 -1.0476
12086TIP3    H257674   3.979   4.608   3.648 -1.7526 -0.0413 -1.3368
12087TIP3   OH257675   1.708   5.713  13.933 -0.2478 -0.4638 -0.1399
12087TIP3    H157676   1.657   5.788  13.903  0.1695 -0.6458 -1.3356
12087TIP3    H257677   1.791   5.719  13.885  0.6054 -0.5266  1.2995
12088TIP3   OH257678   4.097   3.438  14.625  0.5933 -0.0179  0.3805
12088TIP3    H157679   4.098   3.352  14.583 -1.3721 -0.2156  0.7337
12088TIP3    H257680   4.047   3.493  14.565  1.3825  0.7521  0.4274
12089TIP3   OH257681   1.627   6.621  10.533 -0.5873  0.2366 -0.2852
12089TIP3    H157682   1.642   6.527  10.518  1.0624  0.2297  1.3665
12089TIP3    H257683   1.546   6.623  10.584 -0.1220 -0.3390  0.4843
12090TIP3   OH257684   4.026   0.796   0.766 -0.1960  0.4019  0.1695
12090TIP3    H157685   4.058   0.756   0.847  1.6329  2.1253  0.3244
12090TIP3    H257686   4.076   0.753   0.696  0.2576  0.9343  0.1692
12091TIP3   OH257687   3.089   1.185  15.592 -0.5609 -0.0061  0.2299
12091TIP3    H157688   3.106   1.119  15.659 -2.2368 -0.9041 -0.1841
12091TIP3    H257689   2.997   1.171  15.568 -0.6535  1.8294 -0.5840
12092TIP3   OH257690   1.430   1.420  15.213  0.0664 -0.7535  0.3562
12092TIP3    H157691   1.401   1.509  15.191 -1.0856 -1.3165 -0.4557
12092TIP3    H257692   1.472   1.388  15.133  1.6714 -0.4844  1.0612
12093TIP3   OH257693   1.824   1.280  12.738  0.2442  0.1503 -0.0567
12093TIP3    H157694   1.735   1.246  12.734  0.9244 -1.6497 -0.2077
12093TIP3    H257695   1.860   1.244  12.819  0.6683  1.3335  0.2965
12094TIP3   OH257696   6.421   4.412   4.031 -0.1668  0.3793  0.3373
12094TIP3    H157697   6.490   4.461   4.075 -0.2929  0.2453  0.6861
12094TIP3    H257698   6.358   4.392   4.100 -0.5138  0.4325  0.0359
12095TIP3   OH257699   4.125   1.810  14.356  0.2021 -0.7611 -0.5167
12095TIP3    H157700   4.086   1.858  14.282 -0.9960 -3.0215 -1.3994
12095TIP3    H257701   4.186   1.749  14.315  0.6789 -0.9657  0.4961
12096TIP3   OH257702   2.365   4.237   2.689  0.4928  0.0155 -0.4469
12096TIP3    H157703   2.382   4.281   2.773 -0.1028  0.2324 -0.4318
12096TIP3    H257704   2.273   4.211   2.695  0.8530 -1.2480 -0.4540
12097TIP3   OH257705   3.889   4.987  15.917 -0.1306  0.0666 -0.2707
12097TIP3    H157706   3.920   4.919  15.856 -1.8030 -1.7189  0.8284
12097TIP3    H257707   3.794   4.988  15.906 -0.0147  3.9802 -2.0191
12098TIP3   OH257708   2.058   4.377  15.053 -0.1735  0.0371  0.6850
12098TIP3    H157709   2.065   4.303  15.114 -0.1593 -0.3427  0.2219
12098TIP3    H257710   2.148   4.410  15.045  0.5702 -2.4860 -2.3220
12099TIP3   OH257711   2.553   3.878  13.763 -0.2295 -0.5157 -0.6070
12099TIP3    H157712   2.541   3.801  13.819 -2.4259 -0.7148 -1.3064
12099TIP3    H257713   2.464   3.911  13.749  0.6661  2.0629 -0.4555
12100TIP3   OH257714   5.628   3.109  13.641 -0.0896 -0.5297  0.5983
12100TIP3    H157715   5.700   3.173  13.639 -0.9766  0.4812  0.7658
12100TIP3    H257716   5.669   3.028  13.670  0.6882  0.4370  2.2492
12101TIP3   OH257717   5.397   4.228  16.864 -0.5577 -0.4678  0.1267
12101TIP3    H157718   5.444   4.280  16.799 -0.4149 -1.6128 -0.6992
12101TIP3    H257719   5.460   4.216  16.935 -0.5449  0.3594  0.2639
12102TIP3   OH257720   4.018   4.418  11.856 -0.0135  0.2004  0.1919
12102TIP3    H157721   4.059   4.464  11.928 -2.6488  1.9572  0.6350
12102TIP3    H257722   4.056   4.458  11.777  0.3545  0.6366  0.5874
12103TIP3   OH257723   4.453   3.446   3.687 -0.2765 -0.0664  0.1955
12103TIP3    H157724   4.415   3.510   3.747 -0.0426 -0.3653  0.6634
12103TIP3    H257725   4.456   3.364   3.737 -3.6385 -1.2934 -1.4377
12104TIP3   OH257726   1.525   3.869  17.014  0.1139 -0.1021  0.4986
12104TIP3    H157727   1.599   3.823  16.974 -0.9531 -2.3515  1.0255
12104TIP3    H257728   1.521   3.952  16.967  0.0983 -1.8600 -2.7935
12105TIP3   OH257729   6.380   2.103  13.267  0.1825  0.5116  0.3285
12105TIP3    H157730   6.456   2.160  13.282 -0.4766  0.9013  2.4431
12105TIP3    H257731   6.305   2.162  13.272 -0.4621 -0.4019  1.8532
12106TIP3   OH257732   5.709   6.127  15.245 -0.5825  0.0411  0.0454
12106TIP3    H157733   5.754   6.144  15.162 -0.1641 -1.0667  0.0389
12106TIP3    H257734   5.729   6.036  15.265 -1.4985  0.0115  0.8685
12107TIP3   OH257735   0.325   4.679  13.912  0.3431  0.3781  0.0134
12107TIP3    H157736   0.233   4.702  13.900  0.2099  0.5265  1.2544
12107TIP3    H257737   0.324   4.606  13.973  1.0648  0.5603  0.2454
12108TIP3   OH257738   0.291   4.022   0.234  0.1837 -0.5508 -0.0311
12108TIP3    H157739   0.310   3.995   0.324 -0.9799  0.1643  0.4222
12108TIP3    H257740   0.229   3.957   0.202 -1.2297  0.5369  0.4682
12109TIP3   OH257741   3.761   5.072   5.314  0.0063  0.4261  0.4603
12109TIP3    H157742   3.830   5.134   5.290  1.4776 -0.8250  1.3693
12109TIP3    H257743   3.726   5.107   5.396 -2.2120  2.4358 -1.2564
12110TIP3   OH257744   4.212   0.779  15.985  0.4984 -0.1237  0.4424
12110TIP3    H157745   4.297   0.799  16.026  1.0205  0.4249 -0.8842
12110TIP3    H257746   4.232   0.773  15.892 -0.4860 -2.3784  0.3401
12111TIP3   OH257747   6.219   1.258   1.227  0.0240  0.4752 -0.0854
12111TIP3    H157748   6.222   1.217   1.141  2.0607  0.9707 -0.2839
12111TIP3    H257749   6.238   1.187   1.289  0.2135  0.4576 -0.1653
12112TIP3   OH257750   2.485   1.956  15.993 -0.5008 -0.1581 -0.0486
12112TIP3    H157751   2.462   1.987  16.080  0.7226  0.0448  0.2133
12112TIP3    H257752   2.416   1.990  15.936 -0.2553  1.3625  0.5411
12113TIP3   OH257753   0.052   0.605   5.508  0.2302 -0.0983 -0.4245
12113TIP3    H157754   0.133   0.646   5.539  0.1823 -1.4542  1.5628
12113TIP3    H257755  -0.013   0.627   5.575 -0.5996 -0.5664 -1.0693
12114TIP3   OH257756   5.212   1.974  12.821  0.6488 -0.3151 -0.5548
12114TIP3    H157757   5.236   1.989  12.730  0.7675 -1.7545 -0.7757
12114TIP3    H257758   5.123   2.008  12.828  0.8200  0.2483 -1.0798
12115TIP3   OH257759   3.953   2.969   1.946  0.3766 -0.0209  0.2282
12115TIP3    H157760   3.957   2.874   1.955  0.1365  0.0688  1.3516
12115TIP3    H257761   3.905   2.984   1.864  1.1617 -0.8641 -0.4021
12116TIP3   OH257762   1.517   3.100   4.873  0.2211 -0.2155 -0.4859
12116TIP3    H157763   1.601   3.097   4.827  0.1723 -1.3951 -0.5049
12116TIP3    H257764   1.452   3.115   4.804  0.2451 -1.0124 -0.6820
12117TIP3   OH257765   0.401   0.207   1.478  0.5003 -0.0449 -0.1306
12117TIP3    H157766   0.466   0.270   1.445  0.0033  0.4879 -0.0978
12117TIP3    H257767   0.392   0.143   1.407  0.1586  0.5596 -0.6506
12118TIP3   OH257768   3.501   4.552  15.864  0.3673  0.1502 -0.1143
12118TIP3    H157769   3.510   4.538  15.958 -0.3963  0.1224 -0.0392
12118TIP3    H257770   3.581   4.596  15.839  1.6660 -2.0250  0.1020
12119TIP3   OH257771   4.791   2.487   4.593 -0.8543 -0.1228  0.0457
12119TIP3    H157772   4.767   2.416   4.534  0.7185  0.1657 -0.9567
12119TIP3    H257773   4.799   2.564   4.537 -0.6497  0.4412  0.8352
12120TIP3   OH257774   2.887   6.505  13.920 -0.2693  0.6925 -0.6637
12120TIP3    H157775   2.944   6.495  13.996 -0.5262 -1.0695 -0.6823
12120TIP3    H257776   2.837   6.584  13.938 -0.8689 -0.1186  1.3723
12121TIP3   OH257777   2.736   5.146  13.309  0.5425 -0.3842 -0.1772
12121TIP3    H157778   2.736   5.051  13.300  1.9299 -0.2929 -1.2182
12121TIP3    H257779   2.657   5.175  13.264 -0.5860 -1.1224  1.2617
12122TIP3   OH257780   6.288   1.256   2.695 -0.0387  0.5945 -0.3034
12122TIP3    H157781   6.242   1.215   2.622 -0.2303  0.2772 -0.0057
12122TIP3    H257782   6.226   1.252   2.768 -0.7675  3.0377 -0.7450
12123TIP3   OH257783   1.077   4.652  11.723 -0.0743  0.1552  0.4758
12123TIP3    H157784   1.050   4.662  11.632 -0.0312  0.3610  0.4855
12123TIP3    H257785   1.167   4.620  11.718  0.1433  0.7694  0.4473
12124TIP3   OH257786   0.387   2.641   4.009 -0.2210 -0.5143  0.0117
12124TIP3    H157787   0.441   2.610   4.081  1.5140  0.2839 -0.9287
12124TIP3    H257788   0.354   2.726   4.038  0.7340 -0.0495 -0.2540
12125TIP3   OH257789   5.004   5.063  11.910  0.3286 -0.3740  0.2006
12125TIP3    H157790   4.945   5.025  11.976  0.9067  0.7201  1.3788
12125TIP3    H257791   4.979   5.021  11.828 -1.0870 -1.0200  0.9485
12126TIP3   OH257792   1.846   6.116  14.341  0.4747  0.0703 -0.3843
12126TIP3    H157793   1.773   6.178  14.343 -1.5882 -2.2885 -0.0379
12126TIP3    H257794   1.915   6.163  14.294 -0.3984  3.2252  1.2807
12127TIP3   OH257795   5.394   0.820   3.512 -0.0281  0.7918  0.1367
12127TIP3    H157796   5.450   0.753   3.475  0.3434  0.4560  1.2808
12127TIP3    H257797   5.396   0.892   3.449  2.0292  0.9562  0.3665
12128TIP3   OH257798   1.448   1.354  11.115  0.4376 -0.2137  0.3788
12128TIP3    H157799   1.426   1.442  11.146  0.3296  0.0118 -0.3250
12128TIP3    H257800   1.387   1.297  11.162 -0.6551  0.2628 -0.4364
12129TIP3   OH257801   3.190   0.087  14.630  0.0116 -0.9380  0.0545
12129TIP3    H157802   3.105   0.086  14.673 -0.1453 -0.4671 -0.2425
12129TIP3    H257803   3.170   0.103  14.537  0.4674 -0.0411  0.1035
12130TIP3   OH257804   0.445   2.322   0.833  0.5525 -0.2849  0.1877
12130TIP3    H157805   0.488   2.396   0.876  0.4033 -1.1138  1.8044
12130TIP3    H257806   0.481   2.321   0.744  2.2207  0.3600  0.8366
12131TIP3   OH257807   3.679   1.302  11.710 -0.6824 -0.0370 -0.4704
12131TIP3    H157808   3.592   1.269  11.685 -0.5116 -1.4573  0.7614
12131TIP3    H257809   3.738   1.262  11.646 -0.8649  0.5626 -1.0242
12132TIP3   OH257810   4.449   2.548   2.802 -0.1538  0.4493  0.9208
12132TIP3    H157811   4.472   2.599   2.880 -0.6141 -0.3175  1.5620
12132TIP3    H257812   4.358   2.573   2.783 -0.7917 -1.0169  1.9528
12133TIP3   OH257813   1.892   6.552  14.056 -0.1331 -0.1436  0.0894
12133TIP3    H157814   1.846   6.506  13.985 -0.4921 -0.1326  0.3112
12133TIP3    H257815   1.979   6.569  14.021  0.3175 -1.8088  0.3342
12134TIP3   OH257816   2.649   1.564  13.314  0.3591 -0.0344  0.2268
12134TIP3    H157817   2.667   1.474  13.286  0.2604  0.0701 -0.1738
12134TIP3    H257818   2.562   1.559  13.355  0.9552 -0.3878  1.4670
12135TIP3   OH257819   5.572   3.308   1.718 -0.3285  0.1973  0.5120
12135TIP3    H157820   5.646   3.305   1.657 -0.0800  0.5689  0.7956
12135TIP3    H257821   5.536   3.396   1.707 -1.1749 -0.2120 -0.1470
12136TIP3   OH257822   0.841   5.052  14.090 -0.5679 -0.3861  0.1984
12136TIP3    H157823   0.835   4.960  14.062  0.5646  0.0703 -1.6273
12136TIP3    H257824   0.928   5.058  14.130  0.6279  0.5363 -2.3687
12137TIP3   OH257825   5.267   1.272   2.164  0.4804 -0.4229 -0.2388
12137TIP3    H157826   5.228   1.305   2.245  0.0076 -3.3920  0.8269
12137TIP3    H257827   5.250   1.178   2.166  0.9817 -0.6519 -3.5311
12138TIP3   OH257828   4.202   6.446  13.216  0.6306  0.0751  0.5828
12138TIP3    H157829   4.163   6.532  13.202 -1.2179 -0.7688  0.5363
12138TIP3    H257830   4.239   6.451  13.304  1.2717  1.1669  0.2759
12139TIP3   OH257831   5.558   2.876  11.770 -0.1821 -0.2409 -0.3046
12139TIP3    H157832   5.487   2.812  11.761 -0.1163 -0.3594  0.0318
12139TIP3    H257833   5.523   2.955  11.728 -0.0677 -0.6432 -1.1683
12140TIP3   OH257834   1.831   1.100  14.568 -0.4702 -0.5148 -0.1464
12140TIP3    H157835   1.921   1.106  14.536 -0.2404  0.6308  0.6712
12140TIP3    H257836   1.786   1.173  14.525 -0.5686 -0.0115  0.7874
12141TIP3   OH257837   3.162   2.150   0.342  0.4052 -0.4407 -0.1261
12141TIP3    H157838   3.238   2.209   0.347 -1.5908  2.1510  0.5657
12141TIP3    H257839   3.147   2.123   0.432  0.0710 -0.3978 -0.1696
12142TIP3   OH257840   0.102   2.403  10.463 -0.4683  0.2447 -0.0659
12142TIP3    H157841   0.014   2.365  10.466 -0.7184  0.9166  1.3801
12142TIP3    H257842   0.088   2.497  10.473  0.4320  0.3176  0.5589
12143TIP3   OH257843   2.658   1.638   5.828  0.2313 -0.3928  0.1555
12143TIP3    H157844   2.618   1.724   5.813 -1.3602 -0.9733  0.9053
12143TIP3    H257845   2.673   1.634   5.922 -0.3791 -1.2081  0.2264
12144TIP3   OH257846   0.439   5.598   2.274  0.0931 -0.6262 -0.0905
12144TIP3    H157847   0.470   5.511   2.298 -1.3539 -0.8422  1.1100
12144TIP3    H257848   0.378   5.622   2.344  0.0170  1.1029 -0.7110
12145TIP3   OH257849   4.716   5.347   6.187 -0.0231 -0.1019 -0.0636
12145TIP3    H157850   4.685   5.435   6.208 -2.1176 -0.6883 -0.6088
12145TIP3    H257851   4.717   5.301   6.271 -0.0355  0.0825  0.0381
12146TIP3   OH257852   2.198   4.343  17.089  0.1205  0.1682 -0.2101
12146TIP3    H157853   2.258   4.384  17.151 -1.2127  0.5681  0.8387
12146TIP3    H257854   2.117   4.393  17.097 -1.8415 -3.1692  1.7320
12147TIP3   OH257855   6.787   2.785   0.602  0.0370 -0.1049 -0.1503
12147TIP3    H157856   6.845   2.857   0.578  0.1779  0.0795  0.7167
12147TIP3    H257857   6.845   2.710   0.612 -0.4040 -0.9543 -3.4846
12148TIP3   OH257858   0.559   6.378  15.308 -0.0505  0.0398 -0.5692
12148TIP3    H157859   0.552   6.411  15.219 -1.2489  1.2161 -0.0560
12148TIP3    H257860   0.605   6.447  15.356  1.5422 -1.0443 -0.4964
12149TIP3   OH257861   3.702   2.150   3.205 -0.2476 -0.2620  0.6095
12149TIP3    H157862   3.698   2.074   3.146 -1.2615 -2.1013  2.9756
12149TIP3    H257863   3.737   2.220   3.150  0.9919 -2.4875 -1.5785
12150TIP3   OH257864   0.595   0.396  14.570 -0.2369  0.6435 -0.3837
12150TIP3    H157865   0.546   0.475  14.549  0.6166  0.4347 -3.2970
12150TIP3    H257866   0.599   0.347  14.488  3.0572 -0.3287  0.2898
12151TIP3   OH257867   5.438   6.363  16.264 -0.1381  0.2150 -0.2185
12151TIP3    H157868   5.377   6.356  16.338  0.4557  1.0058  0.3569
12151TIP3    H257869   5.524   6.347  16.302  0.0607 -0.4667 -0.9441
12152TIP3   OH257870   5.531   5.842   1.252  0.0892 -0.2285 -0.4491
12152TIP3    H157871   5.569   5.781   1.189 -0.6999 -1.1166 -0.0640
12152TIP3    H257872   5.508   5.788   1.328  0.8954  0.8012  0.5611
12153TIP3   OH257873   5.132   3.822  13.042  0.2554 -0.1839 -0.1586
12153TIP3    H157874   5.196   3.858  13.104  1.7029 -0.5410 -1.4405
12153TIP3    H257875   5.178   3.819  12.958 -1.1666 -1.2390 -0.9204
12154TIP3   OH257876   6.562   6.629   0.339 -0.9054 -0.2894 -0.0687
12154TIP3    H157877   6.581   6.565   0.408 -0.4787 -0.2845 -0.1776
12154TIP3    H257878   6.637   6.689   0.342 -1.3636  0.2818  0.1204
12155TIP3   OH257879   4.031   4.794  15.794 -0.1949  0.2297 -0.4287
12155TIP3    H157880   4.093   4.807  15.722  0.0431  1.4884 -0.0232
12155TIP3    H257881   4.087   4.783  15.871 -0.4587  2.6088  0.1349
12156TIP3   OH257882   0.797   5.080   0.596 -0.3736  0.1998  0.2247
12156TIP3    H157883   0.768   4.998   0.556 -2.6185  1.0191  0.0962
12156TIP3    H257884   0.887   5.092   0.564  0.4786 -2.8359  1.2800
12157TIP3   OH257885   2.374   6.094   3.992  0.5260 -0.0107  0.0082
12157TIP3    H157886   2.449   6.098   4.053 -0.1595 -2.7950  1.0985
12157TIP3    H257887   2.318   6.166   4.020  1.0410 -0.1906  1.5941
12158TIP3   OH257888   2.852   1.933  13.741  0.5201 -0.6959  0.3038
12158TIP3    H157889   2.832   1.989  13.666  0.4668 -0.4470  0.5028
12158TIP3    H257890   2.816   1.848  13.718 -0.6226 -0.2935  0.5965
12159TIP3   OH257891   4.936   0.467  17.222 -0.0474  0.4836 -0.3628
12159TIP3    H157892   4.864   0.504  17.171 -0.7645  1.6646  1.4627
12159TIP3    H257893   4.894   0.427  17.298  1.1067 -0.0159  0.0210
12160TIP3   OH257894   1.566   2.812   4.081  0.1420 -0.4375 -0.2828
12160TIP3    H157895   1.651   2.814   4.125 -0.5366  0.4396  1.0022
12160TIP3    H257896   1.573   2.881   4.014  0.1157  0.2659  0.4330
12161TIP3   OH257897   3.322   5.563  17.125 -0.4805 -0.3775 -0.8659
12161TIP3    H157898   3.289   5.576  17.214  1.5152  0.4059 -0.2155
12161TIP3    H257899   3.263   5.497  17.088 -1.6239 -0.3776  0.8671
12162TIP3   OH257900   3.954   0.691  10.680  0.3687  0.0026  0.4128
12162TIP3    H157901   3.925   0.712  10.769  0.9946  0.9171  0.4053
12162TIP3    H257902   3.873   0.675  10.631  0.0144 -0.3250  1.0939
12163TIP3   OH257903   6.059   2.659   2.178  0.0045 -0.2484  0.0224
12163TIP3    H157904   5.990   2.722   2.156  0.0480 -0.0137  0.5411
12163TIP3    H257905   6.095   2.631   2.093 -1.6640 -1.4339 -0.3136
12164TIP3   OH257906   4.823   4.502   4.026  0.4839 -0.0261 -0.1502
12164TIP3    H157907   4.904   4.552   4.014  1.1562 -1.0541  0.0815
12164TIP3    H257908   4.823   4.479   4.119  0.7479 -1.4168 -0.4868
12165TIP3   OH257909   1.542   1.677   4.370 -0.4988  0.3882  0.1144
12165TIP3    H157910   1.602   1.749   4.353  0.3614 -0.1726  0.7102
12165TIP3    H257911   1.459   1.705   4.333  0.6574  0.2723 -2.6910
12166TIP3   OH257912   5.814   1.575  16.869 -0.0363  1.1243  0.0395
12166TIP3    H157913   5.886   1.518  16.841 -0.2748  0.5194  0.6699
12166TIP3    H257914   5.774   1.603  16.787  0.9494  1.5080 -0.3226
12167TIP3   OH257915   3.413   1.085  13.852  0.8213  0.3595 -0.1241
12167TIP3    H157916   3.445   1.153  13.911 -0.6847  0.2432  0.8607
12167TIP3    H257917   3.325   1.065  13.884  0.7557 -1.1457 -1.1842
12168TIP3   OH257918   5.697   4.717   5.137  0.3920  0.7319 -0.1510
12168TIP3    H157919   5.659   4.759   5.215 -0.2658  0.5570 -0.3766
12168TIP3    H257920   5.622   4.691   5.084  0.8559  1.9500 -1.4363
12169TIP3   OH257921   3.040   1.035   1.326  0.7510  0.2868 -0.1011
12169TIP3    H157922   3.075   0.972   1.389 -1.5882 -0.2977  0.6444
12169TIP3    H257923   3.011   0.982   1.252 -0.3482  0.5574  0.1247
12170TIP3   OH257924   1.668   6.293   2.134 -0.1922  0.1769 -0.9869
12170TIP3    H157925   1.762   6.309   2.125 -0.1307 -0.1313 -0.9089
12170TIP3    H257926   1.631   6.379   2.152  0.0048  0.3882 -1.5741
12171TIP3   OH257927   0.466   4.184  12.761 -0.1972  0.4863 -0.0765
12171TIP3    H157928   0.491   4.214  12.848  0.1920  0.4184 -0.1590
12171TIP3    H257929   0.517   4.104  12.748 -1.2403 -0.2278  0.1583
12172TIP3   OH257930   3.907   5.958   4.636 -0.2759  0.5119 -0.0488
12172TIP3    H157931   3.898   5.994   4.547  0.8770  0.7277 -0.0887
12172TIP3    H257932   3.952   5.875   4.624 -0.7705  0.1977  0.2688
12173TIP3   OH257933   3.346   4.429   0.270  0.2532 -0.2247 -0.2468
12173TIP3    H157934   3.417   4.376   0.233 -0.1273 -0.3864 -0.7405
12173TIP3    H257935   3.288   4.448   0.196 -0.4088 -0.3879  0.2285
12174TIP3   OH257936   3.948   3.813  11.725 -0.7248  0.5449 -0.2978
12174TIP3    H157937   3.915   3.769  11.804  0.3537 -0.6299 -0.4816
12174TIP3    H257938   4.011   3.876  11.759  1.2978 -1.3988 -0.3095
12175TIP3   OH257939   1.968   2.797   2.858  0.0934  0.1467  0.3220
12175TIP3    H157940   1.991   2.826   2.770 -0.5581 -1.3321 -0.3493
12175TIP3    H257941   1.873   2.811   2.863  0.1531  0.3748  0.8495
12176TIP3   OH257942   3.745   2.892  16.851  0.4871 -0.0953  0.6097
12176TIP3    H157943   3.744   2.803  16.888 -0.4282 -0.3931 -0.1147
12176TIP3    H257944   3.658   2.926  16.870  0.2269 -0.0141 -0.7068
12177TIP3   OH257945   4.190   1.683   4.220 -0.3232  0.0077 -0.2969
12177TIP3    H157946   4.234   1.713   4.140 -0.7600 -0.9473 -0.9023
12177TIP3    H257947   4.252   1.621   4.259  0.1713  0.9630  0.4605
12178TIP3   OH257948   2.117   3.533  17.161  0.2018 -0.6130 -0.4713
12178TIP3    H157949   2.110   3.593  17.235 -1.2378  1.3093 -2.1221
12178TIP3    H257950   2.048   3.468  17.176  1.4898 -1.6661  1.0964
12179TIP3   OH257951   6.267   2.599   6.333 -0.7932 -0.4815  0.2905
12179TIP3    H157952   6.252   2.605   6.238 -1.6413  0.0723  0.4524
12179TIP3    H257953   6.353   2.640   6.346 -0.3357 -1.2410 -0.3290
12180TIP3   OH257954   3.875   0.785   3.287 -0.3299 -0.4096  0.0935
12180TIP3    H157955   3.850   0.754   3.200  1.0232 -1.3900  0.0231
12180TIP3    H257956   3.829   0.726   3.347 -1.0041  0.0595  0.0431
12181TIP3   OH257957   0.542   4.469  16.884  0.0629 -0.6553 -0.5902
12181TIP3    H157958   0.455   4.434  16.905 -0.1007 -1.0886 -1.9426
12181TIP3    H257959   0.559   4.439  16.795  1.0125  0.5782 -0.8422
12182TIP3   OH257960   5.760   2.726   3.991  0.0440  0.0034 -0.0743
12182TIP3    H157961   5.782   2.782   4.066  0.5527  1.4654 -1.3022
12182TIP3    H257962   5.705   2.657   4.028  0.2914  0.7127  1.6505
12183TIP3   OH257963   1.129   4.045   0.730  0.4234 -0.3625 -0.2210
12183TIP3    H157964   1.160   4.032   0.820 -2.6064 -0.9002  0.7784
12183TIP3    H257965   1.145   4.138   0.713  2.4956 -0.5910  0.2492
12184TIP3   OH257966   1.449   1.563   1.196 -0.0482 -0.1861 -0.3284
12184TIP3    H157967   1.543   1.549   1.191  0.0968  0.7387 -0.3474
12184TIP3    H257968   1.436   1.653   1.166 -0.8924 -0.1521  0.0950
12185TIP3   OH257969   4.140   0.119  11.154 -0.4196  0.8448 -0.9301
12185TIP3    H157970   4.051   0.093  11.130 -1.2746  3.6184 -0.9887
12185TIP3    H257971   4.181   0.144  11.072 -0.0524  0.9440 -0.7202
12186TIP3   OH257972   4.719   5.525   2.129  0.0535 -0.5453  0.5597
12186TIP3    H157973   4.695   5.550   2.040 -0.0571 -1.6548  0.2682
12186TIP3    H257974   4.794   5.467   2.117 -0.1304 -0.9096  1.1764
12187TIP3   OH257975   0.101   0.506  14.960 -0.1687 -0.2022  0.6784
12187TIP3    H157976   0.134   0.588  14.923  0.6238  0.1250  2.0637
12187TIP3    H257977   0.007   0.520  14.972 -0.3373 -0.1226 -0.6736
12188TIP3   OH257978   5.763   0.814  14.192 -0.6028  0.3033  0.1381
12188TIP3    H157979   5.812   0.836  14.112 -0.2844 -3.3736 -0.7736
12188TIP3    H257980   5.829   0.816  14.261 -0.1260  0.0679 -0.3002
12189TIP3   OH257981   4.738   4.139   6.162 -0.2755 -0.5618 -0.0520
12189TIP3    H157982   4.698   4.176   6.240  1.1307  0.6820  0.1134
12189TIP3    H257983   4.798   4.072   6.195  0.9304  0.5248  0.0334
12190TIP3   OH257984   0.720   6.679   0.507 -0.1602 -0.1456  0.6474
12190TIP3    H157985   0.672   6.725   0.437  0.4828 -0.2788  0.1175
12190TIP3    H257986   0.708   6.735   0.584  1.9015  1.7708 -0.3390
12191TIP3   OH257987   5.428   3.717   6.054 -0.7467 -0.4024  0.3931
12191TIP3    H157988   5.376   3.787   6.094 -0.7774 -0.1151 -0.1457
12191TIP3    H257989   5.408   3.722   5.961  1.7616  1.0270 -0.1091
12192TIP3   OH257990   5.313   5.401   0.479 -0.0434  0.1033 -0.2058
12192TIP3    H157991   5.249   5.471   0.489 -0.4486 -0.2761 -0.1565
12192TIP3    H257992   5.261   5.322   0.466  0.4325  0.0815 -2.1107
12193TIP3   OH257993   2.529   5.489  12.365 -0.2115 -0.0351  0.6822
12193TIP3    H157994   2.517   5.414  12.424 -2.9059 -1.3023 -1.3332
12193TIP3    H257995   2.454   5.546  12.383 -0.1035  0.4252 -0.2747
12194TIP3   OH257996   2.419   2.799  11.067 -0.1323  0.0860 -0.1394
12194TIP3    H157997   2.442   2.857  10.995  0.8736  1.1722  1.0182
12194TIP3    H257998   2.328   2.775  11.051 -0.0419  0.6516 -1.5354
12195TIP3   OH257999   2.199   3.104  12.211 -0.5898  0.1107  0.5913
12195TIP3    H158000   2.158   3.023  12.181  0.0196 -0.3183  0.9053
12195TIP3    H258001   2.126   3.164  12.225 -0.9941 -0.1675 -0.2957
12196TIP3   OH258002   1.221   4.385  16.056  0.8264  0.1647 -0.3671
12196TIP3    H158003   1.261   4.354  15.975 -0.2971  0.2419 -0.9459
12196TIP3    H258004   1.218   4.480  16.047  0.5676  0.1621 -0.2932
12197TIP3   OH258005   5.667   6.546   3.805  0.3818 -0.9239  0.2534
12197TIP3    H158006   5.725   6.495   3.862 -0.6040 -0.0664  2.0755
12197TIP3    H258007   5.705   6.634   3.805  0.5326 -0.9807 -0.6620
12198TIP3   OH258008   3.141   5.734  11.461 -0.0064 -0.6294 -0.2629
12198TIP3    H158009   3.212   5.672  11.479  0.8094  0.6165  0.9709
12198TIP3    H258010   3.174   5.788  11.390  0.5173  0.2778  0.6507
12199TIP3   OH258011   0.779   4.419   5.534  0.2653 -0.0208  0.0829
12199TIP3    H158012   0.848   4.420   5.601 -0.3971 -0.1199  0.7650
12199TIP3    H258013   0.802   4.492   5.476  1.2053 -0.3351  0.0429
12200TIP3   OH258014   3.805   1.917   5.019  0.1075  0.3528  0.1499
12200TIP3    H158015   3.850   1.999   4.997 -0.1119  0.6289  0.7317
12200TIP3    H258016   3.733   1.912   4.956  0.5814  0.2131 -0.3906
12201TIP3   OH258017   1.957   1.088   5.206 -0.0782  0.2669  0.2019
12201TIP3    H158018   1.957   1.022   5.275 -2.9130  1.0249  0.9821
12201TIP3    H258019   1.968   1.171   5.252 -3.7648  0.9474  0.0193
12202TIP3   OH258020   2.063   4.771  15.226  0.0638 -0.0584  0.1033
12202TIP3    H158021   2.069   4.865  15.241  0.4435  0.1176 -1.0694
12202TIP3    H258022   2.149   4.737  15.251 -0.2727 -0.1841  1.1029
12203TIP3   OH258023   6.371   6.729   6.221  0.0083  0.1158 -0.1225
12203TIP3    H158024   6.297   6.769   6.267 -0.5712 -0.4789 -0.5384
12203TIP3    H258025   6.448   6.770   6.261 -0.5425  0.8502  0.2083
12204TIP3   OH258026   5.419   5.737  13.802 -0.3187 -0.1525  0.0800
12204TIP3    H158027   5.414   5.804  13.734  1.6211  1.3114  1.3262
12204TIP3    H258028   5.476   5.670  13.766  0.0369  0.2246 -0.0557
12205TIP3   OH258029   0.051   5.675  17.169  0.0409 -0.1972 -0.2843
12205TIP3    H158030   0.031   5.597  17.118  0.7034 -0.8446  0.4256
12205TIP3    H258031  -0.033   5.716  17.185 -0.2002 -0.1163 -1.6842
12206TIP3   OH258032   1.169   0.157  12.177  0.4732 -0.0063  0.7988
12206TIP3    H158033   1.243   0.109  12.139  0.9282  1.0071  0.3889
12206TIP3    H258034   1.181   0.149  12.272  1.2297  0.3240  0.7338
12207TIP3   OH258035   3.132   0.514  12.642  0.1865  0.0057  0.1633
12207TIP3    H158036   3.182   0.447  12.688  0.2846 -0.4665 -0.6201
12207TIP3    H258037   3.140   0.491  12.549 -0.7548  0.4231 -0.0306
12208TIP3   OH258038   2.275   2.396  10.946 -0.5907 -0.3150 -0.0913
12208TIP3    H158039   2.196   2.431  10.904 -0.3174  0.3470 -0.0622
12208TIP3    H258040   2.293   2.315  10.899 -1.1950 -0.3798 -0.2099
12209TIP3   OH258041   3.984   3.548  16.016 -0.0004 -0.1522  0.1164
12209TIP3    H158042   4.001   3.457  15.993  0.1320  0.1259 -0.9398
12209TIP3    H258043   4.065   3.579  16.057 -0.8385 -1.1544  2.5976
12210TIP3   OH258044   3.959   2.700  12.194  0.3370  0.0074  0.7978
12210TIP3    H158045   3.867   2.704  12.168  0.4231  0.0237  0.4908
12210TIP3    H258046   4.001   2.768  12.142  0.8400 -1.1945 -0.4192
12211TIP3   OH258047   1.263   5.719   2.319  0.1384  0.3155  0.0812
12211TIP3    H158048   1.310   5.651   2.272  0.3803  0.2678  0.3915
12211TIP3    H258049   1.320   5.742   2.393 -0.1544  0.5161  0.2484
12212TIP3   OH258050   4.289   2.990   5.234  0.0078  0.2117 -0.0751
12212TIP3    H158051   4.247   2.919   5.185  0.3914  0.0823 -0.2190
12212TIP3    H258052   4.262   2.975   5.325  1.9124 -1.4663  0.2569
12213TIP3   OH258053   5.846   3.838  12.288  0.2500  0.3081  0.1808
12213TIP3    H158054   5.884   3.916  12.247  0.4537 -0.1250 -0.4614
12213TIP3    H258055   5.765   3.823  12.239  0.6181 -0.3584 -0.2174
12214TIP3   OH258056   1.044   1.745  14.578 -0.4889  0.2130 -0.3890
12214TIP3    H158057   0.949   1.734  14.576  0.0596 -5.9992 -0.1197
12214TIP3    H258058   1.069   1.726  14.668  1.1692  0.8007 -0.7027
12215TIP3   OH258059   6.710   6.547  10.986 -0.0001  0.0756  0.1434
12215TIP3    H158060   6.735   6.633  11.018  0.0433 -0.7275  2.3057
12215TIP3    H258061   6.687   6.562  10.894  1.2948  2.1370  0.1223
12216TIP3   OH258062   5.810   5.544  14.324  0.5452 -0.1262 -0.0672
12216TIP3    H158063   5.799   5.595  14.244  2.0218  2.0213  1.0630
12216TIP3    H258064   5.753   5.586  14.388  2.2411  0.5398  1.0457
12217TIP3   OH258065   5.032   5.442   2.705 -0.2750  0.0989 -0.2661
12217TIP3    H158066   5.055   5.354   2.734 -0.9940  0.3490  1.1187
12217TIP3    H258067   5.065   5.500   2.774 -0.5754  0.8319 -0.7319
12218TIP3   OH258068   1.470   5.418   6.407 -0.2995  0.0060 -0.2668
12218TIP3    H158069   1.436   5.386   6.491 -1.8338  1.2672 -0.3904
12218TIP3    H258070   1.440   5.353   6.343  0.3521 -0.6326  0.0648
12219TIP3   OH258071   0.788   4.551   1.715 -0.2419  0.0502 -0.9482
12219TIP3    H158072   0.801   4.610   1.641 -0.7887  1.2029 -0.1365
12219TIP3    H258073   0.736   4.601   1.777 -0.0971 -1.0357  0.0734
12220TIP3   OH258074   1.231   2.342  16.985 -0.7683  0.4290 -0.1474
12220TIP3    H158075   1.303   2.282  17.005 -2.4122 -2.1029 -1.5421
12220TIP3    H258076   1.240   2.359  16.891 -1.1894  1.1878 -0.0533
12221TIP3   OH258077   0.925   0.350  14.520  0.2862  0.0756  0.1365
12221TIP3    H158078   0.922   0.397  14.603  1.9481 -1.7041  1.2278
12221TIP3    H258079   0.997   0.289  14.529  1.5858  0.9760 -3.2447
12222TIP3   OH258080   4.758   2.135   2.199  0.0937 -0.0573 -0.1083
12222TIP3    H158081   4.664   2.118   2.209  0.5866 -0.8897  4.5821
12222TIP3    H258082   4.769   2.225   2.229  0.8496 -0.1286 -0.1718
12223TIP3   OH258083   1.897   1.840  11.231 -0.3628 -0.3170  0.7084
12223TIP3    H158084   1.947   1.835  11.313 -1.4861  1.3316  1.5444
12223TIP3    H258085   1.877   1.749  11.209  1.0114 -0.8538  1.6013
12224TIP3   OH258086   6.132   4.105   3.016  0.2714  0.1154  0.2384
12224TIP3    H158087   6.098   4.126   3.102 -0.7138  0.4085 -0.2202
12224TIP3    H258088   6.212   4.056   3.033 -1.4733 -2.4247  1.3189
12225TIP3   OH258089   6.645   1.729  14.389 -0.3011 -0.4444 -0.0486
12225TIP3    H158090   6.739   1.710  14.395  0.3117  2.3277  0.1651
12225TIP3    H258091   6.607   1.690  14.467  0.9145 -0.3563  0.5976
12226TIP3   OH258092   5.866   0.947  15.666  0.1387 -0.2064 -0.3900
12226TIP3    H158093   5.884   0.856  15.641  0.1690 -1.1483  2.8209
12226TIP3    H258094   5.775   0.947  15.696  0.2688  0.7357  0.0350
12227TIP3   OH258095   0.313   3.461   5.825  0.1543  0.2731  0.1389
12227TIP3    H158096   0.286   3.372   5.800 -0.2157 -0.6583  3.5277
12227TIP3    H258097   0.408   3.455   5.836  0.0540  0.0841  0.9904
12228TIP3   OH258098   5.611   0.714  15.487  0.3547  0.0671 -0.0829
12228TIP3    H158099   5.626   0.727  15.581 -1.3539  0.2452  0.1853
12228TIP3    H258100   5.689   0.669  15.456  1.4163  0.9763  1.2106
12229TIP3   OH258101   5.750   5.059   6.502 -0.6495  0.0876  0.4630
12229TIP3    H158102   5.841   5.036   6.485 -0.6621  0.4679 -0.1476
12229TIP3    H258103   5.749   5.155   6.500 -0.8359  0.1118  1.6720
12230TIP3   OH258104   3.147   3.050   5.909 -0.0200 -0.4540 -0.2069
12230TIP3    H158105   3.055   3.072   5.922 -0.1385 -0.1278 -1.4874
12230TIP3    H258106   3.184   3.045   5.997 -1.3689 -1.0735  0.3309
12231TIP3   OH258107   6.151   2.758  13.170 -0.9338 -0.3382  0.6607
12231TIP3    H158108   6.195   2.843  13.162 -0.4252 -0.4729  1.9264
12231TIP3    H258109   6.178   2.725  13.255 -3.1687 -0.6335  1.2854
12232TIP3   OH258110   1.470   3.437  15.193 -0.6821  0.4668  0.3820
12232TIP3    H158111   1.521   3.459  15.271  1.0415 -2.7901  0.2537
12232TIP3    H258112   1.487   3.508  15.131  2.5159  0.2027  0.9153
12233TIP3   OH258113   4.315   5.963  13.125  0.1235 -0.1202  0.3028
12233TIP3    H158114   4.393   5.996  13.082  3.0030 -1.9883  3.8170
12233TIP3    H258115   4.291   6.030  13.188 -0.1189 -0.2933  0.3976
12234TIP3   OH258116   2.783   5.127   0.528 -0.2161 -0.3939 -0.1000
12234TIP3    H158117   2.711   5.133   0.591 -1.4124  1.2789 -1.5856
12234TIP3    H258118   2.851   5.185   0.564 -1.6570  2.0875 -1.3113
12235TIP3   OH258119   2.635   1.814  14.515 -0.7298  0.2581  0.4662
12235TIP3    H158120   2.567   1.828  14.450 -1.1123  0.8502  0.9867
12235TIP3    H258121   2.664   1.724  14.502 -0.4095  0.5541 -0.8959
12236TIP3   OH258122   3.738   2.698  15.602 -0.0781  0.0352  0.4898
12236TIP3    H158123   3.754   2.603  15.603  0.8209  0.1908  1.1309
12236TIP3    H258124   3.825   2.737  15.595 -0.5046  0.8096 -0.6028
12237TIP3   OH258125   2.977   2.001   3.114  0.4108 -0.2121  0.0957
12237TIP3    H158126   3.005   1.937   3.180 -0.4403 -0.7930 -0.1034
12237TIP3    H258127   2.979   1.953   3.032  1.7910  0.6070 -0.3628
12238TIP3   OH258128   2.520   4.277  17.037 -0.2229  0.0407  0.0863
12238TIP3    H158129   2.555   4.322  16.960 -1.2988  0.9767  0.1339
12238TIP3    H258130   2.435   4.245  17.009 -0.4053 -0.0449  0.7309
12239TIP3   OH258131   3.084   0.548  14.006 -0.0586  0.3677 -0.7728
12239TIP3    H158132   3.002   0.593  14.029 -0.4868 -1.1093  0.6632
12239TIP3    H258133   3.123   0.603  13.938 -1.0195  2.4264  0.2858
12240TIP3   OH258134   6.089   0.270  11.488 -0.4739  0.2396 -0.2933
12240TIP3    H158135   6.065   0.212  11.416  0.3732  1.5755 -1.6987
12240TIP3    H258136   6.111   0.212  11.560 -2.2181 -1.1060 -0.8271
12241TIP3   OH258137   5.235   1.462  12.507 -0.0855 -0.1639 -0.6116
12241TIP3    H158138   5.157   1.489  12.459  0.4673 -0.0095 -1.4417
12241TIP3    H258139   5.302   1.450  12.439  0.4799 -0.7510  0.0398
12242TIP3   OH258140   2.837   2.239  12.564 -0.2278  0.2694 -0.1309
12242TIP3    H158141   2.907   2.297  12.534  0.1555  1.3069  2.5649
12242TIP3    H258142   2.762   2.296  12.579 -0.6349 -0.3158  0.1133
12243TIP3   OH258143   4.368   2.846   4.654  0.2888  0.0713  0.0767
12243TIP3    H158144   4.411   2.888   4.580 -0.1978 -0.8923 -0.7608
12243TIP3    H258145   4.394   2.899   4.730  1.9449  0.2236 -0.5728
12244TIP3   OH258146   6.342   4.036   1.370  0.0833 -0.0193 -0.4278
12244TIP3    H158147   6.401   4.112   1.368 -1.2334  1.0170 -0.5285
12244TIP3    H258148   6.269   4.061   1.314 -0.9409 -0.8754  0.5105
12245TIP3   OH258149   4.677   2.182   3.247  0.2155  0.4847  0.2828
12245TIP3    H158150   4.756   2.198   3.298  0.3731 -1.3675  0.6781
12245TIP3    H258151   4.693   2.224   3.163  1.9203 -0.4201  0.1354
12246TIP3   OH258152   3.217   2.589   1.281 -0.0726 -0.3199 -0.2599
12246TIP3    H158153   3.132   2.567   1.319 -0.8630  0.8079 -1.3372
12246TIP3    H258154   3.211   2.682   1.260  1.9962  0.1439  1.0864
12247TIP3   OH258155   5.771   0.234  11.812  0.7236 -0.2643  0.9191
12247TIP3    H158156   5.735   0.182  11.885  0.2956 -1.6734 -0.2824
12247TIP3    H258157   5.696   0.249  11.755  0.8572  1.6627  1.2265
12248TIP3   OH258158   6.519   6.637   3.921 -0.0753  0.1807  0.0260
12248TIP3    H158159   6.504   6.545   3.897  0.4776 -0.0710  0.6532
12248TIP3    H258160   6.533   6.635   4.015  0.8356  0.8011 -0.0922
12249TIP3   OH258161   2.155   5.458  14.076  0.7155 -0.0058 -0.2839
12249TIP3    H158162   2.151   5.551  14.052  1.4126  0.0917 -0.0664
12249TIP3    H258163   2.077   5.419  14.038  0.8246  0.5183 -1.0628
12250TIP3   OH258164   3.784   3.136  11.964 -0.5239 -0.1169  0.1145
12250TIP3    H158165   3.780   3.063  11.901 -0.4549  0.0351 -0.0677
12250TIP3    H258166   3.766   3.214  11.911 -2.6728 -0.1954  0.6854
12251TIP3   OH258167   0.459   5.814   3.654  0.7659 -0.4667 -0.1426
12251TIP3    H158168   0.486   5.837   3.565 -0.4935  0.8231 -0.2048
12251TIP3    H258169   0.496   5.882   3.709 -0.4270  0.0479  0.0339
12252TIP3   OH258170   0.237   4.696   2.975 -0.4343  0.0887  0.0540
12252TIP3    H158171   0.261   4.778   2.931 -0.2294 -0.1036 -0.1937
12252TIP3    H258172   0.316   4.671   3.023 -0.6265  0.2484  0.4566
12253TIP3   OH258173   1.932   5.786  14.306 -0.7236 -0.2293 -0.1918
12253TIP3    H158174   1.949   5.847  14.234  1.8256 -1.5416 -0.7327
12253TIP3    H258175   1.881   5.716  14.267 -0.2299 -0.4263 -0.4834
12254TIP3   OH258176   2.112   1.976  14.065 -0.2186  0.2951  0.1988
12254TIP3    H158177   2.074   1.888  14.065 -1.3855  0.7950 -0.5644
12254TIP3    H258178   2.037   2.034  14.060  0.6000  1.3248 -0.1748
12255TIP3   OH258179   1.524   5.300   0.556 -0.2127  0.9572 -0.3778
12255TIP3    H158180   1.461   5.308   0.484 -0.2841  0.1430 -0.4154
12255TIP3    H258181   1.608   5.324   0.517 -0.2494  0.5094 -0.7368
12256TIP3   OH258182   1.519   4.029  13.904 -0.2691  0.1485 -0.4809
12256TIP3    H158183   1.465   4.036  13.826 -0.7013  3.1540  0.0488
12256TIP3    H258184   1.520   3.935  13.924 -2.8307 -0.2863 -2.1866
12257TIP3   OH258185   6.067   0.928  16.299  0.3209 -0.5351 -0.6209
12257TIP3    H158186   6.135   0.991  16.326 -0.6558 -0.2619  1.2514
12257TIP3    H258187   6.093   0.846  16.340 -1.4674  0.0112  1.7003
12258TIP3   OH258188   4.415   6.332   0.685  0.0288 -0.0673 -0.4347
12258TIP3    H158189   4.452   6.306   0.770 -0.5417  0.0898 -0.1345
12258TIP3    H258190   4.468   6.407   0.658  1.5396 -1.3821 -1.1977
12259TIP3   OH258191   1.725   6.678  11.797  0.3415  0.0595  0.3404
12259TIP3    H158192   1.648   6.630  11.829 -0.9747  1.1574 -1.1012
12259TIP3    H258193   1.790   6.668  11.866 -0.6901 -1.8866  1.0669
12260TIP3   OH258194   0.727   1.794   4.322 -0.2834  0.2484  0.3613
12260TIP3    H158195   0.686   1.759   4.402 -0.4128  0.5710  0.4372
12260TIP3    H258196   0.727   1.889   4.335  2.2022  0.1604  1.2065
12261TIP3   OH258197   0.061   3.275  13.289 -0.1607 -0.4721 -0.4568
12261TIP3    H158198   0.083   3.295  13.198  0.5054 -2.0134 -0.6450
12261TIP3    H258199   0.009   3.195  13.284  0.9357 -1.2660  0.6064
12262TIP3   OH258200   3.983   6.549   0.880  0.4573 -0.3975 -0.1961
12262TIP3    H158201   3.949   6.525   0.967  0.6041  0.1239  0.0054
12262TIP3    H258202   3.975   6.469   0.829 -0.6532 -0.3935 -0.0231
12263TIP3   OH258203   4.167   3.164  16.376  0.2867 -0.1382  0.5157
12263TIP3    H158204   4.131   3.086  16.417 -2.4058  0.3620 -0.7371
12263TIP3    H258205   4.236   3.132  16.319  0.8619 -1.3172  1.8455
12264TIP3   OH258206   4.792   5.721   0.493 -0.5307 -0.7095  0.7109
12264TIP3    H158207   4.832   5.634   0.491  2.8933  0.7717  0.2210
12264TIP3    H258208   4.797   5.748   0.585  0.6271 -0.0911  0.4742
12265TIP3   OH258209   1.394   5.190   2.188 -0.4090 -0.1242  0.5005
12265TIP3    H158210   1.370   5.174   2.280 -2.0317 -0.7509 -0.0140
12265TIP3    H258211   1.387   5.104   2.146 -1.7826  0.5266 -0.6577
12266TIP3   OH258212   4.157   6.309  11.262  0.5713  0.4429 -0.4454
12266TIP3    H158213   4.109   6.373  11.210 -1.7932  0.6495  1.8827
12266TIP3    H258214   4.134   6.224  11.222 -1.3469  0.5870  0.2789
12267TIP3   OH258215   4.481   0.618   5.127  0.7594 -0.2119  0.2324
12267TIP3    H158216   4.548   0.670   5.171  1.3469  0.1082 -1.0354
12267TIP3    H258217   4.402   0.672   5.131  1.3683  0.7889 -1.0740
12268TIP3   OH258218   0.234   0.046   3.148  0.1893  0.3380 -0.2971
12268TIP3    H158219   0.206   0.134   3.124  0.1162  0.4716  0.2663
12268TIP3    H258220   0.249   0.001   3.065  0.2329  0.8861 -0.5837
12269TIP3   OH258221   4.895   4.136  12.002 -1.0177  0.5983 -0.3958
12269TIP3    H158222   4.820   4.194  12.017  0.2193  1.7626  1.4676
12269TIP3    H258223   4.971   4.186  12.032  0.0950 -2.0277  1.3918
12270TIP3   OH258224   6.171   4.279  14.085  0.1845 -0.1110  0.7121
12270TIP3    H158225   6.232   4.216  14.124  1.2944  0.1174 -0.6034
12270TIP3    H258226   6.206   4.364  14.113  1.1352  0.0662 -0.9316
12271TIP3   OH258227   3.517   4.457   1.648 -0.2446  0.2415 -0.3227
12271TIP3    H158228   3.442   4.429   1.701 -0.8714  1.1765 -0.7072
12271TIP3    H258229   3.576   4.499   1.710 -0.6925  0.7781 -0.2573
12272TIP3   OH258230   3.602   5.662  16.756  0.0033  0.2176 -0.1114
12272TIP3    H158231   3.678   5.614  16.722 -1.1202 -2.4955  1.0432
12272TIP3    H258232   3.548   5.679  16.679  0.1896 -0.8386 -0.4872
12273TIP3   OH258233   1.397   1.402   4.397  0.2747 -0.5675  0.0224
12273TIP3    H158234   1.350   1.399   4.313 -0.9357 -0.4615  0.6839
12273TIP3    H258235   1.460   1.473   4.386  1.3966 -1.7572 -1.4419
12274TIP3   OH258236   6.706   1.052  15.037 -0.2351  0.0872 -0.5329
12274TIP3    H158237   6.676   1.110  15.106 -0.4903 -1.6754  0.8646
12274TIP3    H258238   6.797   1.078  15.021 -0.6045  1.4055 -0.5007
12275TIP3   OH258239   0.405   6.188  15.780  0.0209 -0.5312 -0.2991
12275TIP3    H158240   0.317   6.189  15.743 -0.3303  0.0288  0.5230
12275TIP3    H258241   0.455   6.249  15.726 -0.4487  0.1720  0.0535
12276TIP3   OH258242   1.177   4.239  12.538  0.4860 -0.0551 -0.0726
12276TIP3    H158243   1.105   4.252  12.476 -0.3776  2.2472  1.3631
12276TIP3    H258244   1.256   4.256  12.487 -0.2932  3.5698 -0.1770
12277TIP3   OH258245   3.637   4.152   4.778  0.0551  0.1636  0.1566
12277TIP3    H158246   3.729   4.125   4.786 -0.0816 -0.4349 -0.2098
12277TIP3    H258247   3.593   4.110   4.852  0.3179  1.5674  1.1231
12278TIP3   OH258248   3.196   4.584  16.325  0.1660 -0.3039 -0.2998
12278TIP3    H158249   3.222   4.492  16.331  3.6807  0.7619  2.8195
12278TIP3    H258250   3.274   4.629  16.291 -1.7278  1.4652 -2.4557
12279TIP3   OH258251   1.696   6.533   0.099 -0.8078  0.8239  0.4337
12279TIP3    H158252   1.709   6.439   0.087  1.5014  1.3134 -1.3098
12279TIP3    H258253   1.695   6.568   0.010  0.6340  2.6979  1.1205
12280TIP3   OH258254   3.347   1.318   5.170 -0.3114  0.1706 -0.2181
12280TIP3    H158255   3.276   1.266   5.132  0.7651 -0.8311 -0.8909
12280TIP3    H258256   3.308   1.404   5.186 -1.1847  0.1869 -2.2813
12281TIP3   OH258257   6.691   0.347  16.636 -0.7397  0.0929 -0.1386
12281TIP3    H158258   6.607   0.335  16.680 -1.5077  1.9330 -1.0462
12281TIP3    H258259   6.675   0.416  16.572  1.3226  0.0579 -0.7390
12282TIP3   OH258260   1.681   3.977   2.803  0.0262 -0.0224 -0.0359
12282TIP3    H158261   1.594   3.983   2.842  0.6557  0.1839  1.3926
12282TIP3    H258262   1.670   4.009   2.714 -1.4402 -0.3975 -0.0047
12283TIP3   OH258263   0.305   2.467   2.912  0.0020  1.1031 -0.3831
12283TIP3    H158264   0.387   2.439   2.953 -0.3779  2.3705  1.3030
12283TIP3    H258265   0.237   2.437   2.973 -0.8839 -0.8949 -2.3007
12284TIP3   OH258266   2.271   3.496   0.823 -0.0740 -0.2122  0.9852
12284TIP3    H158267   2.353   3.517   0.867  0.3530 -0.6356  0.3987
12284TIP3    H258268   2.203   3.530   0.882  0.5747  2.7747  0.1203
12285TIP3   OH258269   3.688   2.354   0.840 -0.2845 -0.0986 -0.2428
12285TIP3    H158270   3.658   2.442   0.816 -2.2634 -1.1419 -1.6906
12285TIP3    H258271   3.781   2.354   0.816 -0.5542  1.2045 -1.4166
12286TIP3   OH258272   0.819   2.774  17.071 -0.2109 -0.7747 -0.6420
12286TIP3    H158273   0.774   2.832  17.133 -0.2759 -0.4435 -0.9971
12286TIP3    H258274   0.903   2.756  17.113  0.1318  0.2176 -0.8864
12287TIP3   OH258275   1.148   6.160   3.210 -0.0196  0.0782 -0.0541
12287TIP3    H158276   1.120   6.120   3.292  1.1812 -1.4310 -0.3518
12287TIP3    H258277   1.068   6.194   3.171 -0.7750 -0.2550  1.1820
12288TIP3   OH258278   5.484   3.782   4.139  0.2919 -0.3080 -0.3328
12288TIP3    H158279   5.572   3.747   4.121  1.7799  3.4136 -0.7457
12288TIP3    H258280   5.450   3.805   4.053 -1.0125 -1.5027 -0.1451
12289TIP3   OH258281   6.696   4.776   3.647 -0.5152 -0.6906  0.3901
12289TIP3    H158282   6.719   4.683   3.648  0.2502 -0.5158  2.3522
12289TIP3    H258283   6.734   4.810   3.728  0.1449  1.5674 -0.8214
12290TIP3   OH258284   5.406   5.871  15.803  0.4509  0.2457  0.3279
12290TIP3    H158285   5.488   5.890  15.757 -0.0091  0.2910 -0.4936
12290TIP3    H258286   5.341   5.927  15.759 -0.0921 -0.0843  0.7092
12291TIP3   OH258287   6.129   1.561   1.863 -0.5003 -0.2842  0.5608
12291TIP3    H158288   6.061   1.512   1.817 -0.3222  0.3361 -0.3674
12291TIP3    H258289   6.122   1.650   1.829 -2.0267  0.8223  3.5444
12292TIP3   OH258290   6.542   5.079   1.489 -0.2043 -0.3857 -0.1646
12292TIP3    H158291   6.535   5.069   1.394  1.8555 -0.1449 -0.3763
12292TIP3    H258292   6.454   5.103   1.517 -1.1599 -1.7939 -1.8282
12293TIP3   OH258293   5.354   5.563   4.486 -0.4308  0.4568  0.2496
12293TIP3    H158294   5.368   5.481   4.534 -0.5717  0.2636 -0.0356
12293TIP3    H258295   5.264   5.556   4.453  0.2428 -0.1887 -1.5138
12294TIP3   OH258296   2.274   1.366   5.770  0.4679 -0.2075 -0.0627
12294TIP3    H158297   2.369   1.377   5.774  0.7519 -2.2233 -0.7835
12294TIP3    H258298   2.252   1.372   5.677 -0.1862  0.6625  0.1342
12295TIP3   OH258299   5.082   2.458   4.238 -0.0208  0.0161 -0.0095
12295TIP3    H158300   5.137   2.526   4.276 -1.1278  0.4031  0.9143
12295TIP3    H258301   4.999   2.501   4.220 -0.9879 -1.2605  1.2769
12296TIP3   OH258302   5.178   5.296  11.745  0.2059  0.8728  0.2334
12296TIP3    H158303   5.209   5.366  11.802 -1.0093  1.8652 -0.3032
12296TIP3    H258304   5.174   5.219  11.802  2.0926  1.0875  0.6870
12297TIP3   OH258305   1.943   3.890   3.951  0.0884  0.0257  0.3608
12297TIP3    H158306   1.991   3.811   3.975 -1.4569 -1.0343  0.0017
12297TIP3    H258307   1.987   3.960   4.000 -0.6307 -1.5211  3.3454
12298TIP3   OH258308   5.189   4.684   2.811 -0.4178 -0.7471 -0.5265
12298TIP3    H158309   5.193   4.670   2.905 -1.3072  0.0692 -0.3563
12298TIP3    H258310   5.199   4.597   2.772 -2.1142 -1.3668  0.3782
12299TIP3   OH258311   1.452   3.990   0.090 -0.0032 -0.3273 -0.4045
12299TIP3    H158312   1.416   3.934   0.158  2.6277 -1.6996 -0.0931
12299TIP3    H258313   1.453   3.935   0.012  0.7695 -0.0823 -0.5711
12300TIP3   OH258314   3.492   2.659   1.050 -0.1760  0.1047 -0.6731
12300TIP3    H158315   3.536   2.653   1.135  1.1869 -2.6487 -1.4922
12300TIP3    H258316   3.405   2.623   1.066 -1.0699  2.5690  0.2306
12301TIP3   OH258317   5.161   0.469  15.541 -0.3754  0.6276  0.1587
12301TIP3    H158318   5.140   0.378  15.523  0.4773  0.2458  1.0360
12301TIP3    H258319   5.125   0.518  15.467  1.1360 -0.6561 -1.4699
12302TIP3   OH258320   1.256   0.528  13.094 -0.0369  0.0116  0.5137
12302TIP3    H158321   1.243   0.442  13.134  0.6778 -0.0444  0.6382
12302TIP3    H258322   1.194   0.531  13.021  1.6744 -1.5987 -1.0408
12303TIP3   OH258323   3.615   0.081  16.137 -0.1802  0.3530  0.1914
12303TIP3    H158324   3.698   0.035  16.119  0.2369  0.9140  0.6516
12303TIP3    H258325   3.572   0.027  16.203 -0.5098 -0.3186 -0.5639
12304TIP3   OH258326   5.156   5.335  13.832  0.2518 -0.1035  0.2949
12304TIP3    H158327   5.065   5.316  13.809  0.3243  0.5158 -0.5262
12304TIP3    H258328   5.153   5.421  13.875  0.8472  1.6666 -2.9625
12305TIP3   OH258329   2.726   0.001   1.083 -0.1153 -0.4914 -0.0545
12305TIP3    H158330   2.800   0.042   1.129 -0.1338 -2.1319  1.4952
12305TIP3    H258331   2.761  -0.082   1.050 -0.6900 -0.2836 -1.2048
12306TIP3   OH258332   5.432   4.199  14.699  0.4874  0.0035  0.4531
12306TIP3    H158333   5.463   4.134  14.636  0.2660 -0.6534  1.0130
12306TIP3    H258334   5.339   4.210  14.677  0.9004  1.3710 -0.7050
12307TIP3   OH258335   5.367   1.420   3.418 -0.1424 -0.0110  0.1481
12307TIP3    H158336   5.379   1.471   3.498 -0.2681 -0.5637  0.5210
12307TIP3    H258337   5.375   1.484   3.347  0.2902  0.4238  0.5876
12308TIP3   OH258338   0.996   4.655  13.530  0.0616  0.0192 -0.3873
12308TIP3    H158339   1.069   4.713  13.505  2.4132 -2.4885  0.4707
12308TIP3    H258340   0.955   4.631  13.447 -1.0831  2.9924 -0.7590
12309TIP3   OH258341   2.932   2.404  10.909 -0.1777 -0.4150 -0.1058
12309TIP3    H158342   2.869   2.462  10.866 -0.3233 -1.4653 -1.3329
12309TIP3    H258343   2.883   2.364  10.981 -0.0073  1.1421  0.9147
12310TIP3   OH258344   0.028   4.940   5.499 -0.4340  0.3903  0.0284
12310TIP3    H158345  -0.007   5.029   5.500  0.8525  0.9026 -0.2285
12310TIP3    H258346   0.121   4.951   5.481  0.2486 -0.8375  2.6218
12311TIP3   OH258347   1.982   1.744  13.527  0.8089  0.0597 -0.0921
12311TIP3    H158348   1.974   1.696  13.444 -3.4862  0.9456 -0.3434
12311TIP3    H258349   1.970   1.678  13.594  0.6899 -0.1146 -0.2839
12312TIP3   OH258350   4.775   5.807  12.264  0.3928 -0.6073 -0.3864
12312TIP3    H158351   4.863   5.777  12.240  0.1843 -1.7667  0.2310
12312TIP3    H258352   4.773   5.801  12.360 -1.3273 -3.5212 -0.5319
12313TIP3   OH258353   0.471   1.604  12.096  0.6732  0.0738  0.3617
12313TIP3    H158354   0.497   1.535  12.035  0.5154  1.2740 -1.0786
12313TIP3    H258355   0.413   1.560  12.158  0.8704 -1.1693 -0.3158
12314TIP3   OH258356   5.282   4.252  15.445 -0.2489  0.7169 -0.1540
12314TIP3    H158357   5.374   4.264  15.471  0.2243 -1.2410 -0.8507
12314TIP3    H258358   5.241   4.212  15.521  0.5555 -2.6496 -1.4094
12315TIP3   OH258359   6.086   4.759   2.205  0.9103  0.2610  0.1757
12315TIP3    H158360   6.013   4.800   2.158  2.5170  0.2313 -2.4063
12315TIP3    H258361   6.043   4.700   2.267 -1.2994  1.4074 -0.1798
12316TIP3   OH258362   4.096   0.612   6.130 -0.6401 -0.3338  0.1547
12316TIP3    H158363   4.009   0.576   6.151  0.4875 -2.3536  1.5105
12316TIP3    H258364   4.106   0.687   6.189 -1.8410  0.5012 -0.6785
12317TIP3   OH258365   5.189   6.054  16.002 -0.4023  0.0681 -0.1738
12317TIP3    H158366   5.162   6.130  15.950 -2.0784 -1.0071 -0.9269
12317TIP3    H258367   5.168   6.078  16.092 -1.6665  0.2020 -0.4926
12318TIP3   OH258368   0.732   5.568  13.091  0.2985  0.4182 -0.0694
12318TIP3    H158369   0.766   5.582  13.003 -0.8737  1.8833 -0.3055
12318TIP3    H258370   0.786   5.497  13.126  2.8197  1.8658 -0.8505
12319TIP3   OH258371   2.259   2.547  14.858  0.8099 -0.8044  0.8979
12319TIP3    H158372   2.249   2.624  14.802  2.9756 -0.3125  1.1238
12319TIP3    H258373   2.354   2.542  14.874  0.7160 -3.6562  0.7050
12320TIP3   OH258374   2.814   3.060  16.763 -0.6622  0.4385  0.0143
12320TIP3    H158375   2.889   3.035  16.816 -1.0034  0.1272  0.3512
12320TIP3    H258376   2.852   3.090  16.680 -0.2097 -0.4565 -0.1076
12321TIP3   OH258377   0.812   2.662   3.001  1.0517 -0.0575 -0.9957
12321TIP3    H158378   0.730   2.674   3.049  1.5499  1.4300 -0.5053
12321TIP3    H258379   0.876   2.641   3.068  1.3950  0.3252 -1.2036
12322TIP3   OH258380   6.453   3.857   0.690  0.3947 -0.1373  0.9543
12322TIP3    H158381   6.424   3.791   0.753 -2.1333 -0.0149 -0.0131
12322TIP3    H258382   6.373   3.880   0.641  1.1683  3.6727  1.3143
12323TIP3   OH258383   2.191   3.668   3.937  0.2534 -0.1880 -0.4176
12323TIP3    H158384   2.139   3.658   3.858  1.4682 -0.0330 -1.2598
12323TIP3    H258385   2.277   3.695   3.905  0.9087 -0.6568  0.9160
12324TIP3   OH258386   1.784   5.426  15.762 -0.0545 -0.4515 -0.2710
12324TIP3    H158387   1.800   5.407  15.669  2.9500  0.9383 -0.0978
12324TIP3    H258388   1.869   5.455  15.795 -1.8257  2.1036  2.1730
12325TIP3   OH258389   1.656   1.738  11.781  0.0100  0.1105  0.2813
12325TIP3    H158390   1.659   1.733  11.685 -1.5587  1.1183  0.1611
12325TIP3    H258391   1.640   1.647  11.808  2.7507 -0.5855 -0.2593
12326TIP3   OH258392   4.512   0.074   2.733 -1.0166  0.2976 -0.5580
12326TIP3    H158393   4.443   0.122   2.687 -0.3280  2.0389  0.1710
12326TIP3    H258394   4.542   0.135   2.801  1.2054 -0.4232 -0.8400
12327TIP3   OH258395   5.429   6.141  11.979 -0.1300 -0.0155  0.0419
12327TIP3    H158396   5.504   6.195  11.953 -0.7085  1.4976  1.4186
12327TIP3    H258397   5.357   6.203  11.987 -0.4367 -0.6847  3.2745
12328TIP3   OH258398   4.633   0.783   3.811 -0.0949  0.3479 -0.0925
12328TIP3    H158399   4.567   0.738   3.758  1.0243 -1.6357  0.1947
12328TIP3    H258400   4.716   0.744   3.786  0.5964  0.3129  2.1479
12329TIP3   OH258401   2.761   0.162  12.692 -0.7777  0.3458  0.1721
12329TIP3    H158402   2.781   0.112  12.613  0.1067  0.9781 -0.0175
12329TIP3    H258403   2.739   0.249  12.660 -0.9762  0.4519  0.5927
12330TIP3   OH258404   5.862   6.585  11.618  0.0547 -0.2764  0.1310
12330TIP3    H158405   5.833   6.667  11.579 -3.6651 -1.3637  0.3926
12330TIP3    H258406   5.798   6.568  11.688  1.3904 -2.8251  0.8028
12331TIP3   OH258407   5.526   0.562  17.102  0.1008  0.0962  0.3095
12331TIP3    H158408   5.473   0.482  17.110  0.7062 -0.2827  0.5789
12331TIP3    H258409   5.463   0.633  17.108 -0.3301 -0.3438  1.0977
12332TIP3   OH258410   4.454   0.140  17.237  0.2635 -0.7983  0.1377
12332TIP3    H158411   4.409   0.070  17.285 -1.8057  0.6769  0.4082
12332TIP3    H258412   4.396   0.160  17.163  0.4268  1.1554  0.5023
12333TIP3   OH258413   2.703   1.883  12.766 -0.1381 -0.2586 -0.1221
12333TIP3    H158414   2.609   1.867  12.771 -0.1792 -0.1906 -0.6744
12333TIP3    H258415   2.742   1.809  12.812 -0.3994 -0.9979 -1.0938
12334TIP3   OH258416   0.015   6.694  15.177 -0.2087 -0.1498  0.2266
12334TIP3    H158417   0.065   6.702  15.096  0.7539 -0.7365  0.7557
12334TIP3    H258418  -0.046   6.768  15.175  0.3810  0.3168 -0.6336
12335TIP3   OH258419   0.735   5.334  14.823 -0.9040  0.3082  0.3819
12335TIP3    H158420   0.672   5.311  14.754 -1.1706  1.4634  0.2181
12335TIP3    H258421   0.819   5.303  14.790 -0.7498  2.3569 -1.2805
12336TIP3   OH258422   4.098   4.954  13.451  0.7264 -0.3449  0.0603
12336TIP3    H158423   4.088   4.917  13.538  0.6435 -2.4097 -0.7911
12336TIP3    H258424   4.010   4.957  13.415  0.6552  1.2373  0.3058
12337TIP3   OH258425   3.136   1.582  13.851  0.2870 -0.7754 -0.1513
12337TIP3    H158426   3.144   1.490  13.875  0.4294 -0.6021  0.4913
12337TIP3    H258427   3.190   1.628  13.916  1.9492 -0.4177 -1.7594
12338TIP3   OH258428   4.787   4.104   6.548  0.2148 -0.0074 -0.2019
12338TIP3    H158429   4.758   4.147   6.629 -1.8567  0.1090 -0.9831
12338TIP3    H258430   4.728   4.137   6.481  1.6215 -0.4764 -1.6864
12339TIP3   OH258431   6.120   6.412  11.913  0.1781 -0.1786 -0.5678
12339TIP3    H158432   6.156   6.500  11.923 -2.5122  0.9325 -0.2937
12339TIP3    H258433   6.112   6.380  12.003  1.5771 -0.8748 -0.6923
12340TIP3   OH258434   3.905   4.362   0.896  0.7270  0.2852 -0.1825
12340TIP3    H158435   3.878   4.443   0.852 -0.4782  0.9768  1.7610
12340TIP3    H258436   3.837   4.298   0.874  0.9871  0.1631 -0.6424
12341TIP3   OH258437   5.422   6.752  12.646  0.3394  0.0490 -0.6536
12341TIP3    H158438   5.340   6.762  12.598  0.5627  0.4594 -0.9445
12341TIP3    H258439   5.406   6.795  12.730  0.1162 -0.2474 -0.5390
12342TIP3   OH258440   5.429   1.671  14.861  0.2866 -0.3302  0.6177
12342TIP3    H158441   5.370   1.618  14.808  1.7527  0.1438 -1.5256
12342TIP3    H258442   5.403   1.761  14.843  1.1749 -0.1456  0.2589
12343TIP3   OH258443   2.007   3.385  16.477  0.1248  0.5179  0.5290
12343TIP3    H158444   2.054   3.468  16.465 -0.4789  1.1887  2.6142
12343TIP3    H258445   1.932   3.391  16.419  0.6760  0.9548 -0.1517
12344TIP3   OH258446   2.860   6.234   1.103 -0.1771  0.8790 -0.0641
12344TIP3    H158447   2.814   6.162   1.147  0.1695  0.6745 -0.0334
12344TIP3    H258448   2.951   6.226   1.132  0.0110  0.8744 -0.6501
12345TIP3   OH258449   0.411   0.678   1.475  0.1148 -0.3452  0.0690
12345TIP3    H158450   0.439   0.764   1.504 -1.6219 -0.5451  2.5954
12345TIP3    H258451   0.469   0.617   1.521 -1.1410 -0.5915  1.3976
12346TIP3   OH258452   1.134   5.416   5.611  0.2970 -0.0103 -0.3294
12346TIP3    H158453   1.148   5.444   5.521  0.2256  0.6930 -0.1269
12346TIP3    H258454   1.197   5.466   5.662 -0.7421  0.7894  0.1976
12347TIP3   OH258455   0.461   3.240  13.337  0.1859 -0.3616  0.5924
12347TIP3    H158456   0.548   3.258  13.374 -0.6485  1.8712  1.5384
12347TIP3    H258457   0.430   3.326  13.308 -1.5917 -1.1999 -0.0159
12348TIP3   OH258458   4.973   3.592   4.949 -0.1678 -0.3442  0.2072
12348TIP3    H158459   5.013   3.623   5.030 -0.0166 -1.5902  0.6049
12348TIP3    H258460   4.902   3.535   4.977 -2.1603  1.6727 -0.4745
12349TIP3   OH258461   0.120   3.086  16.240  0.5136 -0.3254 -0.4960
12349TIP3    H158462   0.175   3.048  16.171  0.1428  0.8770 -1.4843
12349TIP3    H258463   0.042   3.031  16.241  1.0516 -1.0783 -0.1978
12350TIP3   OH258464   5.461   2.384  14.616  0.0466  0.2302  0.5342
12350TIP3    H158465   5.548   2.416  14.590 -0.6742 -0.7673 -3.3932
12350TIP3    H258466   5.412   2.464  14.635  1.3683  0.8950  1.2581
12351TIP3   OH258467   3.220   4.611  11.382  0.0769 -0.4485  0.0644
12351TIP3    H158468   3.124   4.615  11.389  0.0324  0.7007 -1.0295
12351TIP3    H258469   3.249   4.591  11.471 -1.2104 -1.6263  0.2497
12352TIP3   OH258470   0.528   4.937  10.771 -0.1208  0.4590 -0.4008
12352TIP3    H158471   0.563   4.913  10.857 -1.2341  0.8418  0.1734
12352TIP3    H258472   0.511   5.031  10.778 -0.6845  0.3952 -0.8767
12353TIP3   OH258473   5.154   1.815  15.431 -0.1634 -0.0043 -0.3955
12353TIP3    H158474   5.154   1.787  15.522 -0.9633 -1.3352 -0.7922
12353TIP3    H258475   5.089   1.885  15.427 -0.9448 -0.7178 -0.1755
12354TIP3   OH258476   3.737   2.837   2.557 -0.8631 -0.3302 -0.1851
12354TIP3    H158477   3.677   2.843   2.483 -1.3629 -0.6828  0.1888
12354TIP3    H258478   3.723   2.919   2.606 -0.1556  0.1376 -0.7638
12355TIP3   OH258479   1.834   4.156   1.325 -0.0409  0.0216  0.3743
12355TIP3    H158480   1.750   4.137   1.283  0.4265 -0.1011 -0.5325
12355TIP3    H258481   1.814   4.222   1.390 -0.3615  2.2099 -1.8583
12356TIP3   OH258482   5.237   2.530  10.267 -0.1560 -0.5242  0.9098
12356TIP3    H158483   5.286   2.480  10.332  1.9685 -0.4270 -0.5680
12356TIP3    H258484   5.280   2.615  10.264 -0.6155 -0.3253 -0.2142
12357TIP3   OH258485   1.234   5.988  13.269  0.6845  0.1357  0.1534
12357TIP3    H158486   1.326   6.008  13.285  0.0355  1.5076  2.4713
12357TIP3    H258487   1.229   5.971  13.175  3.0436  1.4383 -0.2495
12358TIP3   OH258488   2.775   2.101   2.549  0.0677 -0.8972  0.0536
12358TIP3    H158489   2.824   2.062   2.622 -1.5057 -2.7308  0.1662
12358TIP3    H258490   2.703   2.147   2.591  1.3118  1.3025 -0.1513
12359TIP3   OH258491   4.323   4.471  15.309 -0.3488 -0.1548  0.5440
12359TIP3    H158492   4.228   4.467  15.319 -0.5448 -0.3968 -1.1936
12359TIP3    H258493   4.343   4.565  15.310 -0.8625 -0.0059 -1.0192
12360TIP3   OH258494   3.489   2.351  16.094  0.0248  0.4336 -0.1626
12360TIP3    H158495   3.394   2.345  16.085 -0.0728  0.5004  0.8102
12360TIP3    H258496   3.503   2.434  16.138  0.4898  0.0222  0.4604
12361TIP3   OH258497   2.390   1.333   6.426  0.0293 -0.1948  0.1270
12361TIP3    H158498   2.313   1.279   6.408  0.1330  0.2358 -1.6640
12361TIP3    H258499   2.462   1.271   6.434 -0.3434 -0.5292  0.9288
12362TIP3   OH258500   2.962   2.963   1.353  0.0282  0.3267 -0.4316
12362TIP3    H158501   2.886   2.963   1.295  0.0626  0.9891 -0.4807
12362TIP3    H258502   2.947   2.889   1.413 -2.1337  2.2516  1.4942
12363TIP3   OH258503   5.646   0.914  16.020 -0.4040 -0.2666 -0.5460
12363TIP3    H158504   5.585   0.987  16.026 -0.5837 -0.3160 -1.5962
12363TIP3    H258505   5.725   0.944  16.065 -1.0248 -0.0195  0.3894
12364TIP3   OH258506   4.054   0.496   3.226  0.0282  0.2316 -0.3508
12364TIP3    H158507   3.974   0.495   3.174 -0.9238 -2.4681  1.0528
12364TIP3    H258508   4.125   0.489   3.162 -1.0389 -0.7679 -1.4357
12365TIP3   OH258509   5.126   2.254  13.866  0.0390 -0.0985 -0.1462
12365TIP3    H158510   5.047   2.203  13.849  0.0133 -0.4791  1.0846
12365TIP3    H258511   5.099   2.345  13.854 -0.5363 -0.2388  0.0837
12366TIP3   OH258512   2.460   6.063   1.962  0.1319  0.1659  0.1023
12366TIP3    H158513   2.449   5.974   1.994 -2.3744  0.8910  1.4279
12366TIP3    H258514   2.552   6.069   1.937  1.1730 -1.7724  3.2029
12367TIP3   OH258515   5.406   1.579   5.970 -0.4408 -0.0484  0.5481
12367TIP3    H158516   5.476   1.527   6.007 -0.6408  0.7784  2.1356
12367TIP3    H258517   5.328   1.555   6.021 -1.2450 -0.6947 -0.9514
12368TIP3   OH258518   4.590   2.966  10.664  0.2340  0.1740 -0.6214
12368TIP3    H158519   4.676   2.965  10.622  0.8777  0.8395  0.6486
12368TIP3    H258520   4.596   2.901  10.733 -0.2647  0.2736 -0.4838
12369TIP3   OH258521   3.121   3.490  11.831  0.2916 -0.3321 -0.1272
12369TIP3    H158522   3.138   3.478  11.737  1.2563 -2.4156  0.2855
12369TIP3    H258523   3.155   3.578  11.850 -0.2540  0.2602 -1.7991
12370TIP3   OH258524   2.757   1.863  11.023 -0.1506  0.6027 -0.3276
12370TIP3    H158525   2.801   1.794  10.973  0.4187 -0.2385  1.2731
12370TIP3    H258526   2.768   1.942  10.971  2.6167  0.2599 -0.3497
12371TIP3   OH258527   4.999   0.134   2.335 -0.0533 -0.1987  0.1703
12371TIP3    H158528   4.963   0.071   2.396 -0.8067  0.1867  0.1270
12371TIP3    H258529   5.071   0.087   2.292 -1.7196 -1.6227 -1.1341
12372TIP3   OH258530   1.262   1.221  11.308 -0.5236  0.1332 -0.1207
12372TIP3    H158531   1.191   1.277  11.278 -0.7661 -0.1473 -0.0797
12372TIP3    H258532   1.218   1.143  11.341 -0.1306 -0.7032 -1.5050
12373TIP3   OH258533   5.686   5.602   3.903  0.3653 -0.4500  0.1710
12373TIP3    H158534   5.607   5.647   3.933 -0.0325 -0.3970 -0.9167
12373TIP3    H258535   5.723   5.662   3.837  1.3677 -0.4282  0.7514
12374TIP3   OH258536   5.404   6.055   1.343 -0.0161  0.3067 -0.3085
12374TIP3    H158537   5.443   5.974   1.312 -1.2197 -0.1460 -0.6710
12374TIP3    H258538   5.319   6.029   1.378 -0.7047  1.4975 -1.0414
12375TIP3   OH258539   4.967   0.812   0.263 -0.9458 -0.5558  0.8369
12375TIP3    H158540   4.910   0.836   0.190 -0.5807 -1.3221  0.2912
12375TIP3    H258541   5.055   0.832   0.232 -0.7266 -1.6323  0.7579
12376TIP3   OH258542   4.955   5.278   5.261 -0.2618  0.0374  0.4655
12376TIP3    H158543   4.907   5.271   5.178 -0.0952 -0.9476  0.4501
12376TIP3    H258544   5.023   5.343   5.243 -0.0250 -0.4066 -0.2656
12377TIP3   OH258545   0.530   0.232   1.919 -0.0380 -0.5247 -0.3881
12377TIP3    H158546   0.461   0.296   1.939  0.0001 -0.7893  0.5942
12377TIP3    H258547   0.518   0.162   1.983  1.7904 -0.0750  0.4840
12378TIP3   OH258548   2.010   4.288   1.555 -0.9705 -0.6448 -0.2826
12378TIP3    H158549   2.075   4.218   1.553 -0.3662 -0.1177  0.2528
12378TIP3    H258550   2.062   4.369   1.549 -1.3340 -0.1261  2.5827
12379TIP3   OH258551   5.532   5.455  17.015 -0.1130 -0.2390 -0.2910
12379TIP3    H158552   5.464   5.391  16.993 -0.6807 -0.2890  1.5470
12379TIP3    H258553   5.501   5.495  17.096  0.5599  1.9000 -1.0647
12380TIP3   OH258554   1.798   2.804   5.177  0.3687 -0.3163  0.2176
12380TIP3    H158555   1.862   2.736   5.154 -0.3187 -0.9178  0.0416
12380TIP3    H258556   1.733   2.800   5.107  0.6452  0.9605 -0.1169
12381TIP3   OH258557   6.543   4.127  15.301  0.2121  0.3200  0.0787
12381TIP3    H158558   6.617   4.120  15.241  1.3680 -1.4568  1.6468
12381TIP3    H258559   6.582   4.147  15.386 -0.3807 -6.5001  2.2498
12382TIP3   OH258560   2.692   6.767   2.487 -0.2941  0.1487 -0.2095
12382TIP3    H158561   2.698   6.707   2.561 -0.4091  0.0235 -0.3032
12382TIP3    H258562   2.712   6.714   2.410  0.4950  0.4257 -0.2070
12383TIP3   OH258563   2.808   5.119   6.044  0.0913 -0.1947 -0.1131
12383TIP3    H158564   2.865   5.042   6.049 -0.5375 -0.6371  0.3003
12383TIP3    H258565   2.724   5.089   6.080 -0.4659  0.3958 -0.8943
12384TIP3   OH258566   0.760   3.494   4.927 -0.3858  0.0543  0.0683
12384TIP3    H158567   0.816   3.566   4.899 -1.5244  0.8770 -0.1242
12384TIP3    H258568   0.804   3.457   5.004 -0.2447  1.5329  0.7073
12385TIP3   OH258569   6.045   3.212  17.084  0.3471  0.1101  0.4885
12385TIP3    H158570   5.968   3.154  17.094 -0.9423  1.9895  1.8198
12385TIP3    H258571   6.119   3.157  17.110 -0.8212 -1.0504  1.4659
12386TIP3   OH258572   2.002   1.304  16.672  0.1060 -0.0128  0.4923
12386TIP3    H158573   1.966   1.222  16.638 -0.0412  0.0828  0.4154
12386TIP3    H258574   1.999   1.294  16.767  0.0685 -0.0847  0.4823
12387TIP3   OH258575   3.207   2.475   2.246  0.6998  0.1840  0.0988
12387TIP3    H158576   3.270   2.495   2.176  0.2526  2.6336  0.3517
12387TIP3    H258577   3.261   2.458   2.323  1.1410 -1.1091 -0.4710
12388TIP3   OH258578   4.154   5.015   2.487  0.1168  0.3266 -0.3121
12388TIP3    H158579   4.170   4.924   2.465  1.3653  0.1181  1.3297
12388TIP3    H258580   4.204   5.030   2.567  0.1953  2.5428 -0.7284
12389TIP3   OH258581   1.272   2.884   5.015 -0.3563  0.0418  0.0662
12389TIP3    H158582   1.188   2.869   5.058 -0.9540  1.7346 -0.4845
12389TIP3    H258583   1.250   2.911   4.926  0.6852  1.9459  0.3503
12390TIP3   OH258584   4.699   2.746  16.546  0.5337 -0.8345 -0.0770
12390TIP3    H158585   4.751   2.818  16.581  1.1229 -0.1647 -2.2543
12390TIP3    H258586   4.762   2.676  16.528  0.4824 -0.5807 -1.2840
12391TIP3   OH258587   0.881   3.102   2.212  0.0225 -0.3248 -0.4495
12391TIP3    H158588   0.903   3.037   2.279  1.0294 -0.6787 -1.1062
12391TIP3    H258589   0.797   3.074   2.177 -0.3891 -0.2786  0.4928
12392TIP3   OH258590   4.553   1.418  14.091  0.4305 -0.1227  0.5485
12392TIP3    H158591   4.522   1.463  14.012  1.7452 -0.6352 -0.2810
12392TIP3    H258592   4.648   1.413  14.080  0.8593  1.4672  3.0516
12393TIP3   OH258593   5.415   1.774  13.067 -0.4388 -0.1498 -0.0816
12393TIP3    H158594   5.382   1.772  13.157 -1.0432  0.0542 -0.2954
12393TIP3    H258595   5.423   1.868  13.047 -0.5345 -0.1911 -0.3192
12394TIP3   OH258596   1.739   2.735  17.196  0.5660  0.1655 -0.9626
12394TIP3    H158597   1.708   2.656  17.240  0.9505 -0.3517 -1.6214
12394TIP3    H258598   1.831   2.718  17.179  0.2450  0.0485 -2.6613
12395TIP3   OH258599   4.196   4.078   1.929  0.6495  0.4248 -0.0065
12395TIP3    H158600   4.174   4.151   1.870  0.9596  0.2255 -0.3659
12395TIP3    H258601   4.111   4.038   1.949  0.5269  0.5948 -0.1839
12396TIP3   OH258602   2.294   3.322  13.126  0.0457  0.4205 -0.0625
12396TIP3    H158603   2.383   3.348  13.105 -0.1590  2.5488  1.6155
12396TIP3    H258604   2.304   3.248  13.186  0.6764  0.1563 -0.4913
12397TIP3   OH258605   3.991   0.656  11.861 -0.0121  0.3643 -0.5288
12397TIP3    H158606   4.011   0.689  11.949  1.3410 -0.6300 -0.4517
12397TIP3    H258607   3.899   0.631  11.865  0.0304  0.3804  0.5870
12398TIP3   OH258608   0.738   0.724  15.637  0.3833 -0.5207  0.3775
12398TIP3    H158609   0.809   0.664  15.660  0.4787 -0.4834  0.1803
12398TIP3    H258610   0.676   0.716  15.709  0.9671  0.0436  0.9478
12399TIP3   OH258611   4.275   0.389   1.404 -0.5183 -0.2527  0.3133
12399TIP3    H158612   4.206   0.358   1.462 -0.3226  1.9247  1.7774
12399TIP3    H258613   4.355   0.349   1.439 -0.5498  0.1493  0.8427
12400TIP3   OH258614   5.716   3.023   2.252  0.1398  0.2663 -0.7485
12400TIP3    H158615   5.792   2.972   2.224  0.0165 -0.3917  0.1072
12400TIP3    H258616   5.722   3.025   2.347 -0.7763  0.4250 -0.6870
12401TIP3   OH258617   3.687   0.126  13.583  0.5727 -0.3269 -0.2669
12401TIP3    H158618   3.775   0.163  13.574  0.6939 -0.4775  0.2567
12401TIP3    H258619   3.674   0.117  13.677 -0.8532  1.6928 -0.2398
12402TIP3   OH258620   6.470   2.446   3.837 -0.3870  0.1615  0.2390
12402TIP3    H158621   6.425   2.461   3.754  1.3543 -0.6464 -0.8675
12402TIP3    H258622   6.512   2.529   3.857 -0.5260  0.2520  0.1594
12403TIP3   OH258623   6.780   3.016   4.108  0.4365  0.0353  0.5430
12403TIP3    H158624   6.803   3.074   4.180  1.0148  2.0540 -1.2094
12403TIP3    H258625   6.790   3.070   4.029  1.3841 -2.5500 -1.1928
12404TIP3   OH258626   2.913   2.515  15.495 -0.7817  0.0718  0.2383
12404TIP3    H158627   2.884   2.474  15.413  0.1638 -0.0665 -0.0281
12404TIP3    H258628   2.917   2.442  15.558 -1.2079  0.1271  0.3335
12405TIP3   OH258629   2.101   2.206   3.875 -0.0896 -0.0506  0.2446
12405TIP3    H158630   2.035   2.188   3.942 -1.1544 -0.4069 -0.8690
12405TIP3    H258631   2.101   2.301   3.866  0.3963  0.0323  1.0734
12406TIP3   OH258632   6.646   5.878   3.972 -0.0513 -0.0482  0.0959
12406TIP3    H158633   6.736   5.890   3.941 -0.7028  1.4593 -1.2582
12406TIP3    H258634   6.601   5.837   3.899 -0.1925 -1.9294  1.2145
12407TIP3   OH258635   1.794   4.808   3.912  0.0099 -0.4550 -0.1099
12407TIP3    H158636   1.883   4.817   3.946 -0.3073  0.1361  0.5835
12407TIP3    H258637   1.740   4.799   3.990 -0.7430  1.0772 -0.4345
12408TIP3   OH258638   0.517   1.121  11.693  0.8770  0.5515 -0.3026
12408TIP3    H158639   0.422   1.119  11.684  0.7496 -0.5974  1.1160
12408TIP3    H258640   0.533   1.133  11.787  2.1053 -2.7836 -0.0131
12409TIP3   OH258641   1.511   6.550  16.748 -0.6666  0.5015 -0.2347
12409TIP3    H158642   1.535   6.597  16.668 -0.0847 -0.2400 -0.4954
12409TIP3    H258643   1.442   6.604  16.787  0.2449  1.7525 -0.3433
12410TIP3   OH258644   2.090   2.450   4.806  0.6589 -0.0045 -0.0039
12410TIP3    H158645   2.008   2.441   4.757  0.9357 -0.2887 -0.4234
12410TIP3    H258646   2.112   2.361   4.833  0.1369  0.2453  1.2642
12411TIP3   OH258647   1.846   3.116  15.426 -0.0766 -0.1793 -0.4340
12411TIP3    H158648   1.777   3.098  15.490 -1.9334 -1.4720 -2.6986
12411TIP3    H258649   1.901   3.182  15.467 -2.3258  0.4231  1.7067
12412TIP3   OH258650   5.646   2.494  16.897  0.4821  0.7768  0.3473
12412TIP3    H158651   5.586   2.543  16.841  1.9433  1.0212 -1.0634
12412TIP3    H258652   5.676   2.558  16.962  1.2161  1.3848 -0.5659
12413TIP3   OH258653   1.710   2.138  11.839 -0.5818 -0.0858 -0.3599
12413TIP3    H158654   1.663   2.219  11.816  0.2022  0.5780  0.3515
12413TIP3    H258655   1.756   2.159  11.920  0.8623 -0.7755 -0.9889
12414TIP3   OH258656   4.727   3.303  14.202  0.2238 -0.3264 -0.9405
12414TIP3    H158657   4.819   3.326  14.214 -0.0139  0.7226 -1.1118
12414TIP3    H258658   4.681   3.358  14.264 -0.4430  0.4195 -2.0825
12415TIP3   OH258659   1.308   4.703  10.763  0.1156 -0.1156  0.0289
12415TIP3    H158660   1.234   4.679  10.820 -0.0770  1.3345  0.4104
12415TIP3    H258661   1.304   4.799  10.758  1.9911 -0.0251  0.0731
12416TIP3   OH258662   3.840   5.290  10.911  0.4851  0.1642 -1.0825
12416TIP3    H158663   3.915   5.252  10.957  0.0310 -1.1960 -1.4232
12416TIP3    H258664   3.835   5.240  10.829 -1.4407 -0.5333 -0.5784
12417TIP3   OH258665   3.434   5.618  16.449  0.3227 -0.1778  0.1107
12417TIP3    H158666   3.478   5.556  16.391  1.2071  0.1467  0.4229
12417TIP3    H258667   3.343   5.588  16.452  0.1788  0.0310 -1.7378
12418TIP3   OH258668   0.128   3.295   2.045 -0.4158 -0.1343 -0.4004
12418TIP3    H158669   0.097   3.373   2.001 -1.3881 -0.6197 -0.5889
12418TIP3    H258670   0.086   3.297   2.131 -0.4879 -0.4622 -0.4239
12419TIP3   OH258671   5.386   5.159   0.939 -0.3488 -0.3939 -0.5748
12419TIP3    H158672   5.404   5.185   1.030 -2.7326 -0.6691  0.0239
12419TIP3    H258673   5.316   5.218   0.911  1.6435  0.9643 -2.9287
12420TIP3   OH258674   6.677   3.284   4.970 -0.0205  0.5677 -0.0464
12420TIP3    H158675   6.583   3.283   4.989 -0.0553  0.3026 -0.2191
12420TIP3    H258676   6.712   3.208   5.017  0.3626  1.5693  1.2868
12421TIP3   OH258677   2.115   5.201  14.251  0.0315 -0.0650  0.2777
12421TIP3    H158678   2.042   5.217  14.310  1.5613  0.3955  2.0965
12421TIP3    H258679   2.145   5.288  14.226 -0.2663 -0.2571 -0.7537
12422TIP3   OH258680   0.166   5.404  14.977  0.2603 -0.2756  0.1990
12422TIP3    H158681   0.239   5.364  15.023 -0.1991 -0.3522  0.8717
12422TIP3    H258682   0.099   5.416  15.044 -1.1004 -2.0640 -0.7872
12423TIP3   OH258683   3.705   2.439   5.597 -0.2366  0.1454 -0.5399
12423TIP3    H158684   3.672   2.527   5.580 -2.4972 -0.6134 -0.2399
12423TIP3    H258685   3.734   2.407   5.511 -0.0453  0.9259 -0.7647
12424TIP3   OH258686   4.952   2.041  12.841 -0.3525 -0.1550 -0.2088
12424TIP3    H158687   4.940   2.074  12.930  2.0089  1.3455 -0.3940
12424TIP3    H258688   4.894   2.096  12.787  0.6168  1.0789 -0.0015
12425TIP3   OH258689   6.040   5.743  13.802 -0.8936  0.0233  0.2441
12425TIP3    H158690   6.056   5.677  13.870  0.2035  0.3434  0.3150
12425TIP3    H258691   6.009   5.694  13.727  3.1877 -1.0633 -0.8714
12426TIP3   OH258692   0.035   0.321  11.568  0.0972  0.2224  0.1034
12426TIP3    H158693   0.037   0.381  11.494  0.8600 -0.0065 -0.0631
12426TIP3    H258694   0.097   0.252  11.545  0.5431  0.2920  1.0750
12427TIP3   OH258695   3.612   1.017   0.970 -0.0385 -0.4939 -0.3904
12427TIP3    H158696   3.682   1.081   0.951 -1.9557  1.2849 -1.7012
12427TIP3    H258697   3.548   1.031   0.900 -1.7811 -1.9787  0.8845
12428TIP3   OH258698   4.415   3.799  16.976  0.0976  0.1811 -0.2980
12428TIP3    H158699   4.356   3.760  17.040  1.5360 -0.9980  0.3556
12428TIP3    H258700   4.402   3.747  16.896  0.6396 -0.4290  0.0056
12429TIP3   OH258701   0.498   3.148   0.176  0.0439  0.1757 -0.2222
12429TIP3    H158702   0.577   3.192   0.144 -0.8454  0.2609 -2.4238
12429TIP3    H258703   0.528   3.059   0.198  0.6621 -0.0011 -1.6727
12430TIP3   OH258704   0.699   5.044  12.008  0.3533  0.3868  0.4349
12430TIP3    H158705   0.649   5.102  12.066 -1.7374 -1.6308  0.7460
12430TIP3    H258706   0.787   5.043  12.045 -0.3559  0.9825  2.2210
12431TIP3   OH258707   5.305   4.688   4.017  0.0769 -0.0818 -0.6907
12431TIP3    H158708   5.286   4.596   4.035 -0.4917  0.1992  0.1181
12431TIP3    H258709   5.270   4.703   3.929  0.4268 -0.7058 -0.9411
12432TIP3   OH258710   6.289   6.296  11.743  0.1838  0.1004 -0.0172
12432TIP3    H158711   6.253   6.319  11.829  1.5569  1.3652  0.2239
12432TIP3    H258712   6.219   6.245  11.701 -2.1777  2.9861  0.2189
12433TIP3   OH258713   0.923   1.254  12.624  0.1970  0.1196  0.2102
12433TIP3    H158714   0.852   1.283  12.681  1.0632  0.5249  1.1003
12433TIP3    H258715   0.908   1.160  12.613  0.3502 -0.0748  1.5903
12434TIP3   OH258716   1.944   3.113  16.301  0.0503  0.4983  0.1431
12434TIP3    H158717   1.960   3.107  16.395  0.1466  0.3118  0.1158
12434TIP3    H258718   1.860   3.158  16.293 -0.3474 -0.2088  0.3344
12435TIP3   OH258719   2.004   6.399  12.344  0.1045  0.0493  0.1013
12435TIP3    H158720   2.028   6.331  12.407  0.1394 -1.7435 -1.7937
12435TIP3    H258721   2.087   6.443  12.324  0.2899 -0.1697  0.3850
12436TIP3   OH258722   2.935   6.611   2.716  0.0543 -0.1012 -0.2139
12436TIP3    H158723   2.920   6.538   2.656 -0.4284 -1.3411  1.3910
12436TIP3    H258724   2.848   6.633   2.749  0.1250  1.5594 -1.0516
12437TIP3   OH258725   5.042   1.088  12.347  0.0344 -0.4337 -0.5749
12437TIP3    H158726   5.085   1.115  12.428  0.4885 -0.4793 -0.7977
12437TIP3    H258727   4.955   1.126  12.352 -0.5297 -1.8649  0.7080
12438TIP3   OH258728   1.221   0.002   0.326  0.4682  0.1176 -0.1631
12438TIP3    H158729   1.183   0.077   0.372  0.6084  0.6009 -0.8304
12438TIP3    H258730   1.228  -0.066   0.393  2.8421  1.5531  1.1037
12439TIP3   OH258731   2.648   5.518   2.963  0.2633 -0.1185 -0.0171
12439TIP3    H158732   2.701   5.441   2.944  1.2070  0.6212 -0.4122
12439TIP3    H258733   2.582   5.488   3.025 -0.0556 -1.5018 -1.0081
12440TIP3   OH258734   5.176   1.631   1.312 -0.2870  0.3380 -1.0880
12440TIP3    H158735   5.122   1.708   1.329  0.4714  0.9369 -1.3751
12440TIP3    H258736   5.248   1.638   1.374 -0.9811 -0.9223 -0.1054
12441TIP3   OH258737   5.180   3.275   2.637 -0.1295 -0.4003 -0.1593
12441TIP3    H158738   5.177   3.254   2.731  3.0041  0.6138  0.2334
12441TIP3    H258739   5.159   3.368   2.633  0.2738 -0.3156 -0.3788
12442TIP3   OH258740   4.895   4.688  15.179 -0.3712 -0.2315 -0.0060
12442TIP3    H158741   4.875   4.758  15.117 -0.4511 -0.7947 -0.6330
12442TIP3    H258742   4.978   4.714  15.219 -0.8430  0.6501  0.4172
12443TIP3   OH258743   4.326   1.830  12.009  0.2036  0.5192  0.1421
12443TIP3    H158744   4.273   1.898  12.052  1.0836  1.5400 -0.3808
12443TIP3    H258745   4.416   1.859  12.020  0.5031  0.2065 -1.4311
12444TIP3   OH258746   0.590   0.362  14.843 -0.3356 -0.6124  0.0879
12444TIP3    H158747   0.597   0.341  14.750  0.9451  0.0108  0.0393
12444TIP3    H258748   0.631   0.448  14.852  0.7053 -1.2156  1.4161
12445TIP3   OH258749   0.382   3.650   5.132  0.5124  0.1023 -0.0295
12445TIP3    H158750   0.465   3.662   5.085  0.1274  0.2263 -0.6773
12445TIP3    H258751   0.326   3.603   5.070  0.4903 -1.0430  0.8313
12446TIP3   OH258752   3.573   0.666  14.645 -0.6235 -0.0036  0.3419
12446TIP3    H158753   3.483   0.646  14.622 -0.4762 -0.0947 -0.1603
12446TIP3    H258754   3.625   0.611  14.586 -0.2015  1.7625 -0.9721
12447TIP3   OH258755   6.503   0.309   1.128  0.9963  0.0109  0.3036
12447TIP3    H158756   6.458   0.362   1.194  1.2313 -1.0476  1.3356
12447TIP3    H258757   6.443   0.306   1.054  0.6745  1.1112  0.5103
12448TIP3   OH258758   1.781   0.697  13.152 -0.6133 -0.1521 -0.7696
12448TIP3    H158759   1.836   0.772  13.130 -0.1831  0.4670  2.1691
12448TIP3    H258760   1.754   0.713  13.242 -2.7945 -2.1786 -1.0110
12449TIP3   OH258761   1.818   0.687  11.850  0.4702 -0.4689  0.4361
12449TIP3    H158762   1.841   0.695  11.758 -0.5450 -0.4487  0.1849
12449TIP3    H258763   1.787   0.597  11.859 -0.0846 -0.2569  0.6218
12450TIP3   OH258764   0.335   1.253   0.814 -0.2484 -0.1368 -0.3882
12450TIP3    H158765   0.367   1.222   0.899 -0.8016  1.5166  0.4505
12450TIP3    H258766   0.240   1.254   0.824 -0.3941 -1.3198 -1.5400
12451TIP3   OH258767   0.108   2.367   2.706 -0.1834  0.4508 -0.0597
12451TIP3    H158768   0.014   2.375   2.724 -0.3314  1.7866 -1.3268
12451TIP3    H258769   0.151   2.391   2.789 -0.9280  0.9440  0.1827
12452TIP3   OH258770   0.826   5.744   3.705 -0.3247 -0.5540 -0.3248
12452TIP3    H158771   0.898   5.798   3.737 -1.3639  0.6868 -0.0259
12452TIP3    H258772   0.776   5.723   3.784 -0.6181 -0.9139 -0.6075
12453TIP3   OH258773   3.866   0.232  16.425  0.2875 -0.4831 -0.3316
12453TIP3    H158774   3.951   0.272  16.444  0.0682 -0.2538  0.1894
12453TIP3    H258775   3.831   0.211  16.512  0.5896 -2.1953 -0.6143
12454TIP3   OH258776   2.969   4.374  14.508 -0.4827 -0.2425 -0.9542
12454TIP3    H158777   2.892   4.420  14.475 -0.0638  1.3057  0.1963
12454TIP3    H258778   3.007   4.434  14.572  2.0183 -0.7206 -1.9371
12455TIP3   OH258779   1.930   2.049  11.080 -0.3928 -0.1881 -0.0433
12455TIP3    H158780   1.932   1.980  11.147 -0.5402 -0.2220 -0.0728
12455TIP3    H258781   1.907   2.129  11.127  2.0477  0.2883  0.3863
12456TIP3   OH258782   5.001   0.938  14.491 -0.4076  0.1172 -0.2943
12456TIP3    H158783   5.033   0.972  14.575  2.3336 -0.7053 -0.9728
12456TIP3    H258784   5.041   0.994  14.425 -1.8436  0.1955 -1.1346
12457TIP3   OH258785   2.968   4.143   0.400 -0.6924  0.0353 -0.3820
12457TIP3    H158786   2.919   4.060   0.405  0.5016 -0.6026  1.0844
12457TIP3    H258787   2.961   4.169   0.308 -0.5648 -2.0112 -1.0009
12458TIP3   OH258788   0.858   6.119  11.130 -0.6865 -0.0448  0.1202
12458TIP3    H158789   0.951   6.098  11.138 -0.8075 -0.4968  0.3869
12458TIP3    H258790   0.841   6.122  11.036 -0.9901 -2.6493  0.0398
12459TIP3   OH258791   1.149   2.063   5.962 -0.3207 -0.2933  0.3687
12459TIP3    H158792   1.124   2.090   6.050 -1.6024  0.0201 -0.0698
12459TIP3    H258793   1.158   1.968   5.967 -0.5376 -0.2921  0.8048
12460TIP3   OH258794   2.357   2.443  16.715 -0.1613  0.8267 -0.2704
12460TIP3    H158795   2.385   2.410  16.630 -0.7442 -0.1337 -0.0926
12460TIP3    H258796   2.390   2.533  16.717  0.5604  0.5950 -1.1703
12461TIP3   OH258797   4.299   0.992   2.798 -0.2218  0.3258  0.0981
12461TIP3    H158798   4.264   1.072   2.759  1.2607  0.7921 -0.2976
12461TIP3    H258799   4.320   0.935   2.724 -1.1523 -0.3932  0.3742
12462TIP3   OH258800   2.375   2.163   2.499 -0.1070  0.0466 -0.1373
12462TIP3    H158801   2.290   2.207   2.499  0.0010  0.2544 -0.2758
12462TIP3    H258802   2.412   2.183   2.413 -0.0798 -0.3548 -0.2208
12463TIP3   OH258803   3.407   5.921  13.561  0.4954  0.3106  0.1510
12463TIP3    H158804   3.326   5.968  13.540  0.2545 -0.1123  0.1148
12463TIP3    H258805   3.475   5.988  13.559  0.5602  0.2262 -2.4234
12464TIP3   OH258806   0.140   3.708  13.957 -0.6135  0.1558  0.2983
12464TIP3    H158807   0.062   3.661  13.986  0.1852 -1.3888 -0.0053
12464TIP3    H258808   0.149   3.685  13.865 -0.2802  1.0308  0.1015
12465TIP3   OH258809   5.699   2.081  14.933 -0.1553  0.0546 -0.5353
12465TIP3    H158810   5.640   2.007  14.947  0.3553 -0.3931 -0.6951
12465TIP3    H258811   5.747   2.059  14.853 -0.5615  0.9422 -1.0290
12466TIP3   OH258812   5.007   0.515   2.514  0.3201 -0.3336  0.4734
12466TIP3    H158813   5.019   0.477   2.427 -0.5134  0.0189  0.1932
12466TIP3    H258814   4.928   0.569   2.505  0.7757  0.4583  1.1931
12467TIP3   OH258815   1.257   4.113  11.948  0.0958  0.5418 -0.2473
12467TIP3    H158816   1.321   4.168  11.994  1.3058  0.4407 -1.7438
12467TIP3    H258817   1.305   4.033  11.927 -1.1086 -0.3304  0.2920
12468TIP3   OH258818   4.631   1.643  12.870 -0.4970  0.3151  0.0442
12468TIP3    H158819   4.637   1.558  12.827 -1.0613  0.4645 -0.3308
12468TIP3    H258820   4.717   1.683  12.855  0.0576 -0.5184  0.9331
12469TIP3   OH258821   1.004   3.348  11.778 -0.6586  0.1673 -0.7137
12469TIP3    H158822   0.962   3.428  11.808 -0.4600 -0.1148  0.3302
12469TIP3    H258823   1.053   3.374  11.700 -2.7900  0.4944 -1.9836
12470TIP3   OH258824   3.261   6.718   5.691  0.1805  0.8905 -0.1840
12470TIP3    H158825   3.171   6.694   5.670  0.6963 -0.3121 -1.0938
12470TIP3    H258826   3.312   6.640   5.670  1.2293  0.9297  2.0427
12471TIP3   OH258827   5.836   3.182  15.256 -0.2598  0.4678  0.2629
12471TIP3    H158828   5.837   3.155  15.164 -1.2579  0.6036  0.2099
12471TIP3    H258829   5.848   3.101  15.305 -2.3055  0.0355  0.0788
12472TIP3   OH258830   3.283   4.033   2.866  0.3781  0.6014 -0.3074
12472TIP3    H158831   3.267   4.022   2.960 -1.4155  1.5522 -0.4769
12472TIP3    H258832   3.377   4.046   2.859  0.6719 -0.5055  1.2558
12473TIP3   OH258833   2.818   0.948  16.740  0.3626 -0.3325 -0.4084
12473TIP3    H158834   2.830   1.028  16.689 -0.3137  1.7730  2.5918
12473TIP3    H258835   2.904   0.906  16.739  0.8797  0.7094 -1.5640
12474TIP3   OH258836   3.535   2.273   5.177 -0.0285 -0.3516 -0.6184
12474TIP3    H158837   3.472   2.342   5.158  1.6604  1.3992  0.0188
12474TIP3    H258838   3.586   2.263   5.096  1.6728  1.2587  0.2209
12475TIP3   OH258839   0.332   1.378  11.090 -0.4999  0.5234 -0.2805
12475TIP3    H158840   0.274   1.415  11.023 -2.0109 -1.5144 -0.1546
12475TIP3    H258841   0.406   1.343  11.040 -0.8677  0.3938 -0.7457
12476TIP3   OH258842   4.773   5.680  12.856 -0.2965 -0.0692  0.4557
12476TIP3    H158843   4.744   5.610  12.915 -2.1426 -1.3135 -1.8650
12476TIP3    H258844   4.756   5.760  12.905 -1.5059 -1.0876  1.7566
12477TIP3   OH258845   4.169   0.466   2.127 -0.0349 -0.7861 -0.0163
12477TIP3    H158846   4.251   0.500   2.162  0.2462 -0.0727 -1.3509
12477TIP3    H258847   4.124   0.542   2.091 -0.5870 -1.4142 -0.6757
12478TIP3   OH258848   4.790   0.801   2.691  0.1877 -0.0017  0.7712
12478TIP3    H158849   4.881   0.777   2.708  0.9431  1.8418 -0.5494
12478TIP3    H258850   4.771   0.870   2.754  1.1072  2.6461 -1.7627
12479TIP3   OH258851   1.543   0.528   2.744  0.3202 -0.2479  0.2602
12479TIP3    H158852   1.631   0.566   2.750  1.1759 -2.3619  1.6215
12479TIP3    H258853   1.521   0.536   2.651  1.6574  0.9684  0.0260
12480TIP3   OH258854   3.351   5.446   1.944  0.0005  1.1158  0.4147
12480TIP3    H158855   3.261   5.477   1.956 -0.2131  0.6391  0.0631
12480TIP3    H258856   3.394   5.516   1.895 -0.1758  1.3568  0.6067
12481TIP3   OH258857   1.126   4.250   6.521  0.5139 -0.0137  0.6362
12481TIP3    H158858   1.176   4.243   6.439  0.1561  0.3419  0.3926
12481TIP3    H258859   1.085   4.164   6.531 -1.8201  0.8678 -1.0727
12482TIP3   OH258860   2.299   4.401  15.403 -0.3706  0.2770 -0.0249
12482TIP3    H158861   2.207   4.398  15.377 -0.4895  0.9531  0.2891
12482TIP3    H258862   2.330   4.486  15.371  0.3759 -0.3083 -0.8801
12483TIP3   OH258863   2.498   5.845  14.018  0.4593  0.2085 -0.0242
12483TIP3    H158864   2.470   5.833  13.927  0.2981 -0.3081  0.0907
12483TIP3    H258865   2.431   5.902  14.056 -0.0395 -0.4198  0.0496
12484TIP3   OH258866   1.318   0.543   1.323  0.0350 -0.2758 -0.2508
12484TIP3    H158867   1.361   0.464   1.356  1.0278 -0.2620 -1.4350
12484TIP3    H258868   1.243   0.556   1.380  0.0986 -1.8455  0.2072
12485TIP3   OH258869   4.089   1.298  14.476  0.0604 -0.2633  0.0424
12485TIP3    H158870   4.002   1.310  14.514 -0.5045 -1.1824 -0.9428
12485TIP3    H258871   4.098   1.368  14.412  0.2309  0.0895  0.4432
12486TIP3   OH258872   5.038   4.309  16.391  0.2007 -0.6763  0.5792
12486TIP3    H158873   5.056   4.234  16.447 -1.9844 -0.8610  1.1019
12486TIP3    H258874   4.985   4.274  16.320  1.5008 -0.1192 -0.6879
12487TIP3   OH258875   3.267   6.367  10.674  0.2739 -0.8461  0.2915
12487TIP3    H158876   3.191   6.424  10.663 -1.3252 -2.8239  0.6473
12487TIP3    H258877   3.292   6.342  10.586  1.2012  0.6531  0.1147
12488TIP3   OH258878   6.162   3.715  15.508  0.1868  0.0079 -0.0621
12488TIP3    H158879   6.241   3.683  15.463  0.0918 -2.7018  1.6292
12488TIP3    H258880   6.090   3.682  15.455  0.1283  1.7267 -1.1013
12489TIP3   OH258881   0.109   6.730   3.748  0.0610 -0.6855  0.4937
12489TIP3    H158882   0.040   6.699   3.688 -0.7915  1.1273  0.5034
12489TIP3    H258883   0.117   6.660   3.813 -1.3431 -1.2056  0.1319
12490TIP3   OH258884   6.498   1.448  16.998 -0.3229 -0.7761 -0.4121
12490TIP3    H158885   6.566   1.444  17.065 -1.4328 -2.7232  0.6207
12490TIP3    H258886   6.524   1.383  16.933  0.5247  0.8042 -1.6927
12491TIP3   OH258887   5.214   4.437   4.041 -0.1139 -0.0846  0.6019
12491TIP3    H158888   5.272   4.366   4.069  0.0172  0.8448  2.8123
12491TIP3    H258889   5.137   4.429   4.098 -0.9729  0.3448 -0.4792
12492TIP3   OH258890   3.420   3.162   4.127 -0.3070 -0.6011 -0.3093
12492TIP3    H158891   3.391   3.138   4.039 -2.0953  0.3243 -0.0068
12492TIP3    H258892   3.406   3.082   4.179 -0.4223 -0.7774 -0.6089
12493TIP3   OH258893   5.601   5.128  11.281  0.6281  0.1271 -0.3310
12493TIP3    H158894   5.679   5.103  11.232  1.2973 -2.7949  2.0854
12493TIP3    H258895   5.531   5.129  11.215  1.5187 -3.5979 -1.4966
12494TIP3   OH258896   6.070   0.133  14.850  0.2665 -0.4658  0.0396
12494TIP3    H158897   6.007   0.154  14.782  0.4538  0.2008  0.0687
12494TIP3    H258898   6.035   0.174  14.929  1.0404  0.4356 -0.0703
12495TIP3   OH258899   3.153   3.063   6.187 -0.3486  0.3077 -0.1357
12495TIP3    H158900   3.121   3.131   6.246  0.1891 -0.5397  1.1587
12495TIP3    H258901   3.101   2.986   6.209 -0.1958  0.0072 -0.8192
12496TIP3   OH258902   3.898   6.723   2.399  0.6366  0.3032 -0.4372
12496TIP3    H158903   3.985   6.755   2.424 -0.4195  1.2166  2.2169
12496TIP3    H258904   3.899   6.630   2.424  0.8530  0.3027 -0.4489
12497TIP3   OH258905   1.885   2.936   5.798 -0.9138  0.1676 -0.5789
12497TIP3    H158906   1.954   2.913   5.735 -1.4653  0.6873 -1.3921
12497TIP3    H258907   1.893   3.031   5.808 -1.1222  0.1473 -0.2125
12498TIP3   OH258908   1.040   4.688   0.560 -0.4704 -0.3449 -0.0086
12498TIP3    H158909   1.090   4.681   0.641 -0.9571 -0.6151  0.2677
12498TIP3    H258910   0.952   4.658   0.582 -0.2488 -1.7473 -0.9579
12499TIP3   OH258911   1.654   3.007   5.654  0.0691  0.1906 -0.2510
12499TIP3    H158912   1.684   3.007   5.563 -0.6147  1.8191 -0.4937
12499TIP3    H258913   1.729   2.974   5.704  1.3004  1.5871 -1.1459
12500TIP3   OH258914   1.876   2.996   4.951 -0.2031  0.2793 -0.3204
12500TIP3    H158915   1.850   3.058   5.018  1.5539 -0.0090  0.6445
12500TIP3    H258916   1.858   3.041   4.868  0.6682  1.8995  0.3609
12501TIP3   OH258917   0.071   4.420   1.077  0.8041 -0.7105 -0.0923
12501TIP3    H158918   0.098   4.497   1.127 -1.6415 -1.0521  1.8705
12501TIP3    H258919   0.001   4.451   1.020  0.6185 -1.2252 -0.1453
12502TIP3   OH258920   3.349   1.733   1.605  0.1004 -0.1469  0.3544
12502TIP3    H158921   3.258   1.704   1.596  0.5195 -0.8993 -1.7447
12502TIP3    H258922   3.344   1.828   1.599 -0.5416 -0.1798  0.2861
12503TIP3   OH258923   0.326   4.790   5.113  0.1475 -0.0448 -0.1871
12503TIP3    H158924   0.340   4.868   5.167 -0.0509  0.7246 -1.2264
12503TIP3    H258925   0.259   4.740   5.160  0.9527 -0.0682  0.9716
12504TIP3   OH258926   1.131   5.511  15.857 -0.1742  0.2317  0.0688
12504TIP3    H158927   1.165   5.595  15.886 -2.5693  1.4825 -0.6459
12504TIP3    H258928   1.125   5.519  15.762 -1.4447 -0.3209  0.0868
12505TIP3   OH258929   3.915   6.143  13.590  0.1312 -0.2105 -0.3954
12505TIP3    H158930   3.913   6.115  13.499 -0.3218 -0.4479 -0.3130
12505TIP3    H258931   3.986   6.208  13.593 -1.3224  1.4840 -1.4195
12506TIP3   OH258932   2.916   6.361   2.607 -0.1051 -0.8285 -0.2404
12506TIP3    H158933   2.848   6.318   2.555 -1.5658 -0.2454  1.1406
12506TIP3    H258934   2.890   6.346   2.697  0.9410  0.4720  0.2885
12507TIP3   OH258935   1.808   0.880  12.272 -0.4562  0.3428  0.2830
12507TIP3    H158936   1.727   0.883  12.221  1.2017  0.0142 -2.4987
12507TIP3    H258937   1.823   0.787  12.288 -0.0768  0.3237 -0.1633
12508TIP3   OH258938   0.261   6.398  11.508 -0.0475 -0.5063 -0.0562
12508TIP3    H158939   0.302   6.353  11.435  1.6556  0.8505  0.0426
12508TIP3    H258940   0.211   6.469  11.468 -2.3154 -2.0990 -0.1698
12509TIP3   OH258941   0.310   5.596  16.575 -0.6145 -0.6383  0.4326
12509TIP3    H158942   0.217   5.593  16.553 -0.8453  1.3830  0.9625
12509TIP3    H258943   0.345   5.512  16.546 -1.9637 -0.1698 -2.6766
12510TIP3   OH258944   4.095   0.845  15.526 -0.2279  0.2682  0.2215
12510TIP3    H158945   4.170   0.902  15.542  0.4850 -0.5104 -0.2732
12510TIP3    H258946   4.098   0.829  15.431 -1.3730  0.7140  0.1008
12511TIP3   OH258947   6.554   2.761  11.700 -0.6952  0.4527  0.4113
12511TIP3    H158948   6.589   2.732  11.784  2.6348  1.1603 -0.6283
12511TIP3    H258949   6.499   2.688  11.671  0.0129 -0.8147  2.1290
12512TIP3   OH258950   1.610   5.450   5.396 -0.3775  0.7380  0.2651
12512TIP3    H158951   1.696   5.490   5.410 -0.2837 -0.1723  2.4148
12512TIP3    H258952   1.586   5.476   5.307  2.1773  0.9278 -0.4132
12513TIP3   OH258953   6.618   6.095  11.967  0.2998 -0.1080 -0.1718
12513TIP3    H158954   6.694   6.115  11.913 -0.3276  1.6421 -0.4280
12513TIP3    H258955   6.611   6.168  12.028 -0.3757 -0.9172  0.7371
12514TIP3   OH258956   5.696   4.348  12.501 -0.2107 -0.2090  0.3019
12514TIP3    H158957   5.632   4.363  12.432 -1.6799 -2.8109  1.0297
12514TIP3    H258958   5.780   4.373  12.462 -1.1825 -0.2978 -1.9367
12515TIP3   OH258959   0.815   0.821   0.267 -0.6241  0.0458  0.1891
12515TIP3    H158960   0.854   0.894   0.315  1.0758 -0.3487 -0.5331
12515TIP3    H258961   0.728   0.812   0.303 -0.8717  2.4515  0.3008
12516TIP3   OH258962   6.778   4.398  15.425 -0.1795 -0.0906 -0.0127
12516TIP3    H158963   6.863   4.441  15.426  0.5876 -1.5545 -0.0320
12516TIP3    H258964   6.721   4.458  15.377  0.9607  0.6951 -0.4008
12517TIP3   OH258965   2.965   4.480   4.599  0.8740 -0.0158 -0.2601
12517TIP3    H158966   3.024   4.416   4.560  0.3616 -1.7916  1.7868
12517TIP3    H258967   2.882   4.466   4.553  0.9440 -0.3587 -0.2860
12518TIP3   OH258968   6.435   4.796  17.176 -0.4758 -0.2263 -0.1225
12518TIP3    H158969   6.455   4.844  17.096  0.0385 -0.6604 -0.2490
12518TIP3    H258970   6.388   4.860  17.230  2.4927  1.2688  0.7747
12519TIP3   OH258971   3.489   2.587   3.049  0.8763  0.0632  0.8025
12519TIP3    H158972   3.580   2.577   3.021  0.0509 -2.1379 -1.2143
12519TIP3    H258973   3.478   2.520   3.117  1.0183  0.9730  1.7287
12520TIP3   OH258974   6.340   5.018  10.765 -0.1384  0.5627  0.7635
12520TIP3    H158975   6.347   5.056  10.853 -0.2297 -1.3462  1.6256
12520TIP3    H258976   6.431   5.005  10.737 -0.0017 -3.4879  2.7099
12521TIP3   OH258977   0.925   2.833  11.533  0.2418 -0.5477 -0.0406
12521TIP3    H158978   0.970   2.797  11.457  0.6954  0.4600 -0.2465
12521TIP3    H258979   0.833   2.840  11.505  0.2277 -1.1375 -0.1450
12522TIP3   OH258980   0.435   3.387   1.152 -0.0192  0.0913  0.7506
12522TIP3    H158981   0.500   3.317   1.151 -0.5825 -0.4350 -0.9045
12522TIP3    H258982   0.449   3.434   1.069  0.3831  1.9788  1.8435
12523TIP3   OH258983   0.133   4.845  14.176 -0.1707 -0.4288 -0.3104
12523TIP3    H158984   0.139   4.798  14.259 -1.1171  0.8659  0.5046
12523TIP3    H258985   0.213   4.898  14.173  0.7723 -1.8582 -1.1108
12524TIP3   OH258986   6.555   0.509   1.391 -0.3264 -1.1072 -0.1077
12524TIP3    H158987   6.478   0.548   1.432 -0.2135 -0.7127 -0.2616
12524TIP3    H258988   6.608   0.585   1.364  0.1926 -1.3689  0.1524
12525TIP3   OH258989   3.878   5.046   2.464  0.2498 -0.2628 -0.0856
12525TIP3    H158990   3.972   5.029   2.472  0.1214 -0.4430  1.2905
12525TIP3    H258991   3.840   4.960   2.444  0.5448  0.1272 -2.4478
12526TIP3   OH258992   3.449   0.511  15.187  0.6126 -0.0512  0.0736
12526TIP3    H158993   3.377   0.459  15.153 -0.5201  1.1953  0.5225
12526TIP3    H258994   3.494   0.543  15.108 -0.4607  0.6951 -0.2581
12527TIP3   OH258995   1.337   4.683  12.086  0.7477 -0.1318  0.3436
12527TIP3    H158996   1.328   4.646  11.998  1.2519  0.6162 -0.0217
12527TIP3    H258997   1.428   4.664  12.111  1.2309  1.4465 -0.1272
12528TIP3   OH258998   0.847   6.654  10.977  0.2182 -0.0949  0.2014
12528TIP3    H158999   0.922   6.691  10.931  0.2519  1.3941  1.4063
12528TIP3    H259000   0.781   6.639  10.909  1.1221 -0.1585 -0.6610
12529TIP3   OH259001   2.041   4.439   0.354 -0.4076  0.5959 -0.3846
12529TIP3    H159002   1.999   4.436   0.440  0.7648 -0.8192  0.1510
12529TIP3    H259003   2.134   4.451   0.372 -0.3503  2.0050 -1.5149
12530TIP3   OH259004   2.320   5.678   3.793  0.3144 -0.2071 -0.2082
12530TIP3    H159005   2.292   5.603   3.844  1.5012 -1.0184 -0.7286
12530TIP3    H259006   2.412   5.690   3.816  0.3833  0.5147 -0.8205
12531TIP3   OH259007   6.339   4.914  15.956 -0.0208  0.3194 -0.3492
12531TIP3    H159008   6.295   4.996  15.978 -1.5252 -0.3705 -0.7097
12531TIP3    H259009   6.391   4.893  16.033  0.0216  1.3812 -0.0844
12532TIP3   OH259010   6.402   0.438  12.732 -1.0435  0.1010  0.2711
12532TIP3    H159011   6.390   0.466  12.823  0.0391  0.0174  0.4431
12532TIP3    H259012   6.481   0.482  12.703 -0.1999 -1.5253  0.0387
12533TIP3   OH259013   0.451   3.879  14.909 -0.4795  0.7734 -0.2819
12533TIP3    H159014   0.364   3.918  14.925 -0.0935  1.5231  0.0445
12533TIP3    H259015   0.449   3.852  14.817 -1.6628 -0.7985  0.1888
12534TIP3   OH259016   1.613   3.759  16.337  0.0607 -0.1722  0.6677
12534TIP3    H159017   1.610   3.775  16.243 -0.2179 -0.0897  0.6867
12534TIP3    H259018   1.545   3.693  16.353  1.2868 -1.4639  0.5794
12535TIP3   OH259019   3.313   6.175  15.559  0.1979  0.3417 -0.0565
12535TIP3    H159020   3.227   6.149  15.526 -0.2176  0.1642  1.1519
12535TIP3    H259021   3.365   6.191  15.480 -0.6139 -0.6343 -0.8029
12536TIP3   OH259022   0.756   4.060   4.864 -0.9441  0.2306  0.3891
12536TIP3    H159023   0.713   4.133   4.820  1.5491  1.2017 -0.5043
12536TIP3    H259024   0.765   4.089   4.955 -0.7133  0.7211  0.2150
12537TIP3   OH259025   6.398   3.213   1.494 -0.2447 -0.0392  0.1048
12537TIP3    H159026   6.305   3.215   1.518 -0.5310 -1.6756 -0.7880
12537TIP3    H259027   6.420   3.120   1.492  1.9547  0.3848  2.2579
12538TIP3   OH259028   2.596   2.739   6.063 -0.2638  0.2588 -0.1637
12538TIP3    H159029   2.666   2.715   6.123 -0.1101  2.6407  0.6205
12538TIP3    H259030   2.642   2.766   5.983 -0.4193 -1.3751 -0.8258
12539TIP3   OH259031   1.721   6.184  15.242 -0.0439 -0.0368 -0.0330
12539TIP3    H159032   1.791   6.248  15.255 -0.9150  0.6000  1.7228
12539TIP3    H259033   1.648   6.234  15.205 -0.4383 -0.1626  0.5551
12540TIP3   OH259034   5.612   4.734   5.433  0.4133  0.0274  0.2044
12540TIP3    H159035   5.680   4.684   5.479 -0.8850 -0.5204  1.5765
12540TIP3    H259036   5.624   4.824   5.463 -0.5668 -0.3661  1.8117
12541TIP3   OH259037   3.763   3.364   1.149  0.2546 -0.1138 -0.2311
12541TIP3    H159038   3.703   3.408   1.209  0.2098  0.1317 -0.4567
12541TIP3    H259039   3.785   3.282   1.193 -2.1151 -1.3148 -1.1616
12542TIP3   OH259040   5.105   3.480  13.171  0.2280 -0.1618 -0.4482
12542TIP3    H159041   5.126   3.406  13.114  2.3215 -0.0376  0.1291
12542TIP3    H259042   5.164   3.549  13.143 -1.0120  0.9895 -0.2910
12543TIP3   OH259043   1.294   2.276  14.781  0.6498 -0.1718 -0.5113
12543TIP3    H159044   1.332   2.334  14.715  1.8913  0.8724  1.0780
12543TIP3    H259045   1.213   2.320  14.807 -0.5516 -1.2789 -2.3010
12544TIP3   OH259046   4.239   2.922  14.347 -0.1889 -0.3343 -0.0337
12544TIP3    H159047   4.295   2.877  14.283 -0.2576  1.3375 -1.3332
12544TIP3    H259048   4.265   3.014  14.339 -0.4284 -0.0653  2.1591
12545TIP3   OH259049   1.554   1.080   3.642 -0.1622 -0.1774 -0.3271
12545TIP3    H159050   1.538   0.994   3.603 -2.9775  0.5891 -0.9929
12545TIP3    H259051   1.514   1.075   3.728 -0.0335  0.3810 -0.2355
12546TIP3   OH259052   5.340   4.780  14.046 -1.3854 -0.3122 -0.3512
12546TIP3    H159053   5.381   4.741  14.123 -1.5540  1.0247  0.4459
12546TIP3    H259054   5.412   4.796  13.985 -0.6624  2.1400  1.0860
12547TIP3   OH259055   3.463   1.279  15.390  0.7161  0.8469  0.2445
12547TIP3    H159056   3.457   1.365  15.431 -1.0500  2.1278 -2.5177
12547TIP3    H259057   3.499   1.296  15.303 -0.5499 -1.0521 -0.7018
12548TIP3   OH259058   5.645   6.586  11.815  0.3837  0.1129  0.3648
12548TIP3    H159059   5.593   6.518  11.858  0.0847 -1.0769 -1.7936
12548TIP3    H259060   5.590   6.665  11.820 -1.1119 -0.8151 -0.7036
12549TIP3   OH259061   1.589   4.191  15.352 -0.6304  0.4264 -0.1458
12549TIP3    H159062   1.641   4.255  15.303 -0.2183 -1.0806 -1.7225
12549TIP3    H259063   1.535   4.148  15.286  1.3004 -2.9738  0.3887
12550TIP3   OH259064   3.390   3.867  11.700  0.9539 -0.4683  0.8108
12550TIP3    H159065   3.453   3.818  11.647  0.2388 -2.8089  2.0593
12550TIP3    H259066   3.438   3.891  11.779  0.3281 -2.0947  1.6828
12551TIP3   OH259067   1.976   4.770   2.809  0.0173  0.6602 -0.3209
12551TIP3    H159068   2.022   4.753   2.727 -0.8137  0.8868 -0.8367
12551TIP3    H259069   1.913   4.839   2.788 -1.9677 -1.0547 -0.1363
12552TIP3   OH259070   5.424   4.002   1.729  0.3303  0.3189 -0.4416
12552TIP3    H159071   5.398   3.911   1.717  0.8153 -0.0771  1.3257
12552TIP3    H259072   5.519   3.999   1.740  0.2025  0.8667  0.9292
12553TIP3   OH259073   3.671   6.568   3.541 -0.3020 -0.4579 -0.0722
12553TIP3    H159074   3.730   6.629   3.496 -0.7939  0.1064  0.0439
12553TIP3    H259075   3.601   6.552   3.478 -2.6673  2.8182  1.6447
12554TIP3   OH259076   3.352   2.572  13.005  0.2991 -0.0559 -0.2962
12554TIP3    H159077   3.434   2.580  12.957  0.0748  1.5922 -0.4290
12554TIP3    H259078   3.323   2.662  13.018 -1.5623 -0.6390 -0.3613
12555TIP3   OH259079   4.543   5.437  15.106 -0.1511 -0.2016 -0.1325
12555TIP3    H159080   4.598   5.416  15.031  0.1940  0.5235 -0.0901
12555TIP3    H259081   4.459   5.396  15.087  0.1968 -0.7462 -0.5153
12556TIP3   OH259082   5.303   6.282   3.368 -0.2095 -0.5165  0.0521
12556TIP3    H159083   5.282   6.368   3.406  0.5465 -0.4636  0.3617
12556TIP3    H259084   5.290   6.221   3.440 -0.9479 -0.6909 -0.2252
12557TIP3   OH259085   5.903   1.620  14.525 -0.0745 -0.6297  0.1125
12557TIP3    H159086   5.868   1.600  14.438 -1.5656  0.2544  0.4942
12557TIP3    H259087   5.872   1.548  14.580  1.0729 -1.3176 -0.1268
12558TIP3   OH259088   6.629   0.910   1.758  0.5630  0.3252  0.4586
12558TIP3    H159089   6.695   0.903   1.689 -0.0520  1.4392 -0.2598
12558TIP3    H259090   6.597   0.820   1.770 -0.5377  0.3392 -1.9254
12559TIP3   OH259091   2.870   1.888  13.096 -0.0412 -0.1116  0.3366
12559TIP3    H159092   2.835   1.971  13.062  0.8593  0.7354  1.4509
12559TIP3    H259093   2.965   1.896  13.084 -0.1193 -2.0452 -1.8936
12560TIP3   OH259094   4.401   6.585   4.776 -0.0192  0.1356 -0.3444
12560TIP3    H159095   4.320   6.628   4.749  1.3504  2.7316 -0.5219
12560TIP3    H259096   4.378   6.493   4.787 -3.2701  1.0244  0.8060
12561TIP3   OH259097   5.074   0.406   4.920 -0.4642 -0.5839  0.5187
12561TIP3    H159098   4.984   0.425   4.948 -0.1919  0.1507  0.8909
12561TIP3    H259099   5.066   0.390   4.826 -0.5451  2.4797 -0.0463
12562TIP3   OH259100   1.852   4.612  13.473  0.3536  0.8167 -0.0938
12562TIP3    H159101   1.913   4.683  13.449  1.2988  0.0377 -0.0183
12562TIP3    H259102   1.809   4.588  13.391  1.3773  0.2185 -0.4565
12563TIP3   OH259103   6.680   4.312  11.593  0.2489  0.1875 -0.0188
12563TIP3    H159104   6.621   4.367  11.541 -2.7200 -1.8393  1.0735
12563TIP3    H259105   6.718   4.251  11.530  0.0411  0.5470 -0.4961
12564TIP3   OH259106   6.155   6.091  11.412 -0.3399  0.3830  0.2019
12564TIP3    H159107   6.137   6.114  11.503 -0.2037  1.1015  0.0501
12564TIP3    H259108   6.093   6.143  11.361 -0.6195 -0.2471 -0.0993
12565TIP3   OH259109   1.166   4.893  16.694 -0.3850 -0.1486  0.3928
12565TIP3    H159110   1.122   4.820  16.739 -1.7582  0.8490  0.6911
12565TIP3    H259111   1.212   4.852  16.621 -3.5390 -0.9910 -1.2032
12566TIP3   OH259112   6.614   6.331   3.413 -0.3907  0.3906  0.2835
12566TIP3    H159113   6.665   6.366   3.486 -0.2815 -1.0129  0.8990
12566TIP3    H259114   6.642   6.240   3.406 -0.4332  0.4924 -1.4877
12567TIP3   OH259115   5.768   5.808  11.994  0.5611 -0.1889 -0.4756
12567TIP3    H159116   5.795   5.740  11.932 -0.0156 -3.2446  2.5104
12567TIP3    H259117   5.684   5.839  11.961  1.0418 -0.5480 -2.1031
12568TIP3   OH259118   0.935   3.646  12.202  0.1663  0.6301  0.0847
12568TIP3    H159119   0.995   3.720  12.196  2.0972 -1.0276 -2.3989
12568TIP3    H259120   0.877   3.656  12.126 -1.1540  0.8874  1.1071
12569TIP3   OH259121   4.170   5.412  12.337 -0.1672 -0.2683  0.2256
12569TIP3    H159122   4.229   5.487  12.332  1.4139 -1.4190  1.1737
12569TIP3    H259123   4.084   5.450  12.355  0.7394  1.2665  1.3892
12570TIP3   OH259124   1.553   5.468  15.633  0.0038 -0.2199 -0.2147
12570TIP3    H159125   1.514   5.556  15.628  0.0865 -0.3234 -3.3658
12570TIP3    H259126   1.647   5.483  15.627  0.0171 -0.5150 -0.7599
12571TIP3   OH259127   0.415   3.293  13.671 -0.0499  0.3886 -0.3757
12571TIP3    H159128   0.336   3.265  13.625  0.4301 -1.6855 -0.0247
12571TIP3    H259129   0.487   3.267  13.614  0.3917  2.8594 -0.9979
12572TIP3   OH259130   4.526   5.130   5.639 -0.2662  0.0061 -0.1343
12572TIP3    H159131   4.562   5.104   5.554  0.7392 -1.8156  0.8125
12572TIP3    H259132   4.600   5.171   5.684 -1.1635  2.2271 -0.6344
12573TIP3   OH259133   0.859   2.210   0.378  0.1103  0.5458  0.3952
12573TIP3    H159134   0.950   2.207   0.407 -0.1099 -0.9673  0.9544
12573TIP3    H259135   0.807   2.213   0.459 -0.3922 -0.2170  0.1022
12574TIP3   OH259136   3.758   3.640  13.949  0.1161 -0.9812  0.7522
12574TIP3    H159137   3.739   3.698  14.023  0.0931 -1.9611  1.5282
12574TIP3    H259138   3.777   3.699  13.876 -1.9890  0.0084  0.9792
12575TIP3   OH259139   3.067   3.829  13.736  0.0751 -0.0923 -0.3356
12575TIP3    H159140   3.115   3.911  13.728  2.2827 -1.2304  0.7393
12575TIP3    H259141   3.069   3.791  13.648  1.1507 -0.1165 -0.3086
12576TIP3   OH259142   5.916   4.754  12.386 -0.5472 -0.4672  0.3457
12576TIP3    H159143   5.977   4.806  12.334 -1.1044  0.8481  0.9960
12576TIP3    H259144   5.852   4.721  12.324  0.4731 -1.3847 -0.2563
12577TIP3   OH259145   4.452   2.178   5.568 -0.1706 -0.2703  0.6568
12577TIP3    H159146   4.426   2.141   5.652 -2.6076 -1.4788 -0.5837
12577TIP3    H259147   4.455   2.103   5.508  0.2877  0.7563 -0.6388
12578TIP3   OH259148   1.370   0.697   5.760  0.0478 -0.2658  0.0735
12578TIP3    H159149   1.336   0.612   5.790  3.2150 -1.5588  0.2120
12578TIP3    H259150   1.417   0.732   5.835 -1.9973  2.1252  0.3198
12579TIP3   OH259151   5.955   1.076   2.283 -0.2678  0.3570  0.2436
12579TIP3    H159152   5.886   1.142   2.286 -0.3153  0.2687  1.0358
12579TIP3    H259153   5.984   1.076   2.191  0.5427  2.3019  0.4804
12580TIP3   OH259154   3.744   6.131   4.298  0.1406 -0.3401  0.1680
12580TIP3    H159155   3.653   6.113   4.273 -0.0560  0.9146 -0.0357
12580TIP3    H259156   3.737   6.191   4.372  0.7959 -1.2290  0.9654
12581TIP3   OH259157   5.461   6.222  14.142 -0.2475  0.0952  0.6559
12581TIP3    H159158   5.411   6.150  14.103  1.5327 -1.0799  0.5101
12581TIP3    H259159   5.470   6.197  14.234  1.8414 -0.7230  0.2453
12582TIP3   OH259160   1.650   1.258   4.808  1.0627  0.1364 -0.0336
12582TIP3    H159161   1.654   1.182   4.749 -0.0683  0.6575 -0.8177
12582TIP3    H259162   1.558   1.284   4.806  0.8677 -0.2473  2.5167
12583TIP3   OH259163   2.258   5.320  13.450  0.8706 -0.1614 -0.2791
12583TIP3    H159164   2.293   5.409  13.448  0.4310  0.0134 -0.2366
12583TIP3    H259165   2.191   5.322  13.518  0.2284 -0.2958 -0.9118
12584TIP3   OH259166   0.738   0.817  16.818  0.4286  0.5869 -0.0094
12584TIP3    H159167   0.667   0.759  16.789 -0.7013  1.8060  0.2501
12584TIP3    H259168   0.781   0.845  16.737  1.4960 -1.2051 -0.1061
12585TIP3   OH259169   5.120   2.127   0.615  0.4078  0.4094  0.4829
12585TIP3    H159170   5.068   2.101   0.539 -1.1943 -0.5285  1.8798
12585TIP3    H259171   5.149   2.044   0.654  0.3696  0.8435  1.4632
12586TIP3   OH259172   6.035   5.464  11.828 -0.3250 -0.2269 -0.4754
12586TIP3    H159173   6.085   5.531  11.875 -0.4566  0.5377 -1.4036
12586TIP3    H259174   6.093   5.436  11.758 -0.9653  0.2298 -1.1932
12587TIP3   OH259175   3.512   0.892  15.237 -0.2970 -0.0846  0.4663
12587TIP3    H159176   3.598   0.895  15.193 -0.2050  0.9698  0.7168
12587TIP3    H259177   3.474   0.978  15.222 -2.2136 -1.1865 -1.4039
12588TIP3   OH259178   6.488   2.504  10.960 -0.7169  0.3162  0.2328
12588TIP3    H159179   6.514   2.596  10.951  0.8683 -0.1890 -0.4434
12588TIP3    H259180   6.570   2.455  10.962 -1.5548 -1.1262  0.1622
12589TIP3   OH259181   5.592   5.388   0.306  0.5316 -0.2792  0.1262
12589TIP3    H159182   5.503   5.401   0.338  0.9175  0.3455  0.9800
12589TIP3    H259183   5.582   5.333   0.228 -0.5259 -0.8993  0.6837
12590TIP3   OH259184   5.338   5.684   2.288 -0.5939  0.4722  0.0938
12590TIP3    H159185   5.334   5.779   2.286 -0.2579  0.5500  2.1528
12590TIP3    H259186   5.318   5.661   2.379  1.1785 -1.3069  0.0730
12591TIP3   OH259187   0.879   4.603  11.891 -0.1902  0.8104  0.1808
12591TIP3    H159188   0.955   4.611  11.833 -0.3617  0.0516 -0.1616
12591TIP3    H259189   0.819   4.673  11.863 -0.5672  0.0289 -1.0231
12592TIP3   OH259190   4.861   6.129  14.057  0.2384 -0.2644  0.4096
12592TIP3    H159191   4.914   6.207  14.067  0.5268 -0.0992 -2.0993
12592TIP3    H259192   4.782   6.146  14.110 -1.5444  3.4673 -3.2058
12593TIP3   OH259193   6.644   4.552   2.414  0.6162 -0.4511 -0.3822
12593TIP3    H159194   6.587   4.602   2.473  1.3270 -1.3344  1.0839
12593TIP3    H259195   6.617   4.579   2.326 -2.0346 -0.8005  0.2679
12594TIP3   OH259196   6.407   0.369   5.446 -0.3928  0.5573  0.1102
12594TIP3    H159197   6.491   0.328   5.469 -0.9726  0.2375  1.7390
12594TIP3    H259198   6.353   0.297   5.415 -0.6966  0.4275  0.9197
12595TIP3   OH259199   3.011   2.940  12.841 -0.2446  0.2566 -0.2960
12595TIP3    H159200   3.086   2.999  12.830 -0.6462  0.7672 -0.3405
12595TIP3    H259201   3.034   2.861  12.793  0.6890  0.0261  0.5147
12596TIP3   OH259202   6.505   2.930   1.802 -0.0595  0.2911  0.1831
12596TIP3    H159203   6.451   3.005   1.828  0.1700 -0.0129  1.5621
12596TIP3    H259204   6.589   2.945   1.845  0.0583 -0.6482  0.2802
12597TIP3   OH259205   0.378   4.036  11.781  0.0478 -0.2099  0.1781
12597TIP3    H159206   0.421   4.076  11.705  0.4993 -0.5208  0.2636
12597TIP3    H259207   0.404   4.091  11.855 -2.4617  1.5961 -0.2403
12598TIP3   OH259208   1.219   1.072   5.451  0.0358  0.0700  1.0626
12598TIP3    H159209   1.257   1.158   5.469  0.4995 -0.0444  0.6478
12598TIP3    H259210   1.290   1.023   5.408 -1.2877  0.6135 -1.8435
12599TIP3   OH259211   0.982   4.126   0.432  0.6121  0.0296 -0.7533
12599TIP3    H159212   1.065   4.168   0.409 -0.0198  1.3318 -0.6530
12599TIP3    H259213   0.951   4.173   0.509 -0.6313  0.1074 -1.2886
12600TIP3   OH259214   3.211   0.552  16.720 -0.2287  0.2774  0.3141
12600TIP3    H159215   3.207   0.517  16.808  2.3345  0.8912  0.7150
12600TIP3    H259216   3.286   0.509  16.680 -0.8289  0.6577 -1.2677
12601TIP3   OH259217   2.216   1.744  12.140  0.3019 -0.1398 -0.3058
12601TIP3    H159218   2.129   1.716  12.167  0.0022  0.1511 -0.9548
12601TIP3    H259219   2.275   1.704  12.203 -0.2710 -0.7179 -0.1338
12602TIP3   OH259220   1.535   0.943  12.923  0.2377 -0.0331 -0.2139
12602TIP3    H159221   1.613   0.927  12.870  0.7597 -0.6160  0.7269
12602TIP3    H259222   1.513   0.857  12.959 -0.3016  0.3055  0.2627
12603TIP3   OH259223   2.138   2.380  13.458 -0.0319  0.0179 -0.3903
12603TIP3    H159224   2.193   2.427  13.520  0.6957 -1.2463 -0.0496
12603TIP3    H259225   2.146   2.429  13.376 -0.0929  1.0434  0.2098
12604TIP3   OH259226   0.474   5.870  14.318  0.1120 -0.2720 -0.1911
12604TIP3    H159227   0.492   5.881  14.225 -2.5810 -1.7351 -0.9528
12604TIP3    H259228   0.468   5.775  14.330  0.3744 -0.0952  1.4737
12605TIP3   OH259229   6.111   0.955  12.904 -0.3385 -0.2870 -0.2703
12605TIP3    H159230   6.174   0.913  12.964 -1.4712 -0.8887  0.5170
12605TIP3    H259231   6.027   0.949  12.950 -0.6602  2.1870 -0.4762
12606TIP3   OH259232   5.949   2.487  11.610  0.1710 -0.2719 -0.1025
12606TIP3    H159233   5.932   2.438  11.690  0.3920 -1.1024 -0.5639
12606TIP3    H259234   6.022   2.441  11.569 -0.7245 -0.5608 -1.3805
12607TIP3   OH259235   6.057   2.327   1.895  0.0871  0.0966  0.6909
12607TIP3    H159236   6.129   2.387   1.916  0.6685 -0.6361  0.8170
12607TIP3    H259237   6.030   2.352   1.807  2.5203 -1.5588 -0.6051
12608TIP3   OH259238   5.507   2.614   3.329  0.4081 -0.4030 -0.0129
12608TIP3    H159239   5.570   2.543   3.315 -0.4954 -1.1485 -0.2925
12608TIP3    H259240   5.518   2.671   3.253  2.2512  0.6275  0.9716
12609TIP3   OH259241   2.531   2.780   3.617  0.1304 -0.1428 -0.1761
12609TIP3    H159242   2.609   2.738   3.654  0.8877  0.5170 -0.9885
12609TIP3    H259243   2.540   2.872   3.641  1.1967  0.5033 -2.8838
12610TIP3   OH259244   4.878   2.381   6.606 -0.1897 -0.3344 -0.2777
12610TIP3    H159245   4.919   2.347   6.526 -1.0935 -0.5978 -0.6365
12610TIP3    H259246   4.922   2.335   6.677 -1.6901 -2.6302 -0.7624
12611TIP3   OH259247   4.465   0.068   3.230  0.4424 -0.2576 -0.2902
12611TIP3    H159248   4.442   0.104   3.316  1.9903 -2.8812  1.3091
12611TIP3    H259249   4.393   0.094   3.173 -0.2959  2.1161  1.6292
12612TIP3   OH259250   1.600   5.053   3.098  0.1251 -0.0827  0.1420
12612TIP3    H159251   1.692   5.076   3.085 -0.4452  1.2642 -1.8471
12612TIP3    H259252   1.600   4.993   3.172  2.5584  0.2294  0.4353
12613TIP3   OH259253   5.100   2.427   0.553 -0.1930 -0.2753  0.2963
12613TIP3    H159254   5.184   2.382   0.545 -0.5865 -0.7834 -1.3037
12613TIP3    H259255   5.119   2.506   0.603  1.2779 -0.3149 -0.1828
12614TIP3   OH259256   6.579   2.620   0.509  0.0018  0.1537 -0.2250
12614TIP3    H159257   6.642   2.691   0.520 -1.0991  1.1016  0.1578
12614TIP3    H259258   6.630   2.540   0.517  1.7192  0.8698 -3.1247
12615TIP3   OH259259   1.699   5.903   2.379 -0.2859  0.1985  0.0702
12615TIP3    H159260   1.668   5.976   2.326  0.0271  0.3557  0.1040
12615TIP3    H259261   1.760   5.856   2.322 -0.3004  0.1023  0.1329
12616TIP3   OH259262   1.263   0.685  12.707  0.4622  0.3001 -0.0328
12616TIP3    H159263   1.229   0.609  12.661 -0.8772  2.0037 -1.9557
12616TIP3    H259264   1.280   0.749  12.638  3.8278  0.9466  1.2751
12617TIP3   OH259265   0.805   6.514  12.160 -0.1187 -0.9995 -0.0166
12617TIP3    H159266   0.824   6.461  12.238  0.4216 -0.4019  0.2606
12617TIP3    H259267   0.822   6.604  12.188 -1.0891 -0.6698 -0.4739
12618TIP3   OH259268   2.049   6.388  17.053 -0.5651  0.2150 -1.0177
12618TIP3    H159269   1.979   6.326  17.036 -0.9829  0.3356  0.2775
12618TIP3    H259270   2.130   6.337  17.040 -0.8970 -0.3369 -0.9192
12619TIP3   OH259271   6.137   0.048   6.341  0.1427  0.3449 -0.4154
12619TIP3    H159272   6.067   0.089   6.290 -0.3306  0.9097  0.6590
12619TIP3    H259273   6.092   0.013   6.419  0.4885 -2.4772 -1.4328
12620TIP3   OH259274   3.184   6.439   1.513 -0.0057 -0.5257  0.0043
12620TIP3    H159275   3.116   6.504   1.497  1.1506  0.4134 -1.2250
12620TIP3    H259276   3.190   6.391   1.430  0.1541 -1.2419  0.4293
12621TIP3   OH259277   4.224   2.905   0.794  0.2047 -0.1740 -0.2963
12621TIP3    H159278   4.208   2.846   0.721  0.2159 -0.5613  0.0083
12621TIP3    H259279   4.251   2.987   0.754 -4.6407  1.2303 -0.8919
12622TIP3   OH259280   3.785   3.919   2.668 -0.2933  0.2936  0.1854
12622TIP3    H159281   3.766   3.994   2.612  1.9849  1.5345  0.9971
12622TIP3    H259282   3.880   3.919   2.677 -0.2533 -2.6195  0.3376
12623TIP3   OH259283   0.009   5.682   3.250  0.5029  0.5617  0.3703
12623TIP3    H159284   0.098   5.687   3.217  0.3567 -0.9488 -0.2852
12623TIP3    H259285  -0.044   5.729   3.186  0.9439  2.3014  1.2583
12624TIP3   OH259286   6.016   3.269  11.867  0.4590  0.0109  0.6697
12624TIP3    H159287   5.944   3.273  11.930 -1.1272 -0.2621 -1.0814
12624TIP3    H259288   5.974   3.280  11.782  2.0434 -3.3773 -0.6685
12625TIP3   OH259289   2.079   3.640   0.978 -0.1684  0.6070  0.2897
12625TIP3    H159290   2.109   3.654   1.068  0.7852  0.1368  0.0514
12625TIP3    H259291   1.997   3.591   0.987  1.6097 -2.4072  0.8379
12626TIP3   OH259292   6.725   6.405   3.159  0.2119 -0.3354  0.0792
12626TIP3    H159293   6.688   6.393   3.246 -0.7212 -1.4254 -0.4618
12626TIP3    H259294   6.818   6.420   3.175 -0.3797  2.1485  1.4163
12627TIP3   OH259295   4.911   4.183   5.824  0.2375  0.2545 -0.3176
12627TIP3    H159296   4.921   4.196   5.729 -3.7669 -2.0505 -1.1739
12627TIP3    H259297   4.966   4.107   5.844  3.1779  2.3127 -0.1861
12628TIP3   OH259298   3.498   4.671   5.807  0.1551  0.2403 -0.1017
12628TIP3    H159299   3.583   4.631   5.828 -0.7893 -2.6799 -1.6184
12628TIP3    H259300   3.508   4.762   5.834  2.9007 -0.6363  2.1394
12629TIP3   OH259301   5.301   5.842  12.887  0.1130 -0.0619  0.4739
12629TIP3    H159302   5.235   5.910  12.899 -2.0256 -2.0968  0.5588
12629TIP3    H259303   5.251   5.760  12.882  2.5884 -1.6004  0.0039
12630TIP3   OH259304   4.269   0.877  16.374  0.1528 -0.3068 -0.3867
12630TIP3    H159305   4.313   0.950  16.418 -2.5330  2.5750 -2.2283
12630TIP3    H259306   4.339   0.831  16.327  1.8206  1.4783  0.2779
12631TIP3   OH259307   4.334   0.130   2.219  0.0054 -0.3748 -0.0403
12631TIP3    H159308   4.391   0.054   2.232  1.5176  0.7320  0.0278
12631TIP3    H259309   4.347   0.183   2.298  0.2811  0.7530 -0.8235
12632TIP3   OH259310   5.434   3.463  11.331 -0.0552 -0.1689 -0.1406
12632TIP3    H159311   5.409   3.532  11.393  1.0448 -1.9525  2.3624
12632TIP3    H259312   5.352   3.435  11.292 -0.8284  0.6473  0.8686
12633TIP3   OH259313   0.091   5.030   1.732  0.0993 -0.1574 -0.1342
12633TIP3    H159314   0.090   5.126   1.732  0.7164 -0.1417  0.5972
12633TIP3    H259315  -0.001   5.005   1.737  0.0064  0.4170  1.1532
12634TIP3   OH259316   4.069   4.340   4.456 -0.9981  0.3074 -0.1673
12634TIP3    H159317   4.107   4.313   4.539 -0.9708  0.1475 -0.2320
12634TIP3    H259318   3.997   4.279   4.441  0.1240 -0.8187 -1.1467
12635TIP3   OH259319   4.640   5.965   6.184  0.1212 -0.1968  0.4422
12635TIP3    H159320   4.616   6.039   6.240 -0.0343 -1.7138  2.4454
12635TIP3    H259321   4.674   5.899   6.245 -2.1034 -2.7501 -0.9829
12636TIP3   OH259322   6.525   1.426   0.833  0.8758  0.0529  0.1015
12636TIP3    H159323   6.567   1.480   0.766 -0.3057  0.9783  0.0915
12636TIP3    H259324   6.438   1.464   0.844  0.3590 -1.2709  0.7845
12637TIP3   OH259325   3.664   1.825  12.529  0.0150 -0.2194  0.2672
12637TIP3    H159326   3.708   1.885  12.589  1.5837 -1.8687  0.7960
12637TIP3    H259327   3.731   1.803  12.464 -0.2292 -2.1557  0.6523
12638TIP3   OH259328   3.416   4.096   5.726 -0.2347  0.7185 -0.1273
12638TIP3    H159329   3.446   4.049   5.649 -0.5629 -0.1249  0.2583
12638TIP3    H259330   3.495   4.139   5.761  0.4520 -1.1264  0.6350
12639TIP3   OH259331   2.814   4.651   3.641 -0.7875 -0.5066 -0.4008
12639TIP3    H159332   2.755   4.634   3.714 -0.9839 -0.6133 -0.5846
12639TIP3    H259333   2.872   4.575   3.638 -0.9418 -0.6188 -0.5155
12640TIP3   OH259334   5.424   2.526  14.318 -0.4167 -0.1268  0.2744
12640TIP3    H159335   5.418   2.581  14.396 -1.7568 -1.5451  1.2082
12640TIP3    H259336   5.467   2.446  14.349  0.9709  0.1311 -0.9336
12641TIP3   OH259337   4.973   0.410  15.002 -0.0932 -0.8627 -0.1162
12641TIP3    H159338   5.055   0.451  15.031 -1.5045  1.2585  1.0075
12641TIP3    H259339   4.947   0.355  15.076 -0.4938 -0.2646  0.1997
12642TIP3   OH259340   2.486   2.021  13.998  0.1209 -0.5953 -0.0646
12642TIP3    H159341   2.443   1.961  14.058  1.1853 -2.5720 -1.2408
12642TIP3    H259342   2.424   2.029  13.925  0.0172 -0.2972  0.0518
12643TIP3   OH259343   2.119   0.468   2.190 -0.1007  0.2123  0.1305
12643TIP3    H159344   2.205   0.428   2.180  1.1016  1.7688  3.4182
12643TIP3    H259345   2.073   0.410   2.251  0.1755  1.6066  1.6943
12644TIP3   OH259346   1.679   5.895  17.012  0.3495  0.1552 -0.4070
12644TIP3    H159347   1.592   5.855  17.014  0.9609 -1.2015  1.8654
12644TIP3    H259348   1.733   5.832  16.964  0.1345  0.9388 -1.7102
12645TIP3   OH259349   1.463   1.985   5.487 -0.0968 -0.3578  0.4934
12645TIP3    H159350   1.555   2.013   5.494 -0.2237  0.5174 -1.0595
12645TIP3    H259351   1.418   2.034   5.556  0.3275  0.4695  0.1912
12646TIP3   OH259352   2.506   4.338   0.168  0.2599 -0.1223  0.6188
12646TIP3    H159353   2.566   4.364   0.237 -0.9446  0.9637  1.2581
12646TIP3    H259354   2.562   4.325   0.091  1.1881  1.8797  0.9415
12647TIP3   OH259355   1.828   3.344   4.387 -0.7205  0.5460 -0.2063
12647TIP3    H159356   1.833   3.249   4.381 -3.8118  0.3566 -0.5802
12647TIP3    H259357   1.901   3.376   4.333  0.3741 -1.5930 -0.0210
12648TIP3   OH259358   4.862   6.049   0.928  0.4861  0.2488  0.7269
12648TIP3    H159359   4.911   5.980   0.883  0.4568  1.3132 -0.9583
12648TIP3    H259360   4.797   6.001   0.980  0.2471 -0.9921 -0.6902
12649TIP3   OH259361   6.036   3.035  13.397  0.1551 -0.2376 -0.1951
12649TIP3    H159362   5.975   2.961  13.400 -1.3164  1.0021  2.9871
12649TIP3    H259363   5.980   3.112  13.389  1.5362  0.6842 -1.1168
12650TIP3   OH259364   0.795   3.996  13.583  0.5641 -0.0552 -0.2919
12650TIP3    H159365   0.711   3.950  13.581  2.3342 -3.4407 -0.0651
12650TIP3    H259366   0.807   4.026  13.493 -0.6933  0.0816 -0.4289
12651TIP3   OH259367   2.658   2.470  15.730 -0.1093  0.3717  0.2532
12651TIP3    H159368   2.667   2.389  15.680  0.3293  0.7087 -0.2265
12651TIP3    H259369   2.565   2.493  15.721 -0.4408 -0.5734  1.1867
12652TIP3   OH259370   1.043   4.231   5.218  0.5428 -0.5119  0.2083
12652TIP3    H159371   1.036   4.166   5.288  0.2191  0.8939  1.5118
12652TIP3    H259372   1.132   4.221   5.184  2.1489  1.4004  3.5102
12653TIP3   OH259373   4.769   6.611  12.333 -0.2310 -0.1592  0.0984
12653TIP3    H159374   4.844   6.592  12.277  0.3688  0.9916  0.4852
12653TIP3    H259375   4.807   6.648  12.413 -1.0803 -1.7573  1.2664
12654TIP3   OH259376   3.782   5.535   1.921 -0.1097 -0.1614 -0.2631
12654TIP3    H159377   3.870   5.509   1.894 -1.6550 -1.6721 -4.2977
12654TIP3    H259378   3.739   5.454   1.947 -0.7120  0.3485  0.3427
12655TIP3   OH259379   4.332   5.075  14.487  0.1122 -0.4105  0.3176
12655TIP3    H159380   4.331   4.988  14.447  1.4531  0.5795 -1.9946
12655TIP3    H259381   4.424   5.092  14.505 -0.0445  0.8580 -0.0209
12656TIP3   OH259382   2.321   5.708   1.513  0.3897  0.8444 -0.4710
12656TIP3    H159383   2.322   5.752   1.428  0.2299  1.0035 -0.3929
12656TIP3    H259384   2.359   5.622   1.497  0.1261  0.7814 -0.7544
12657TIP3   OH259385   3.260   3.312  15.616 -0.0777 -0.3268  0.1142
12657TIP3    H159386   3.286   3.402  15.636  1.7367 -0.5198 -1.2659
12657TIP3    H259387   3.292   3.261  15.689  1.0257 -0.1750 -0.2586
12658TIP3   OH259388   5.201   5.990   1.887  0.0562  0.3429 -0.3059
12658TIP3    H159389   5.121   6.009   1.839 -0.1897 -0.3495 -0.1776
12658TIP3    H259390   5.271   5.996   1.822 -0.0544  1.3343 -0.3368
12659TIP3   OH259391   2.908   0.502   0.693  0.2564  0.1453 -0.3827
12659TIP3    H159392   2.944   0.518   0.606 -0.3766  0.2536 -0.6306
12659TIP3    H259393   2.816   0.530   0.686  0.2771  0.4206  0.3965
12660TIP3   OH259394   4.671   3.926  14.564 -0.3820 -0.0016 -0.0817
12660TIP3    H159395   4.699   4.008  14.524 -0.9257 -0.2286 -0.9366
12660TIP3    H259396   4.737   3.862  14.534 -0.9147 -0.2164 -0.7988
12661TIP3   OH259397   6.605   0.924  11.881  0.0247  0.1705  0.5536
12661TIP3    H159398   6.639   0.869  11.810  1.6809  1.4208  0.3380
12661TIP3    H259399   6.565   0.863  11.942 -1.4147 -0.9255 -1.4490
12662TIP3   OH259400   3.538   6.329   4.762 -0.1182 -0.0845 -0.3086
12662TIP3    H159401   3.516   6.236   4.758 -1.1290  0.0916  0.8536
12662TIP3    H259402   3.462   6.370   4.803  0.2834  1.2686 -0.8818
12663TIP3   OH259403   1.587   5.241  15.176  0.2663 -0.0460 -0.4893
12663TIP3    H159404   1.519   5.308  15.177  1.1066  0.8441 -1.0942
12663TIP3    H259405   1.593   5.211  15.267 -1.2170 -0.4539 -0.5138
12664TIP3   OH259406   4.139   5.561  14.134 -0.1029 -0.1785  0.1242
12664TIP3    H159407   4.095   5.534  14.215 -1.9424  1.5603 -0.2537
12664TIP3    H259408   4.165   5.651  14.150  0.1621 -0.0582 -0.9660
12665TIP3   OH259409   2.948   3.482  14.632 -0.8985 -0.2249  0.4777
12665TIP3    H159410   2.933   3.522  14.546  2.0019  0.2905  0.1512
12665TIP3    H259411   2.937   3.554  14.694  0.9511  0.3555  0.1691
12666TIP3   OH259412   0.787   3.320   1.209  0.1959 -0.3531  0.1168
12666TIP3    H159413   0.839   3.266   1.268  1.7741 -2.6752 -3.2318
12666TIP3    H259414   0.723   3.259   1.171 -0.0952  0.8438 -1.3534
12667TIP3   OH259415   5.829   1.008  16.181 -0.2233 -0.2229  0.0555
12667TIP3    H159416   5.849   1.079  16.121 -0.7172  0.6652  0.9169
12667TIP3    H259417   5.904   1.003  16.239 -0.8084  0.5881  0.9094
12668TIP3   OH259418   5.732   5.285   5.010  0.0522 -0.3546 -0.1577
12668TIP3    H159419   5.733   5.190   5.011  0.7539 -0.3680 -1.2672
12668TIP3    H259420   5.810   5.310   4.961  0.2191  0.8058  0.6617
12669TIP3   OH259421   6.609   1.325   5.271  0.2918 -0.2651 -0.2901
12669TIP3    H159422   6.667   1.392   5.234  0.8044 -1.6469 -2.0518
12669TIP3    H259423   6.521   1.357   5.251  0.4968  0.4262 -0.1269
12670TIP3   OH259424   3.271   6.232   4.940 -0.1692  0.4613 -0.1398
12670TIP3    H159425   3.302   6.171   4.873 -2.3923 -0.7260 -0.1284
12670TIP3    H259426   3.184   6.259   4.910 -0.0570  2.0511  0.8956
12671TIP3   OH259427   5.087   2.741  13.753 -0.5584  0.6340 -0.1503
12671TIP3    H159428   5.041   2.741  13.837  0.2257  3.1911  0.3225
12671TIP3    H259429   5.176   2.771  13.773  0.3013 -0.8106 -1.5853
12672TIP3   OH259430   1.015   0.143  11.056 -0.0563 -0.3330  0.1595
12672TIP3    H159431   1.089   0.204  11.050 -0.9827  0.8229  0.3311
12672TIP3    H259432   1.006   0.107  10.968 -0.5965  1.0976 -0.3794
12673TIP3   OH259433   4.186   1.869   6.090  0.1393 -0.0648  0.3709
12673TIP3    H159434   4.168   1.963   6.093  3.6593  0.6741  2.0229
12673TIP3    H259435   4.279   1.864   6.067 -0.2229 -3.2013 -0.5840
12674TIP3   OH259436   3.757   6.081  14.346 -0.0266  0.4366  0.0803
12674TIP3    H159437   3.682   6.121  14.301 -0.3253 -1.4424 -1.1526
12674TIP3    H259438   3.719   6.040  14.424 -0.2693 -0.3018 -0.4148
12675TIP3   OH259439   3.303   0.059  12.922 -0.9097  0.2826 -0.0625
12675TIP3    H159440   3.216   0.018  12.913 -0.1660 -1.2981 -0.2984
12675TIP3    H259441   3.347   0.007  12.989 -0.0696  0.9472 -0.0936
12676TIP3   OH259442   6.314   6.158  15.193 -0.1874 -0.3883  0.9117
12676TIP3    H159443   6.405   6.173  15.219 -0.7603  0.5976  2.3591
12676TIP3    H259444   6.266   6.233  15.227 -1.2992 -0.0504 -1.2875
12677TIP3   OH259445   6.237   1.998   5.076 -0.0401  0.6404 -0.6268
12677TIP3    H159446   6.329   1.975   5.088  0.3808  2.2818 -0.6060
12677TIP3    H259447   6.221   1.985   4.982  0.3970  1.0145 -0.7528
12678TIP3   OH259448   1.939   6.529  16.154  0.3792 -0.3833 -0.1150
12678TIP3    H159449   1.865   6.537  16.093  0.2027 -0.0304  0.1443
12678TIP3    H259450   1.954   6.618  16.185  0.9539 -0.4476 -0.2100
12679TIP3   OH259451   0.250   2.762  11.876 -0.0797  0.1037 -0.0933
12679TIP3    H159452   0.198   2.772  11.796 -1.0880  1.8699  0.7367
12679TIP3    H259453   0.333   2.724  11.847 -1.4563 -1.8373 -1.5937
12680TIP3   OH259454   5.064   5.941  16.556  0.3837 -0.1580 -0.3423
12680TIP3    H159455   5.064   6.009  16.624  1.3559  0.6138 -1.0990
12680TIP3    H259456   5.086   5.860  16.603 -0.5191  0.0909  0.5194
12681TIP3   OH259457   0.067   4.146  16.671 -0.0553 -0.0470 -0.6428
12681TIP3    H159458   0.024   4.088  16.607 -1.0424  1.2046 -1.1390
12681TIP3    H259459   0.011   4.141  16.749  0.1628 -0.1698 -0.4931
12682TIP3   OH259460   0.633   2.561  14.974 -0.3495  0.1440  0.0513
12682TIP3    H159461   0.708   2.536  14.921 -0.0800 -0.3346  0.6499
12682TIP3    H259462   0.631   2.496  15.044 -0.9814  0.4925  0.3575
12683TIP3   OH259463   4.569   1.563   3.874  0.0771 -0.1311 -0.7031
12683TIP3    H159464   4.576   1.640   3.931 -0.2132 -0.9489  0.4605
12683TIP3    H259465   4.527   1.596   3.795 -3.8041  0.1551  1.3551
12684TIP3   OH259466   5.486   0.239  14.142  0.4070  0.5217  0.0470
12684TIP3    H159467   5.427   0.206  14.210 -0.9298  2.9182  0.1040
12684TIP3    H259468   5.443   0.318  14.109  2.5447  1.1069 -1.4619
12685TIP3   OH259469   4.525   6.415   2.930  0.3925  0.2185 -0.0345
12685TIP3    H159470   4.473   6.494   2.914 -1.7565 -1.2221 -0.3391
12685TIP3    H259471   4.545   6.382   2.842  0.5195 -0.0783  0.1053
12686TIP3   OH259472   1.439   6.708   6.195 -0.2312 -0.0785 -0.5999
12686TIP3    H159473   1.462   6.767   6.267  0.3672 -1.0249  0.0077
12686TIP3    H259474   1.521   6.665   6.173 -0.9149 -1.6913 -0.0897
12687TIP3   OH259475   5.049   6.703   5.111 -0.2308 -0.2424 -0.4978
12687TIP3    H159476   5.012   6.617   5.091  1.0862 -1.4514  2.0146
12687TIP3    H259477   5.142   6.685   5.127 -0.3116  1.3345  1.8997
12688TIP3   OH259478   5.614   1.075  14.829  0.1008 -0.5109  0.0442
12688TIP3    H159479   5.684   1.011  14.818 -0.1113 -0.7382  0.0218
12688TIP3    H259480   5.640   1.128  14.904  0.3743 -0.4945 -0.0645
12689TIP3   OH259481   4.473   1.732  13.610  0.0627 -0.2904 -0.6383
12689TIP3    H159482   4.385   1.695  13.605 -0.0753  0.0964 -1.0130
12689TIP3    H259483   4.524   1.680  13.548  0.7801 -2.4123  1.5930
12690TIP3   OH259484   6.021   1.213  13.100  0.3806 -0.2646  0.0602
12690TIP3    H159485   6.113   1.189  13.106  0.3414 -0.5484 -0.4307
12690TIP3    H259486   6.020   1.289  13.042  0.3134 -0.2030  0.1410
12691TIP3   OH259487   1.075   4.632  12.851  0.4488  0.2946  0.3345
12691TIP3    H159488   1.073   4.537  12.836  1.7671  0.5812 -1.9689
12691TIP3    H259489   1.033   4.669  12.773  0.2786  1.6185  1.0471
12692TIP3   OH259490   3.603   0.569   0.236 -0.6909 -0.1189 -0.3506
12692TIP3    H159491   3.512   0.596   0.233 -1.4274 -2.4818 -0.5844
12692TIP3    H259492   3.637   0.591   0.149 -1.4464 -0.5222 -0.7559
12693TIP3   OH259493   2.272   6.558   3.443  0.1021  0.0811  0.1290
12693TIP3    H159494   2.271   6.466   3.467  0.5327  0.0953  0.2026
12693TIP3    H259495   2.212   6.600   3.505  1.2943  0.1364  1.2667
12694TIP3   OH259496   4.680   6.496   6.109 -0.3231 -0.5232  0.7522
12694TIP3    H159497   4.694   6.424   6.170 -0.3630 -0.6489  0.6140
12694TIP3    H259498   4.590   6.524   6.126 -0.1386 -0.1772  1.1522
12695TIP3   OH259499   4.451   5.780  17.051 -0.0313 -0.0623 -0.1452
12695TIP3    H159500   4.465   5.874  17.046 -0.7570  0.0586  0.0581
12695TIP3    H259501   4.360   5.770  17.080 -0.2413 -0.8238 -1.0180
12696TIP3   OH259502   6.220   2.465   1.459  0.3652  0.2626  0.7478
12696TIP3    H159503   6.282   2.409   1.411  1.6756  3.0102 -0.8819
12696TIP3    H259504   6.143   2.409   1.472  2.0907 -2.3099  0.2971
12697TIP3   OH259505   2.186   1.144  13.312  0.6185 -0.4453  0.3291
12697TIP3    H159506   2.262   1.172  13.361  1.0720 -1.8933  0.4732
12697TIP3    H259507   2.201   1.176  13.223  1.4006 -0.7504  0.3542
12698TIP3   OH259508   0.762   0.250  12.425 -0.0282 -0.2681  0.5058
12698TIP3    H159509   0.715   0.220  12.503  1.2700 -1.0752  0.9910
12698TIP3    H259510   0.848   0.208  12.431 -0.3898 -1.4600 -2.0586
12699TIP3   OH259511   3.453   1.243   3.502  0.4271 -0.1681 -0.0934
12699TIP3    H159512   3.502   1.268   3.581  1.0728  0.0523 -0.5593
12699TIP3    H259513   3.447   1.324   3.451  0.1527 -0.3467 -0.3426
12700TIP3   OH259514   5.590   0.594  11.358  0.2502 -0.9079  0.6381
12700TIP3    H159515   5.611   0.613  11.267 -0.6037 -1.5957  0.2977
12700TIP3    H259516   5.622   0.671  11.406 -3.7632  1.7962 -0.7985
12701TIP3   OH259517   3.852   3.771   4.246  0.7606 -0.0820 -0.0706
12701TIP3    H159518   3.943   3.792   4.267  1.0651 -0.8588 -0.5671
12701TIP3    H259519   3.802   3.845   4.278  1.8981  2.0441 -2.9933
12702TIP3   OH259520   2.546   3.491   2.480 -0.5020 -0.4510 -0.3643
12702TIP3    H159521   2.481   3.456   2.419 -2.7857  0.3263  1.5359
12702TIP3    H259522   2.519   3.458   2.566  1.4280  0.1621  0.5001
12703TIP3   OH259523   2.990   1.837  16.363  0.6122 -0.1485  0.5836
12703TIP3    H159524   2.921   1.887  16.320  0.5445 -0.4231  0.3719
12703TIP3    H259525   3.003   1.761  16.307  3.2457  1.4156 -1.0192
12704TIP3   OH259526   5.530   6.102   5.221  0.5103  0.0964  0.2171
12704TIP3    H159527   5.481   6.145   5.291 -0.1279  0.5077 -0.4763
12704TIP3    H259528   5.462   6.059   5.168  1.1431 -1.9372  1.0025
12705TIP3   OH259529   2.079   6.325   1.248 -0.9345 -0.0328 -1.0509
12705TIP3    H159530   2.138   6.335   1.173 -1.1234  1.2934 -1.0323
12705TIP3    H259531   2.080   6.411   1.292 -2.3652 -0.1893 -0.6708
12706TIP3   OH259532   0.250   1.389  15.520 -1.2932  0.0536  0.0757
12706TIP3    H159533   0.305   1.389  15.442 -0.5610  0.7254  0.5813
12706TIP3    H259534   0.246   1.297  15.546  1.0522  0.1836  1.0286
12707TIP3   OH259535   6.766   5.484  15.799 -0.4117  0.3322 -0.1242
12707TIP3    H159536   6.775   5.523  15.712  2.3431  1.3464  0.5363
12707TIP3    H259537   6.824   5.408  15.796  0.4983  0.9590  1.1142
12708TIP3   OH259538   4.509   3.432  14.324 -0.0766 -0.1881  0.1963
12708TIP3    H159539   4.478   3.442  14.234 -1.8455 -1.6241  0.6174
12708TIP3    H259540   4.533   3.520  14.351  2.4327 -0.0036 -2.3492
12709TIP3   OH259541   0.449   6.642  14.791 -0.2842  0.3815 -0.7249
12709TIP3    H159542   0.502   6.586  14.847  0.5714 -0.1711 -2.0746
12709TIP3    H259543   0.401   6.581  14.734 -1.2230  0.9287 -0.5387
12710TIP3   OH259544   5.978   0.208  12.262  0.1966 -0.3546 -0.0893
12710TIP3    H159545   5.948   0.288  12.304  0.6789 -0.3267  0.2124
12710TIP3    H259546   5.899   0.158  12.245 -0.0738  0.0147  0.0763
12711TIP3   OH259547   2.377   3.853   0.033 -0.5242  0.0516  0.5661
12711TIP3    H159548   2.377   3.863  -0.062  1.8857  2.4606  0.7916
12711TIP3    H259549   2.446   3.910   0.064 -1.8809  0.0105  3.8820
12712TIP3   OH259550   4.132   4.113   4.121 -0.3163 -0.0447 -0.1850
12712TIP3    H159551   4.183   4.189   4.092 -2.2448  1.3039 -0.0944
12712TIP3    H259552   4.075   4.093   4.047 -1.8683  0.4130  0.8758
12713TIP3   OH259553   5.009   6.774  12.875  0.4473  0.0901 -0.3327
12713TIP3    H159554   4.980   6.865  12.885  0.1358 -0.0705  0.2677
12713TIP3    H259555   5.047   6.752  12.960 -0.3267 -0.6402 -0.1748
12714TIP3   OH259556   2.416   3.649   2.127  0.1827  0.0746  0.2050
12714TIP3    H159557   2.506   3.669   2.151  0.6121 -1.0402 -0.4279
12714TIP3    H259558   2.409   3.554   2.136 -0.6552  0.0470 -0.6286
12715TIP3   OH259559   6.382   1.607  11.822 -0.0212 -0.4079  0.4701
12715TIP3    H159560   6.435   1.567  11.891  0.7631 -1.5518 -0.7994
12715TIP3    H259561   6.390   1.549  11.747  0.5232  1.7249 -1.1793
12716TIP3   OH259562   0.866   5.052   3.905 -0.3896  0.3436 -0.2382
12716TIP3    H159563   0.813   5.074   3.828  0.5953  0.5852 -0.8542
12716TIP3    H259564   0.805   5.007   3.963 -0.8425 -1.0527 -1.7326
12717TIP3   OH259565   1.339   5.114  14.187 -0.1156 -0.6441 -0.2982
12717TIP3    H159566   1.289   5.173  14.243 -0.2814  0.1359 -1.2651
12717TIP3    H259567   1.331   5.151  14.099  3.4544  0.4435 -0.2699
12718TIP3   OH259568   2.673   6.597   2.769  0.1682 -0.0274  0.3925
12718TIP3    H159569   2.620   6.522   2.742  1.7916 -0.8705 -0.5632
12718TIP3    H259570   2.612   6.654   2.816 -1.5157 -1.0666 -0.4707
12719TIP3   OH259571   1.894   5.563  13.649 -0.1948  0.6654  0.0151
12719TIP3    H159572   1.919   5.652  13.625  1.9780  0.6280  1.9776
12719TIP3    H259573   1.826   5.540  13.586 -1.2158  3.9099 -0.1515
12720TIP3   OH259574   4.174   2.753  10.771 -0.4015  0.4013  0.7410
12720TIP3    H159575   4.146   2.812  10.702  1.6235 -1.2593 -1.5730
12720TIP3    H259576   4.093   2.711  10.800 -1.2986  1.2484 -0.4908
12721TIP3   OH259577   1.974   2.194  16.054  0.0647  0.1701  0.2188
12721TIP3    H159578   1.916   2.249  16.002  0.3389 -0.1941 -0.4858
12721TIP3    H259579   1.950   2.104  16.029  0.4429  0.0012  0.4546
12722TIP3   OH259580   0.987   1.457  11.658 -0.2292  0.2096  0.3953
12722TIP3    H159581   0.960   1.461  11.567  0.2209  1.3977  0.3149
12722TIP3    H259582   1.082   1.470  11.656 -0.0004 -1.2011  0.9187
12723TIP3   OH259583   5.953   1.936   2.859 -0.4531  0.5791 -1.0628
12723TIP3    H159584   6.014   2.009   2.853 -1.3053  1.4430  0.4519
12723TIP3    H259585   5.937   1.910   2.768  1.5427  0.8421 -1.4957
12724TIP3   OH259586   1.494   6.463   1.368 -0.1837  0.1041  0.2530
12724TIP3    H159587   1.587   6.482   1.381 -0.0516 -0.5123  0.2455
12724TIP3    H259588   1.475   6.393   1.430 -0.3947 -0.4682 -0.4484
12725TIP3   OH259589   0.789   3.217   4.753 -0.0873 -0.6846 -0.2845
12725TIP3    H159590   0.879   3.186   4.763 -0.6057 -2.6002 -1.4815
12725TIP3    H259591   0.759   3.181   4.670 -1.8378  0.2671 -0.0985
12726TIP3   OH259592   3.459   1.115  12.957 -0.3210  0.2003  0.0424
12726TIP3    H159593   3.520   1.042  12.966 -2.2421 -1.3394  0.7792
12726TIP3    H259594   3.496   1.168  12.886  1.3834 -1.1921 -0.1324
12727TIP3   OH259595   4.301   4.214   2.502 -0.2966  0.1470 -0.2493
12727TIP3    H159596   4.237   4.172   2.559 -2.3695  1.1135 -1.7921
12727TIP3    H259597   4.278   4.184   2.414  1.5548  0.3041 -0.8145
12728TIP3   OH259598   4.145   0.979   3.083  0.1758 -0.0551 -0.0235
12728TIP3    H159599   4.117   1.034   3.156  0.1604 -0.1808  0.0658
12728TIP3    H259600   4.066   0.933   3.056 -0.1227  1.0205 -1.0176
12729TIP3   OH259601   2.481   1.166  11.397  0.2076  0.7354  0.5181
12729TIP3    H159602   2.534   1.230  11.444  1.1504  1.6520 -1.7042
12729TIP3    H259603   2.396   1.168  11.442  0.0972  3.8469  0.3255
12730TIP3   OH259604   0.852   6.591   2.423  0.4034  0.4676  0.1654
12730TIP3    H159605   0.833   6.599   2.516  1.2582  2.6009  0.1753
12730TIP3    H259606   0.790   6.650   2.380 -1.6505 -2.3089 -0.8588
12731TIP3   OH259607   3.429   2.002   3.320 -0.2776 -0.1814 -0.3294
12731TIP3    H159608   3.513   2.030   3.358 -0.0426 -0.9821 -0.2281
12731TIP3    H259609   3.410   2.067   3.253  0.3380  0.1131 -0.2294
12732TIP3   OH259610   4.615   6.042   1.617  0.2263 -0.2151  0.0437
12732TIP3    H159611   4.682   6.029   1.549  1.5744 -0.5936  1.4007
12732TIP3    H259612   4.651   6.112   1.672 -0.7812 -0.0155  0.4462
12733TIP3   OH259613   2.708   2.275  16.503 -0.2890 -0.2109  0.8167
12733TIP3    H159614   2.686   2.348  16.562 -1.0685 -0.5373  0.9404
12733TIP3    H259615   2.796   2.249  16.529 -0.1300  0.4783  0.9888
12734TIP3   OH259616   6.719   2.358  12.894  0.2005 -0.1748 -0.3645
12734TIP3    H159617   6.758   2.298  12.830 -2.2169 -0.4898 -1.5943
12734TIP3    H259618   6.740   2.445  12.861  2.8177 -0.3023  0.8639
12735TIP3   OH259619   4.453   6.757   1.886 -0.2582  0.6649  0.4829
12735TIP3    H159620   4.471   6.849   1.907  2.3671  0.8373 -2.1065
12735TIP3    H259621   4.453   6.713   1.970  1.1919  2.6285  1.5516
12736TIP3   OH259622   2.470   6.198  12.515 -0.1749 -0.8284  1.0769
12736TIP3    H159623   2.488   6.122  12.459 -0.7962  1.0282 -1.7431
12736TIP3    H259624   2.556   6.226  12.546  0.3249 -1.2114  0.0895
12737TIP3   OH259625   1.951   0.651  11.605 -0.0261 -0.2991 -0.1233
12737TIP3    H159626   1.978   0.686  11.520  0.2412 -0.8459 -0.2674
12737TIP3    H259627   1.981   0.560  11.604  1.7878  0.2532  1.3570
12738TIP3   OH259628   3.390   4.208   0.908  0.1817 -0.5017 -0.3100
12738TIP3    H159629   3.444   4.233   0.983  0.7927 -1.0735 -0.5578
12738TIP3    H259630   3.361   4.291   0.871 -1.6819 -0.2062  1.6697
12739TIP3   OH259631   0.028   5.938   1.720 -0.4645 -0.0608 -0.0254
12739TIP3    H159632   0.018   5.916   1.627  2.1746  1.0544 -0.5994
12739TIP3    H259633  -0.017   5.866   1.766  0.6671 -2.1469 -2.0688
12740TIP3   OH259634   3.259   2.512  11.774 -0.4859 -0.1976 -0.5011
12740TIP3    H159635   3.299   2.426  11.778  0.2085  0.0504 -1.8151
12740TIP3    H259636   3.239   2.534  11.865  1.3977 -0.7615  0.0589
12741TIP3   OH259637   4.778   6.347  16.431  0.5895 -0.0143  0.0550
12741TIP3    H159638   4.750   6.378  16.345  1.8515  1.1568  0.0552
12741TIP3    H259639   4.759   6.253  16.429 -2.0969  0.5080 -0.4088
12742TIP3   OH259640   4.369   5.720   3.325 -0.1376  0.3394  0.1047
12742TIP3    H159641   4.280   5.741   3.351 -0.1703  0.6653 -0.2653
12742TIP3    H259642   4.407   5.805   3.301  0.3290  0.2298  0.4359
12743TIP3   OH259643   4.819   0.483   4.991 -0.4740  0.4420  0.4882
12743TIP3    H159644   4.793   0.575   4.979 -3.6497 -0.3420  0.9681
12743TIP3    H259645   4.758   0.450   5.057  1.2777 -1.7741  1.0393
12744TIP3   OH259646   3.050   5.371  16.584 -0.1985  0.4476 -0.5091
12744TIP3    H159647   3.090   5.324  16.657  0.8483 -0.9813 -1.9753
12744TIP3    H259648   2.961   5.338  16.580  0.6302 -1.7360 -1.7546
12745TIP3   OH259649   1.349   3.702  11.223  0.4131 -0.2653  0.0914
12745TIP3    H159650   1.292   3.626  11.220  1.0653 -0.7787  0.4918
12745TIP3    H259651   1.345   3.739  11.134 -1.0055  0.0735  0.2813
12746TIP3   OH259652   3.524   6.661  16.315 -0.0988  0.0631 -0.2799
12746TIP3    H159653   3.596   6.613  16.355 -1.7281 -1.0425  1.3775
12746TIP3    H259654   3.466   6.594  16.281 -0.9744  0.9182 -0.4991
12747TIP3   OH259655   2.335   5.568   2.759  0.4167 -0.1865 -0.8132
12747TIP3    H159656   2.263   5.516   2.794 -1.4580  1.1821 -2.4930
12747TIP3    H259657   2.348   5.534   2.670  1.2702  0.1208 -0.8084
12748TIP3   OH259658   1.441   4.197   1.894 -0.2396  0.1624 -0.8495
12748TIP3    H159659   1.380   4.255   1.848 -0.5056 -0.7711 -1.6851
12748TIP3    H259660   1.404   4.190   1.982  0.8858  2.8613 -0.0898
12749TIP3   OH259661   4.550   5.601   3.535 -0.2238 -0.0847  0.3090
12749TIP3    H159662   4.476   5.622   3.477 -0.0683 -0.9573 -0.2167
12749TIP3    H259663   4.626   5.601   3.477  0.4295  2.2775  1.1069
12750TIP3   OH259664   2.230   4.270  14.083 -0.2890 -0.0468 -0.2914
12750TIP3    H159665   2.215   4.244  13.992 -0.5311  2.1300 -0.9149
12750TIP3    H259666   2.312   4.227  14.107 -0.8155 -1.5671 -1.1462
12751TIP3   OH259667   2.975   6.743   4.815  0.3823  1.0174 -0.7443
12751TIP3    H159668   2.939   6.760   4.728 -0.0365  0.7318 -0.6278
12751TIP3    H259669   2.912   6.782   4.875 -0.7007 -1.0953 -0.4667
12752TIP3   OH259670   4.893   0.292  15.304 -0.1822 -0.1441 -0.6296
12752TIP3    H159671   4.800   0.283  15.285 -0.2330 -1.2460  0.1077
12752TIP3    H259672   4.898   0.354  15.377 -0.3220 -0.0016 -0.7411
12753TIP3   OH259673   1.628   6.367  10.749  0.3769  0.0742 -0.1890
12753TIP3    H159674   1.554   6.356  10.689 -0.0525  1.5535  0.0378
12753TIP3    H259675   1.693   6.304  10.720 -0.1762  0.1784 -1.6674
12754TIP3   OH259676   0.022   2.600   0.962  0.5448  0.5144 -0.2983
12754TIP3    H159677  -0.004   2.534   1.026  0.1118  1.0362  0.0771
12754TIP3    H259678   0.118   2.597   0.961  0.6739  1.9413  1.9548
12755TIP3   OH259679   0.653   2.629  12.936 -0.5598 -0.4010  0.1968
12755TIP3    H159680   0.700   2.636  12.853 -0.9139 -1.3757 -0.0855
12755TIP3    H259681   0.722   2.629  13.003 -0.3160  1.2313 -0.0344
12756TIP3   OH259682   4.291   4.599   1.374 -0.0368 -0.0973 -0.0222
12756TIP3    H159683   4.290   4.503   1.376 -0.0702 -0.1240 -1.0960
12756TIP3    H259684   4.207   4.623   1.335 -1.2865  0.4679  2.8762
12757TIP3   OH259685   4.238   6.164   3.582  0.2586 -0.2189 -0.7588
12757TIP3    H159686   4.198   6.085   3.545  0.2570 -0.7939  0.4508
12757TIP3    H259687   4.225   6.155   3.676 -1.3071  2.0755 -0.7126
12758TIP3   OH259688   5.962   1.306   2.696 -0.4296 -0.4401  0.2426
12758TIP3    H159689   6.010   1.242   2.644 -1.2253 -1.6171  0.9198
12758TIP3    H259690   5.881   1.261   2.720 -1.1658  0.9583  0.4282
12759TIP3   OH259691   0.641   2.169  13.761 -0.3877 -0.1447 -0.1614
12759TIP3    H159692   0.598   2.110  13.822  2.0409 -1.6944  0.1364
12759TIP3    H259693   0.603   2.148  13.676 -2.3101  0.5813  0.5111
12760TIP3   OH259694   2.695   1.328  16.316 -0.2786  0.6118 -0.2705
12760TIP3    H159695   2.643   1.404  16.338 -1.9614 -0.3878 -0.7198
12760TIP3    H259696   2.639   1.253  16.336  0.2045 -0.4345 -2.6338
12761TIP3   OH259697   6.707   2.249  11.894 -0.1311  0.3361 -0.4851
12761TIP3    H159698   6.697   2.344  11.883 -2.4847  0.0601 -1.1812
12761TIP3    H259699   6.674   2.212  11.812 -1.6829 -1.1489  0.7561
12762TIP3   OH259700   3.285   1.527  14.854  0.2590  0.8192  0.0962
12762TIP3    H159701   3.209   1.490  14.899  0.5357  0.3853  0.2079
12762TIP3    H259702   3.282   1.620  14.875 -1.0839  1.0670 -1.1055
12763TIP3   OH259703   5.155   3.477   0.900 -0.0577 -0.2430  0.1167
12763TIP3    H159704   5.078   3.431   0.867 -0.6483  0.6495  0.2201
12763TIP3    H259705   5.212   3.408   0.933 -1.3728 -0.8426  1.1981
12764TIP3   OH259706   0.469   3.032   3.691  0.0068 -0.1218 -0.6415
12764TIP3    H159707   0.430   2.947   3.710 -0.1040  0.2801  1.0135
12764TIP3    H259708   0.510   3.020   3.605 -0.9987 -1.4866 -0.9604
12765TIP3   OH259709   5.591   2.021  13.769  0.0563 -0.1946  0.0006
12765TIP3    H159710   5.629   1.988  13.850 -0.3895  2.1620  1.2330
12765TIP3    H259711   5.560   2.109  13.792 -0.3539  0.3854 -2.6518
12766TIP3   OH259712   3.651   6.147  14.956 -0.2922 -0.0981 -1.0030
12766TIP3    H159713   3.674   6.139  15.048  1.6970  2.4657 -1.2065
12766TIP3    H259714   3.715   6.094  14.909 -1.6488 -1.8569 -0.8990
12767TIP3   OH259715   5.735   4.367   4.058  0.3342 -0.8841 -0.3447
12767TIP3    H159716   5.681   4.316   4.119  0.2319 -1.4627 -0.9147
12767TIP3    H259717   5.815   4.315   4.048  0.3086 -0.8365 -0.7854
12768TIP3   OH259718   5.829   0.186   1.690 -0.1010 -0.2986 -0.1221
12768TIP3    H159719   5.783   0.142   1.761 -1.8234  2.5424  0.5789
12768TIP3    H259720   5.919   0.195   1.721 -0.2087 -1.4637  0.5548
12769TIP3   OH259721   0.130   2.817   2.593  0.4542  0.2080 -0.3481
12769TIP3    H159722   0.187   2.791   2.522 -0.0674 -1.1038 -0.3011
12769TIP3    H259723   0.084   2.737   2.618 -0.6203  1.0102  0.3185
12770TIP3   OH259724   6.061   6.659  16.173  0.2313  0.1809  0.0194
12770TIP3    H159725   6.136   6.619  16.217 -0.3160 -0.9097 -0.0205
12770TIP3    H259726   6.059   6.616  16.087 -0.5411  0.0828  0.0855
12771TIP3   OH259727   3.227   1.518  17.062 -0.2227  0.1920 -0.4828
12771TIP3    H159728   3.254   1.518  17.154 -0.3375 -1.7410 -0.4234
12771TIP3    H259729   3.307   1.535  17.014  0.5618 -2.3568 -0.1569
12772TIP3   OH259730   1.798   2.794   5.460  0.0932 -0.2604 -0.3037
12772TIP3    H159731   1.816   2.773   5.369  1.3146 -1.8011  0.2853
12772TIP3    H259732   1.872   2.847   5.488 -0.7932  1.1057 -0.4890
12773TIP3   OH259733   0.033   3.115   5.149 -0.4609  0.4083  0.0453
12773TIP3    H159734   0.012   3.048   5.083 -0.3131  0.5894 -0.1894
12773TIP3    H259735   0.005   3.077   5.232  2.3418 -1.2426  0.3215
12774TIP3   OH259736   5.010   2.564   2.636 -0.5370 -0.0118  0.1324
12774TIP3    H159737   4.998   2.470   2.652 -1.2315 -0.1578 -1.1893
12774TIP3    H259738   5.098   2.571   2.598  0.2978  0.1093  2.0240
12775TIP3   OH259739   3.514   5.785   6.839 -0.1823  0.7625  0.0080
12775TIP3    H159740   3.429   5.785   6.793  0.3340  1.1173 -0.9587
12775TIP3    H259741   3.575   5.751   6.774  0.5658  1.2973  0.4354
12776TIP3   OH259742   1.434   4.463  10.733  0.1066  0.5364 -0.0457
12776TIP3    H159743   1.385   4.545  10.738  1.3032  1.3099 -0.6088
12776TIP3    H259744   1.402   4.421  10.653  0.2029  0.9279 -0.2888
12777TIP3   OH259745   4.013   6.071   0.526  0.3501 -0.6552  0.2992
12777TIP3    H159746   3.972   6.002   0.475 -0.2460  0.3967 -0.6546
12777TIP3    H259747   4.107   6.056   0.516  0.3347  1.2013 -3.4868
12778TIP3   OH259748   3.215   1.019   2.336  0.2263  0.0936 -0.1294
12778TIP3    H159749   3.172   1.059   2.261  1.6616  1.4215 -0.2597
12778TIP3    H259750   3.173   1.059   2.412  0.9389  1.0589 -0.2491
12779TIP3   OH259751   0.846   5.868  12.116  0.2279  0.1140  0.5342
12779TIP3    H159752   0.888   5.782  12.114 -0.3342 -0.1488 -0.1231
12779TIP3    H259753   0.778   5.860  12.183 -0.7665 -0.4091 -0.5107
12780TIP3   OH259754   4.464   3.357  11.014  0.1629 -0.5319 -0.1665
12780TIP3    H159755   4.531   3.413  11.053 -0.1562  0.2760 -0.7594
12780TIP3    H259756   4.494   3.342  10.925  1.3296 -3.1039  0.6408
12781TIP3   OH259757   6.662   1.533   6.326 -0.3391  0.4648 -0.4425
12781TIP3    H159758   6.610   1.498   6.254  0.1223  2.0864 -1.5904
12781TIP3    H259759   6.714   1.603   6.286  2.6895 -1.0712  0.6799
12782TIP3   OH259760   5.915   2.275   2.468  0.2797 -0.9184  0.0494
12782TIP3    H159761   5.934   2.183   2.487  0.1690 -1.2141 -1.2182
12782TIP3    H259762   6.001   2.314   2.451  0.3451 -0.7441  0.7970
12783TIP3   OH259763   2.625   4.270   0.652  0.3544 -0.1512  0.3815
12783TIP3    H159764   2.546   4.218   0.634  1.0683 -0.6724 -1.3758
12783TIP3    H259765   2.653   4.242   0.739 -1.4332  0.0917  1.0612
12784TIP3   OH259766   5.498   1.630  15.269 -0.0276 -0.4558  0.0038
12784TIP3    H159767   5.576   1.676  15.240 -1.1683  1.2301 -0.5036
12784TIP3    H259768   5.488   1.557  15.208  1.4206 -0.9741  0.3891
12785TIP3   OH259769   4.098   0.744  14.596  0.0997  0.0331  0.4008
12785TIP3    H159770   4.036   0.675  14.618 -0.4757  0.0606 -1.0270
12785TIP3    H259771   4.170   0.734  14.658 -1.8389  0.7205  2.8504
12786TIP3   OH259772   3.437   5.650   4.439 -0.8050  0.2372 -0.1755
12786TIP3    H159773   3.504   5.717   4.425 -2.0847  1.5023 -0.3061
12786TIP3    H259774   3.449   5.624   4.531 -0.6939  1.0742  0.0533
12787TIP3   OH259775   6.666   5.494   3.697 -0.8465  0.3821 -0.3623
12787TIP3    H159776   6.757   5.479   3.724 -0.2693 -0.8611 -2.8088
12787TIP3    H259777   6.615   5.428   3.745 -0.4134  0.8420  0.7397
12788TIP3   OH259778   3.303   2.662   2.872  0.5545 -0.5466 -0.2399
12788TIP3    H159779   3.222   2.671   2.922  0.1871  0.0547 -0.9241
12788TIP3    H259780   3.371   2.652   2.938  0.1815  1.0913  0.4147
12789TIP3   OH259781   4.178   1.929   2.740  0.0018  0.6031 -0.0286
12789TIP3    H159782   4.123   1.926   2.818  1.2092 -1.2550  0.7836
12789TIP3    H259783   4.262   1.965   2.770  1.1549 -1.9828  0.0247
12790TIP3   OH259784   3.052   6.046   4.473 -0.3433 -0.1641 -0.2941
12790TIP3    H159785   3.063   5.954   4.494  0.2563 -0.2683 -1.0275
12790TIP3    H259786   2.966   6.069   4.509  0.1786 -0.5970  1.2704
12791TIP3   OH259787   4.521   4.150  11.228  0.6465 -0.4647  0.3139
12791TIP3    H159788   4.451   4.093  11.195  0.1337 -0.2694  1.0663
12791TIP3    H259789   4.602   4.109  11.196  0.1886 -0.5923 -0.7100
12792TIP3   OH259790   2.618   1.061  16.867  0.0424 -0.1021  0.1741
12792TIP3    H159791   2.586   1.101  16.786  0.7155  2.1936  1.0054
12792TIP3    H259792   2.694   1.010  16.839  0.7804  1.3514 -0.5205
12793TIP3   OH259793   6.417   5.311  14.117 -0.3273 -0.0324 -0.2464
12793TIP3    H159794   6.379   5.224  14.127  2.7039 -1.4974 -0.9023
12793TIP3    H259795   6.490   5.312  14.179  0.2764  1.6742 -0.9747
12794TIP3   OH259796   1.615   2.509   0.807  0.2658 -0.3447  0.2085
12794TIP3    H159797   1.608   2.472   0.895 -2.3726 -0.8058 -0.1721
12794TIP3    H259798   1.621   2.604   0.821  1.4380 -0.5110  0.9242
12795TIP3   OH259799   3.718   6.227  16.882 -0.5615  0.1376  0.7754
12795TIP3    H159800   3.700   6.201  16.973  0.1358  1.7431  1.3807
12795TIP3    H259801   3.687   6.317  16.876  2.0732  1.0222  0.2294
12796TIP3   OH259802   1.006   6.244   4.332 -0.0360  0.5135 -0.1513
12796TIP3    H159803   1.084   6.189   4.332 -0.7485 -0.5129  0.5576
12796TIP3    H259804   0.963   6.226   4.249 -0.0288  0.3447 -0.1174
12797TIP3   OH259805   5.114   0.678   4.563  0.2020 -0.3217 -0.1890
12797TIP3    H159806   5.044   0.733   4.598  1.6296  0.4532  1.5290
12797TIP3    H259807   5.069   0.610   4.514 -1.6220  2.5457 -2.6756
12798TIP3   OH259808   3.816   0.320   1.322  0.1795  0.0060  0.0598
12798TIP3    H159809   3.776   0.307   1.236 -0.0093 -0.9447  0.2919
12798TIP3    H259810   3.747   0.296   1.384  0.7159 -0.4834  0.4722
12799TIP3   OH259811   1.086   2.454   1.834  0.8901  0.6433 -0.3219
12799TIP3    H159812   1.056   2.514   1.903 -0.3600 -0.5589  0.1934
12799TIP3    H259813   1.177   2.481   1.818  1.4645  0.4652  2.3342
12800TIP3   OH259814   1.235   5.700  10.674 -0.5740  0.1665  0.5433
12800TIP3    H159815   1.299   5.629  10.671  0.0719  0.6830  1.5703
12800TIP3    H259816   1.190   5.696  10.590  1.9502  0.8307 -0.8913
12801TIP3   OH259817   4.863   1.681  11.249 -0.5736  0.0294  0.2817
12801TIP3    H159818   4.772   1.676  11.280 -0.8297 -1.0616 -0.6462
12801TIP3    H259819   4.876   1.774  11.231 -1.0122  0.4176  1.8729
12802TIP3   OH259820   2.104   2.108  12.610 -0.0655 -0.8395  0.0132
12802TIP3    H159821   2.124   2.154  12.692  0.5069 -1.0280 -0.0184
12802TIP3    H259822   2.051   2.033  12.637  0.4048 -1.0869  0.2473
12803TIP3   OH259823   2.885   2.670  17.006 -0.1182  0.4649  0.4856
12803TIP3    H159824   2.812   2.620  16.967 -0.0349  0.3807  0.4349
12803TIP3    H259825   2.850   2.702  17.089 -0.1665  0.3116  0.5232
12804TIP3   OH259826   5.333   1.251  13.346  0.4681  0.1403  0.5900
12804TIP3    H159827   5.312   1.292  13.262  0.3496  0.2407  0.6684
12804TIP3    H259828   5.254   1.204  13.371 -0.1321  1.6109  1.5260
12805TIP3   OH259829   4.472   5.679  13.309  0.8679 -0.2832  0.1852
12805TIP3    H159830   4.530   5.604  13.320 -0.0270 -0.9934  0.0630
12805TIP3    H259831   4.388   5.642  13.281  0.6563  0.8222 -0.6832
12806TIP3   OH259832   3.932   4.816   3.492 -0.6274 -0.0105 -0.1967
12806TIP3    H159833   3.860   4.817   3.429 -1.6837 -2.4865  0.9064
12806TIP3    H259834   3.893   4.846   3.574 -0.2584 -0.7730  0.2657
12807TIP3   OH259835   6.328   2.801  16.522 -0.1198  0.2175  0.0521
12807TIP3    H159836   6.356   2.823  16.611  2.1092  2.1984 -1.0983
12807TIP3    H259837   6.241   2.838  16.514 -1.5943 -2.5453  2.3504
12808TIP3   OH259838   4.234   3.940  12.736  0.5232 -0.3367  0.7962
12808TIP3    H159839   4.263   3.929  12.827  0.0898  1.1013  1.1250
12808TIP3    H259840   4.301   3.995  12.695  0.5973 -0.7886  0.3004
12809TIP3   OH259841   1.041   4.101  11.269 -0.6552  0.2298  0.7244
12809TIP3    H159842   1.001   4.084  11.184  0.9039 -1.6727  0.3231
12809TIP3    H259843   1.034   4.017  11.316  2.5493 -0.1265  0.7272
12810TIP3   OH259844   2.485   6.056   1.172  0.4714 -0.5057  1.0007
12810TIP3    H159845   2.514   6.016   1.254  0.4673 -0.4048  1.0512
12810TIP3    H259846   2.404   6.101   1.195  0.6207 -0.2401  1.0024
12811TIP3   OH259847   0.355   0.516   4.156  0.8646  0.2533 -0.0351
12811TIP3    H159848   0.282   0.569   4.189  1.3433  0.2198  1.0815
12811TIP3    H259849   0.322   0.479   4.074  0.0491  1.1948 -0.1361
12812TIP3   OH259850   2.531   5.821  15.317 -0.6894  0.2951  0.7241
12812TIP3    H159851   2.459   5.842  15.377 -1.7293  3.1087 -1.4155
12812TIP3    H259852   2.507   5.864  15.235  2.8229  0.1961 -0.4172
12813TIP3   OH259853   0.993   0.222  10.547 -0.1790  0.6881  0.5028
12813TIP3    H159854   0.963   0.312  10.547  1.4411  1.2484  1.5995
12813TIP3    H259855   1.064   0.220  10.611  0.5696 -1.1020 -0.3362
12814TIP3   OH259856   3.223   1.808  13.718  0.4096  0.0459 -0.0148
12814TIP3    H159857   3.309   1.789  13.681  0.1841 -2.0347  0.4566
12814TIP3    H259858   3.169   1.734  13.692 -0.8605  0.6250  0.9166
12815TIP3   OH259859   5.607   1.706  12.778 -0.2857 -0.8087  0.2733
12815TIP3    H159860   5.514   1.694  12.795 -0.3271 -0.6771  0.1343
12815TIP3    H259861   5.622   1.667  12.692 -0.2303 -0.7384  0.2515
12816TIP3   OH259862   1.253   6.385  12.050 -0.0979 -0.5802 -0.0019
12816TIP3    H159863   1.348   6.389  12.046 -0.1653  0.3696 -1.0275
12816TIP3    H259864   1.231   6.411  12.139  0.5471  0.7948 -0.2267
12817TIP3   OH259865   4.090   1.912   3.400 -0.1840 -0.1337 -0.4275
12817TIP3    H159866   4.165   1.889   3.455 -0.0487  0.7370 -0.2375
12817TIP3    H259867   4.129   1.934   3.315 -0.2295  0.2169 -0.3591
12818TIP3   OH259868   5.801   2.187  15.852  0.0279 -0.1427 -0.4860
12818TIP3    H159869   5.817   2.164  15.943  0.4685 -1.3139 -0.8519
12818TIP3    H259870   5.740   2.261  15.856  0.6750  0.3212  0.7653
12819TIP3   OH259871   5.965   1.780   3.087 -0.1040 -0.0007 -0.1204
12819TIP3    H159872   5.883   1.732   3.099 -0.0543 -0.1816 -0.5219
12819TIP3    H259873   5.956   1.825   3.003  0.8665 -1.3632 -0.9774
12820TIP3   OH259874   3.659   6.243   5.126 -0.0115 -0.4554 -0.3517
12820TIP3    H159875   3.684   6.296   5.050  1.0914  1.2626  1.1495
12820TIP3    H259876   3.742   6.221   5.168 -0.6143 -1.1053  0.5271
12821TIP3   OH259877   4.842   4.628   6.871  0.2330 -0.3509  0.8946
12821TIP3    H159878   4.765   4.685   6.864  0.0430 -0.6630  0.4479
12821TIP3    H259879   4.905   4.680   6.921 -0.0258  0.1617  0.6914
12822TIP3   OH259880   6.493   0.699  13.436  0.1985  0.2301 -0.8117
12822TIP3    H159881   6.543   0.618  13.425 -0.7554 -0.5228  0.3548
12822TIP3    H259882   6.559   0.765  13.459  0.5807 -0.9183  1.5456
12823TIP3   OH259883   4.405   3.865   5.756 -0.0652 -0.0101  0.3899
12823TIP3    H159884   4.408   3.885   5.663  1.3322 -0.3651  0.3461
12823TIP3    H259885   4.400   3.950   5.799  1.5620  0.2626  0.0627
12824TIP3   OH259886   1.597   2.461  11.406 -0.1240  0.2625  0.5335
12824TIP3    H159887   1.654   2.395  11.446  0.3309 -0.1322 -0.7446
12824TIP3    H259888   1.559   2.508  11.480 -0.4251 -1.4124  1.4660
12825TIP3   OH259889   1.427   0.646  13.498 -0.0578 -0.5093  0.1083
12825TIP3    H159890   1.345   0.617  13.457  0.6415 -0.7213 -1.1764
12825TIP3    H259891   1.402   0.674  13.586 -1.8884  1.5957 -1.0413
12826TIP3   OH259892   5.747   4.049   2.222  0.0273 -0.2300  0.6167
12826TIP3    H159893   5.771   4.046   2.314  0.7426  2.0190  0.5365
12826TIP3    H259894   5.719   4.139   2.207  1.8762 -0.0022 -1.8111
12827TIP3   OH259895   0.615   4.909  12.289 -0.4516  0.8749  0.7576
12827TIP3    H159896   0.624   5.001  12.315  0.2621  1.0159  0.0168
12827TIP3    H259897   0.676   4.899  12.216 -1.1085  0.0105  0.3304
12828TIP3   OH259898   1.421   3.994   2.893 -0.1285 -0.1867 -0.1694
12828TIP3    H159899   1.342   3.960   2.853 -0.0801 -0.3171 -0.1538
12828TIP3    H259900   1.390   4.044   2.968 -0.3110  1.1827 -1.1422
12829TIP3   OH259901   3.689   3.962   4.388 -0.1220  0.0789 -0.1125
12829TIP3    H159902   3.607   3.980   4.434  0.6523  1.2674  0.8190
12829TIP3    H259903   3.740   3.909   4.448  1.0243  1.9091  0.5749
12830TIP3   OH259904   5.429   2.815  10.567 -0.1125  0.3321 -0.4251
12830TIP3    H159905   5.389   2.776  10.644  1.0491  0.8210  0.4408
12830TIP3    H259906   5.516   2.843  10.596  0.6308 -0.1469 -2.0843
12831TIP3   OH259907   3.584   1.307  16.744 -0.0451 -0.0121  0.2636
12831TIP3    H159908   3.640   1.288  16.819 -0.8703 -0.9691  0.6657
12831TIP3    H259909   3.633   1.274  16.669  0.2447 -0.2030  0.5339
12832TIP3   OH259910   2.731   6.580   4.683 -0.2091 -0.6125 -0.9448
12832TIP3    H159911   2.803   6.622   4.635 -0.6948  1.0410 -0.2644
12832TIP3    H259912   2.687   6.526   4.618  2.6812 -3.0422 -0.9969
12833TIP3   OH259913   4.342   6.117  14.320 -0.4164 -0.3660 -0.3921
12833TIP3    H159914   4.403   6.121  14.246 -0.5258  0.4868 -0.4498
12833TIP3    H259915   4.263   6.160  14.288 -0.0613  1.0745  0.5680
12834TIP3   OH259916   3.899   6.518  14.705  0.2139 -0.9137  0.4504
12834TIP3    H159917   3.865   6.502  14.617  0.3470 -0.0635  0.2397
12834TIP3    H259918   3.988   6.482  14.703  0.7749  0.4728 -0.2458
12835TIP3   OH259919   5.707   3.256  17.237  0.3200  0.1241  0.1244
12835TIP3    H159920   5.694   3.194  17.309  1.0492  0.7740  0.8330
12835TIP3    H259921   5.772   3.318  17.271 -1.6788  2.3104  0.0773
12836TIP3   OH259922   4.042   5.677  12.556 -0.0767 -0.1347  0.3276
12836TIP3    H159923   4.118   5.718  12.514 -0.8032  0.6610 -0.2338
12836TIP3    H259924   4.006   5.618  12.489 -0.4122  0.0789  0.3182
12837TIP3   OH259925   3.922   0.308   3.773 -0.0833  0.4333  0.1944
12837TIP3    H159926   3.962   0.395   3.767 -0.2375  0.6081  1.4524
12837TIP3    H259927   3.828   0.325   3.773 -0.1450  0.1284 -1.3399
12838TIP3   OH259928   1.709   1.605   5.245  0.0524  0.0786 -0.2846
12838TIP3    H159929   1.682   1.569   5.330 -0.6256  1.2414  0.0099
12838TIP3    H259930   1.650   1.563   5.182  1.1156 -1.4311 -0.3009
12839TIP3   OH259931   5.504   3.625   4.853 -0.5852  0.0093  0.0330
12839TIP3    H159932   5.573   3.627   4.787  0.3766 -1.2530  0.9848
12839TIP3    H259933   5.425   3.598   4.806  0.5150 -2.8448 -0.2633
12840TIP3   OH259934   1.915   5.189  12.635 -0.3558 -0.6171 -0.5822
12840TIP3    H159935   1.835   5.209  12.586 -1.3400 -0.5265  1.0324
12840TIP3    H259936   1.907   5.240  12.716  0.8357 -1.4247  0.0581
12841TIP3   OH259937   3.264   1.199   3.209  0.3954 -0.5159  0.2937
12841TIP3    H159938   3.321   1.276   3.209  0.0305 -0.2327  1.4882
12841TIP3    H259939   3.322   1.126   3.188  0.3883  0.3121 -2.7180
12842TIP3   OH259940   5.977   1.387   5.391 -0.7424  0.6568 -0.4140
12842TIP3    H159941   6.069   1.410   5.407  0.1825 -2.9161 -0.1508
12842TIP3    H259942   5.960   1.416   5.302  0.4715  1.8907 -0.2619
12843TIP3   OH259943   6.188   1.118   3.927  0.3016  0.2594  0.4095
12843TIP3    H159944   6.184   1.185   3.995 -0.4509 -0.1215  0.7469
12843TIP3    H259945   6.138   1.044   3.962 -1.2751  0.5589 -1.0933
12844TIP3   OH259946   2.196   6.588   2.861  0.1552 -0.5263 -0.1590
12844TIP3    H159947   2.214   6.640   2.939  1.1532 -0.1839 -0.6022
12844TIP3    H259948   2.101   6.588   2.853  0.0605 -0.3576  0.9144
12845TIP3   OH259949   4.394   2.751  11.471 -0.2464 -0.1839 -0.0205
12845TIP3    H159950   4.419   2.701  11.549 -2.8448  0.4808  1.2987
12845TIP3    H259951   4.470   2.807  11.454  0.6111 -0.7669  1.6592
12846TIP3   OH259952   4.761   2.642  14.257 -0.8780 -0.1657 -0.0415
12846TIP3    H159953   4.827   2.687  14.309 -1.4988  0.4244  0.2496
12846TIP3    H259954   4.786   2.658  14.166 -0.5247 -0.0866  0.0698
12847TIP3   OH259955   0.782   3.196   3.749  0.4981 -0.0754 -0.2714
12847TIP3    H159956   0.799   3.171   3.839 -1.4891  0.7139  0.3482
12847TIP3    H259957   0.866   3.229   3.717  1.1742 -0.2094  1.3205
12848TIP3   OH259958   6.335   2.333   0.977 -0.2963 -0.1710 -0.3465
12848TIP3    H159959   6.276   2.285   0.919  0.1831  0.1029 -1.0683
12848TIP3    H259960   6.396   2.377   0.918  1.7862 -1.9282  0.4013
12849TIP3   OH259961   5.431   0.677  10.286 -0.4880 -0.2075 -0.0742
12849TIP3    H159962   5.361   0.685  10.222 -3.0407  1.2944  2.7610
12849TIP3    H259963   5.476   0.761  10.284 -2.0291  0.6929  1.6509
12850TIP3   OH259964   2.784   1.061  14.233 -0.4565 -0.1668  0.4063
12850TIP3    H159965   2.844   1.113  14.180 -2.2845  0.6190 -0.9692
12850TIP3    H259966   2.835   1.036  14.310  1.3716  1.1318 -0.3415
12851TIP3   OH259967   1.028   2.822   6.142  0.0945  0.2672 -0.1170
12851TIP3    H159968   1.017   2.900   6.087 -2.0241  0.2090  0.2086
12851TIP3    H259969   1.016   2.749   6.082  1.3849  0.1719 -0.2785
12852TIP3   OH259970   0.031   2.501  14.127 -0.2426  0.5053  0.2295
12852TIP3    H159971   0.032   2.424  14.185 -0.7651  1.4865  1.5833
12852TIP3    H259972   0.003   2.467  14.042 -0.3602 -0.8189  0.7819
12853TIP3   OH259973   5.701   1.394   0.117  0.2397  0.1080 -0.1276
12853TIP3    H159974   5.780   1.339   0.110  0.9689  1.0005  0.9266
12853TIP3    H259975   5.734   1.478   0.149 -0.9317  1.0177 -1.3144
12854TIP3   OH259976   0.045   4.708  15.689 -0.5844 -0.5769 -0.0290
12854TIP3    H159977   0.004   4.624  15.668  1.0176 -1.1685 -0.8471
12854TIP3    H259978   0.028   4.763  15.613  2.0515 -1.5493 -1.3722
12855TIP3   OH259979   5.817   4.907   4.670  0.1423 -0.0358 -0.7010
12855TIP3    H159980   5.895   4.851   4.666  0.2014 -0.1784  1.8829
12855TIP3    H259981   5.749   4.857   4.626  0.5227 -1.6071  0.4510
12856TIP3   OH259982   5.486   0.627  14.395 -0.0707 -0.0208  0.4932
12856TIP3    H159983   5.546   0.595  14.327 -0.5499  0.6599 -0.2535
12856TIP3    H259984   5.421   0.679  14.348 -1.5740 -1.1875  1.2381
12857TIP3   OH259985   1.787   4.736   0.536  0.8145 -0.1923 -0.5075
12857TIP3    H159986   1.881   4.723   0.543  0.7848 -0.6980 -1.0178
12857TIP3    H259987   1.751   4.648   0.525  0.1683 -0.1377  0.9896
12858TIP3   OH259988   5.520   4.064  11.129  0.5253  0.1266  0.1337
12858TIP3    H159989   5.581   4.137  11.142  0.1971  0.4142  0.0790
12858TIP3    H259990   5.472   4.087  11.050  1.0765 -0.6159 -0.4090
12859TIP3   OH259991   6.437   0.403  15.380 -0.7744 -0.3153 -0.2342
12859TIP3    H159992   6.349   0.426  15.411  0.0115  0.8798  1.1700
12859TIP3    H259993   6.466   0.481  15.332  0.3300  0.1203  1.1101
12860TIP3   OH259994   5.176   4.711   0.539  0.6046  0.2252  0.1934
12860TIP3    H159995   5.149   4.719   0.630  0.4279  4.0636 -0.0926
12860TIP3    H259996   5.253   4.768   0.532  1.7172 -1.4416 -1.6421
12861TIP3   OH259997   1.779   4.150   4.944 -0.2785 -0.0507  0.0643
12861TIP3    H159998   1.707   4.088   4.933  2.0736 -2.5452 -1.7379
12861TIP3    H259999   1.766   4.185   5.032 -1.7919 -2.9614  1.0798
12862TIP3   OH260000   4.492   4.338  13.377 -0.0355 -0.0141 -0.3595
12862TIP3    H160001   4.571   4.322  13.428 -1.5778  0.3525  2.2327
12862TIP3    H260002   4.501   4.428  13.346  0.6934 -0.0818 -0.3581
12863TIP3   OH260003   6.088   2.973  14.743  0.1696  0.5252 -0.4684
12863TIP3    H160004   6.093   3.068  14.731  1.5977  0.4421 -0.5982
12863TIP3    H260005   6.157   2.953  14.806  2.2055 -0.8410 -3.0463
12864TIP3   OH260006   1.663   5.986  15.437 -0.1163 -0.1880  0.0881
12864TIP3    H160007   1.634   6.036  15.513  1.3105 -0.3498  0.7724
12864TIP3    H260008   1.691   6.052  15.374  0.5906 -0.0730  0.5072
12865TIP3   OH260009   6.642   3.247  13.772 -0.0589 -0.5415  0.1693
12865TIP3    H160010   6.726   3.262  13.729  0.6246 -2.2682  0.8359
12865TIP3    H260011   6.584   3.315  13.738  1.4030  0.1916 -0.8786
12866TIP3   OH260012   5.376   2.432   1.411 -0.0976  0.7066  0.5879
12866TIP3    H160013   5.437   2.359   1.419  0.1481  0.8491  0.0477
12866TIP3    H260014   5.352   2.432   1.318 -1.3037  0.3380  0.8942
12867TIP3   OH260015   3.759   4.609   5.893  0.4693 -0.4157  0.2766
12867TIP3    H160016   3.722   4.552   5.961 -0.2717  0.5235  0.6795
12867TIP3    H260017   3.848   4.627   5.922  0.1664 -0.0493  0.9870
12868TIP3   OH260018   5.810   5.318   3.027 -0.3837  0.2063  0.2823
12868TIP3    H160019   5.812   5.225   3.047 -0.5149  0.2111  0.3217
12868TIP3    H260020   5.869   5.328   2.952  0.5876  0.2926  1.0570
12869TIP3   OH260021   6.585   3.169   2.384 -0.0706 -0.1406 -0.0404
12869TIP3    H160022   6.600   3.172   2.289 -0.0980 -3.9207 -0.2663
12869TIP3    H260023   6.668   3.137   2.419  0.3780  2.4989  1.4082
12870TIP3   OH260024   2.148   2.913   0.913 -0.4150 -0.1414  0.4599
12870TIP3    H160025   2.211   2.980   0.886 -0.3829  0.5183  2.1438
12870TIP3    H260026   2.079   2.917   0.846  0.0776  0.8750  0.0023
12871TIP3   OH260027   3.361   0.740   1.282 -0.8498 -0.0403  0.6936
12871TIP3    H160028   3.418   0.717   1.210 -0.4129  1.5980  0.4941
12871TIP3    H260029   3.368   0.836   1.289 -3.6432  0.2347  0.5659
12872TIP3   OH260030   2.280   2.491   1.326  0.1357  0.6343 -0.2340
12872TIP3    H160031   2.351   2.429   1.344  0.9110  1.0697 -1.7168
12872TIP3    H260032   2.314   2.576   1.356 -0.1494  0.6752 -0.0253
12873TIP3   OH260033   3.536   4.811   1.488  0.5830  0.1651 -0.2596
12873TIP3    H160034   3.505   4.724   1.466  0.8644 -0.2626  1.0120
12873TIP3    H260035   3.614   4.824   1.434  1.7248 -1.1861  1.0113
12874TIP3   OH260036   6.471   5.706   5.162 -0.4800  0.0634 -0.1575
12874TIP3    H160037   6.412   5.732   5.091  1.0123  2.1514 -0.6731
12874TIP3    H260038   6.425   5.730   5.242 -1.2894 -0.3941 -0.4802
12875TIP3   OH260039   3.990   5.806   3.059 -0.0909  0.5178  0.4045
12875TIP3    H160040   3.901   5.780   3.080  0.0154 -1.1039 -1.0369
12875TIP3    H260041   4.041   5.726   3.066  1.0578  1.2088  0.1229
12876TIP3   OH260042   6.723   2.861   0.850  0.4521 -0.0869 -0.5382
12876TIP3    H160043   6.763   2.790   0.900  2.1128  0.5200 -0.9934
12876TIP3    H260044   6.736   2.837   0.759 -1.3531 -0.5034 -0.7110
12877TIP3   OH260045   1.698   3.785   3.997  0.1877  0.5125 -0.9180
12877TIP3    H160046   1.722   3.712   4.053  0.0781  2.6013  1.9504
12877TIP3    H260047   1.782   3.817   3.962  0.4664  0.5241 -0.2398
12878TIP3   OH260048   3.710   0.769  15.059 -0.0750 -0.0277  0.3101
12878TIP3    H160049   3.717   0.678  15.088  1.4223 -0.3990 -1.1482
12878TIP3    H260050   3.632   0.771  15.004 -0.5790 -0.2384  1.0112
12879TIP3   OH260051   0.221   3.242   2.360  0.2990 -0.0404  0.1776
12879TIP3    H160052   0.168   3.171   2.395 -0.5199 -0.3104 -1.5608
12879TIP3    H260053   0.186   3.321   2.401  0.1417 -0.4559  0.8537
12880TIP3   OH260054   4.537   2.316  11.890  0.4860  0.0482 -0.3175
12880TIP3    H160055   4.579   2.381  11.946  0.9324 -0.2824 -0.2637
12880TIP3    H260056   4.582   2.325  11.806 -1.3431  1.7481 -1.1741
12881TIP3   OH260057   4.403   0.744  13.408 -0.5293 -0.0775 -0.0294
12881TIP3    H160058   4.482   0.710  13.449 -1.2551  0.7104  2.1068
12881TIP3    H260059   4.336   0.677  13.425 -0.6059 -0.2007 -0.7988
12882TIP3   OH260060   6.598   5.018   0.613 -0.1771 -0.7795 -0.1310
12882TIP3    H160061   6.587   5.090   0.551  1.0003 -0.7736 -0.3436
12882TIP3    H260062   6.516   4.969   0.608 -0.6894  0.1212 -0.5348
12883TIP3   OH260063   5.845   1.368   5.920  0.1591 -0.7178 -0.0597
12883TIP3    H160064   5.862   1.452   5.963 -1.2891  0.8449 -2.4612
12883TIP3    H260065   5.751   1.354   5.932  0.4949 -2.3057  0.8209
12884TIP3   OH260066   2.184   6.465   4.351  0.7517  0.2775  0.5366
12884TIP3    H160067   2.112   6.476   4.412  1.3039 -0.3325  1.3021
12884TIP3    H260068   2.236   6.545   4.360 -0.3288  1.1566 -0.7172
12885TIP3   OH260069   5.228   2.268   0.238  0.6236 -0.4318  0.0839
12885TIP3    H160070   5.281   2.245   0.161  1.3087 -0.5926  0.6048
12885TIP3    H260071   5.281   2.332   0.286 -0.8399  1.5576 -0.8399
12886TIP3   OH260072   0.457   0.747   5.355  0.4963  0.1619  0.4342
12886TIP3    H160073   0.530   0.718   5.301  2.0253  3.5062  0.5659
12886TIP3    H260074   0.498   0.793   5.429 -1.6643 -0.5894  2.1712
12887TIP3   OH260075   5.260   1.353  13.117 -0.4192  0.4311 -0.4578
12887TIP3    H160076   5.293   1.368  13.029 -0.8408 -0.6366 -0.7977
12887TIP3    H260077   5.181   1.407  13.122 -0.2394  0.7124 -0.6345
12888TIP3   OH260078   0.114   3.611  17.033  0.4661 -0.1094 -0.1541
12888TIP3    H160079   0.031   3.658  17.034  1.2460  1.3055 -0.4033
12888TIP3    H260080   0.099   3.536  16.975 -0.9446 -0.4643  0.6660
12889TIP3   OH260081   3.216   4.723   0.083 -0.1765  0.0853  0.6681
12889TIP3    H160082   3.193   4.786   0.015  1.9139  1.7238  1.4327
12889TIP3    H260083   3.176   4.758   0.163  1.6013  0.8769  1.2384
12890TIP3   OH260084   0.853   0.158  16.330 -0.0443 -0.1299 -0.3003
12890TIP3    H160085   0.798   0.081  16.342  1.4100 -1.1866 -0.2984
12890TIP3    H260086   0.927   0.144  16.389 -0.9391  2.4165  1.5200
12891TIP3   OH260087   5.624   6.236   5.508  0.1783  0.0540 -0.3403
12891TIP3    H160088   5.715   6.207   5.519  0.0534 -1.1002 -2.1547
12891TIP3    H260089   5.572   6.168   5.551  0.1287  0.3051  0.0008
12892TIP3   OH260090   5.014   5.923   0.129  0.2371 -0.2282  0.1413
12892TIP3    H160091   5.047   5.950   0.215 -0.1262  1.1307 -0.1338
12892TIP3    H260092   5.068   5.847   0.106  2.9190  1.6368 -0.0925
12893TIP3   OH260093   2.099   6.663  15.874 -0.1221  0.4695  0.2160
12893TIP3    H160094   2.053   6.721  15.812  0.0601  0.1468 -0.2262
12893TIP3    H260095   2.185   6.704  15.885  0.8381 -0.8814 -1.8398
12894TIP3   OH260096   5.139   4.546  14.303 -0.9243 -0.2555 -0.4262
12894TIP3    H160097   5.136   4.641  14.314 -3.5606 -0.5706  2.3782
12894TIP3    H260098   5.198   4.515  14.372  1.4452 -0.5712 -2.5265
12895TIP3   OH260099   2.150   5.183  11.863 -0.0874  0.2105 -0.2291
12895TIP3    H160100   2.124   5.222  11.780 -1.2713  0.3703  0.2022
12895TIP3    H260101   2.100   5.231  11.929 -0.8334 -1.3664  0.3936
12896TIP3   OH260102   3.596   2.617   0.799 -0.3287 -0.2101 -0.3250
12896TIP3    H160103   3.545   2.642   0.876  0.6411  0.8908 -0.0336
12896TIP3    H260104   3.558   2.668   0.727  1.3011  1.7435  0.1690
12897TIP3   OH260105   0.969   2.505  14.038  0.3886  0.2527  0.2201
12897TIP3    H160106   0.902   2.547  13.983  0.2661  0.4934  0.5567
12897TIP3    H260107   1.034   2.573  14.053  0.3918  0.2043  0.4262
12898TIP3   OH260108   4.944   4.739  15.733  0.1607 -0.1600  0.2947
12898TIP3    H160109   4.907   4.799  15.798 -0.2419 -0.2064  0.1113
12898TIP3    H260110   4.874   4.729  15.668  1.1526  1.2238 -1.0301
12899TIP3   OH260111   0.962   5.983  14.225 -0.1448  0.1175 -0.1428
12899TIP3    H160112   0.907   5.952  14.153 -0.6700  1.0914 -0.1788
12899TIP3    H260113   0.900   6.025  14.285  0.4202  0.2185  0.3657
12900TIP3   OH260114   3.421   4.396  12.914  0.4342 -0.4405 -0.4260
12900TIP3    H160115   3.411   4.379  12.821  1.2583 -0.3909 -0.5280
12900TIP3    H260116   3.515   4.411  12.926  0.1587  0.8553  0.1930
12901TIP3   OH260117   1.755   6.037  15.917  0.6043 -0.0987 -0.1412
12901TIP3    H160118   1.798   6.080  15.843 -0.3116  0.0307 -0.6080
12901TIP3    H260119   1.807   5.959  15.932  0.9738  0.0266 -0.7353
12902TIP3   OH260120   4.472   0.500  14.167  0.3285  0.7480  0.1531
12902TIP3    H160121   4.530   0.524  14.096 -0.4031  2.9896  0.2730
12902TIP3    H260122   4.503   0.550  14.242  1.2402 -1.7574  1.5280
12903TIP3   OH260123   3.053   6.013  15.568  0.2825  0.0080 -0.3542
12903TIP3    H160124   3.024   6.012  15.659 -1.0133 -0.7524 -0.7611
12903TIP3    H260125   2.989   6.067  15.522  0.3763 -0.3929 -0.9778
12904TIP3   OH260126   4.938   4.889   1.733 -0.4049 -0.5855 -0.2252
12904TIP3    H160127   4.873   4.894   1.803 -0.5033  1.6465 -0.4229
12904TIP3    H260128   4.886   4.878   1.653 -0.4213 -0.9325 -0.1663
12905TIP3   OH260129   5.663   2.894   1.540  0.0412 -0.2670  0.1362
12905TIP3    H160130   5.625   2.970   1.584  0.5654  1.2616 -1.9286
12905TIP3    H260131   5.591   2.830   1.536 -0.6710  0.4654  1.1111
12906TIP3   OH260132   6.160   3.994  12.941  0.0976 -0.3057 -0.4212
12906TIP3    H160133   6.160   3.906  12.978  0.0450 -1.7039 -3.5503
12906TIP3    H260134   6.068   4.011  12.921  0.2227  0.0559 -0.6866
12907TIP3   OH260135   1.146   1.318  11.916  0.3750  0.3146 -0.7027
12907TIP3    H160136   1.173   1.407  11.893 -0.0497  0.2037 -1.6698
12907TIP3    H260137   1.205   1.261  11.866  1.0918  0.0408  0.4363
12908TIP3   OH260138   6.718   1.850  11.518 -0.1448 -0.0437  0.4340
12908TIP3    H160139   6.684   1.922  11.571 -1.5538 -1.0105  0.8742
12908TIP3    H260140   6.772   1.892  11.451 -1.7318  1.5045  0.0829
12909TIP3   OH260141   1.495   3.099  14.768 -0.2514 -0.0729  0.3388
12909TIP3    H160142   1.422   3.067  14.820 -0.1602 -2.1202 -0.7254
12909TIP3    H260143   1.558   3.132  14.832 -2.3679  2.3723  1.2407
12910TIP3   OH260144   2.184   4.783  11.587 -0.2157 -0.7662 -0.3273
12910TIP3    H160145   2.165   4.842  11.514 -1.1019 -1.0920 -0.3634
12910TIP3    H260146   2.239   4.835  11.646 -3.6760  1.2933  1.2509
12911TIP3   OH260147   3.819   1.527  13.428 -0.2569  0.0948  0.2529
12911TIP3    H160148   3.840   1.473  13.352  0.7642  0.6534  0.1265
12911TIP3    H260149   3.850   1.476  13.503 -1.6499 -0.6489  0.3442
12912TIP3   OH260150   4.231   1.440   4.495  0.4020 -0.6546  0.1343
12912TIP3    H160151   4.272   1.389   4.565  1.2610  0.7925  0.6996
12912TIP3    H260152   4.304   1.479   4.447 -0.2322 -0.2686 -0.5283
12913TIP3   OH260153   5.498   0.117  13.100 -0.6257 -0.5101  0.2948
12913TIP3    H160154   5.488   0.120  13.004  0.0396 -1.2522  0.1972
12913TIP3    H260155   5.430   0.177  13.132  0.5354  1.3950 -0.7124
12914TIP3   OH260156   4.511   5.315   6.428  0.2864  0.6344  0.1653
12914TIP3    H160157   4.600   5.320   6.463  0.3763  0.9887 -0.1124
12914TIP3    H260158   4.455   5.307   6.506  0.6680 -1.1856  0.2770
12915TIP3   OH260159   5.009   2.497  16.799 -0.1226 -0.0032 -0.6107
12915TIP3    H160160   4.926   2.539  16.774  0.0957 -0.6023 -2.3969
12915TIP3    H260161   5.019   2.424  16.738  1.5912 -0.1075 -0.2370
12916TIP3   OH260162   4.275   2.620  11.932 -0.0127 -0.0154  0.3568
12916TIP3    H160163   4.287   2.533  11.969  2.8539 -0.0501 -0.5335
12916TIP3    H260164   4.286   2.679  12.006 -0.3239 -0.3260  0.6557
12917TIP3   OH260165   3.246   5.229  15.625  0.1126 -1.3558  0.2376
12917TIP3    H160166   3.337   5.248  15.603 -0.5392  2.1287  0.2335
12917TIP3    H260167   3.200   5.231  15.541 -0.3621 -0.4518  0.5071
12918TIP3   OH260168   1.778   2.211   1.434  0.0702 -0.2834 -0.1481
12918TIP3    H160169   1.832   2.143   1.473  1.2799  0.6720 -0.1185
12918TIP3    H260170   1.688   2.183   1.452  0.5597 -1.3833  0.6861
12919TIP3   OH260171   3.309   5.874   4.977 -0.4551  0.6726 -0.1740
12919TIP3    H160172   3.385   5.920   5.012 -0.5811  0.8168 -0.0837
12919TIP3    H260173   3.273   5.826   5.051 -0.5738  0.7745 -0.1648
12920TIP3   OH260174   6.491   4.722   5.257  0.1419  0.2041 -0.2349
12920TIP3    H160175   6.465   4.758   5.342 -0.2693  0.6128 -0.5326
12920TIP3    H260176   6.584   4.701   5.268 -0.1462 -0.6979  0.6406
12921TIP3   OH260177   6.632   0.076   1.456 -0.2797  0.2152 -0.1459
12921TIP3    H160178   6.727   0.064   1.464 -0.4164 -0.1321  0.9151
12921TIP3    H260179   6.611   0.147   1.516 -0.9350 -0.8187  0.8711
12922TIP3   OH260180   3.389   3.892  11.153  0.0939 -0.2773  0.0877
12922TIP3    H160181   3.356   3.870  11.240 -1.1712 -0.5413 -0.4473
12922TIP3    H260182   3.483   3.873  11.157 -0.0199 -0.5971  1.2903
12923TIP3   OH260183   1.038   4.186  15.041  0.8631 -0.4989 -0.2201
12923TIP3    H160184   0.967   4.203  15.103  0.9174 -0.8791 -0.0537
12923TIP3    H260185   1.050   4.091  15.044  1.8429 -0.3594  0.2618
12924TIP3   OH260186   1.952   6.423   3.135 -0.4252 -0.0999 -0.3189
12924TIP3    H160187   1.891   6.397   3.204 -0.2696  0.7346  0.1468
12924TIP3    H260188   2.020   6.356   3.137 -1.2738 -0.9945 -0.7921
12925TIP3   OH260189   5.738   6.220   2.218 -0.6408 -0.0001 -0.3004
12925TIP3    H160190   5.789   6.141   2.200  0.3084  0.1322  1.6690
12925TIP3    H260191   5.650   6.188   2.241 -0.1096 -0.5390  1.0310
12926TIP3   OH260192   6.257   0.754  12.028  0.4607  0.3226 -0.4894
12926TIP3    H160193   6.278   0.693  11.957 -2.2559 -0.2746 -0.8027
12926TIP3    H260194   6.331   0.745  12.089  2.0285 -0.3578 -2.4124
12927TIP3   OH260195   1.788   0.129  11.004 -0.5681  0.1594 -0.1457
12927TIP3    H160196   1.770   0.204  10.947  0.3445  1.8051  1.6588
12927TIP3    H260197   1.701   0.098  11.031 -0.9377  1.1774 -0.1529
12928TIP3   OH260198   2.803   3.367  16.577 -0.3538 -0.2525 -0.8379
12928TIP3    H160199   2.891   3.384  16.543  0.0538 -1.7928 -0.6004
12928TIP3    H260200   2.797   3.420  16.656  0.8306 -1.0829 -0.1720
12929TIP3   OH260201   3.443   4.747  15.357 -0.6983 -0.6721 -0.6409
12929TIP3    H160202   3.374   4.681  15.350  0.2858 -1.9227  1.2131
12929TIP3    H260203   3.520   4.699  15.387  0.5107  1.0219 -0.9612
12930TIP3   OH260204   4.853   4.821  12.339 -0.6035  0.2865 -0.5514
12930TIP3    H160205   4.932   4.767  12.339 -1.6748 -1.3228 -1.3697
12930TIP3    H260206   4.876   4.897  12.394  1.4773 -0.1591 -0.7445
12931TIP3   OH260207   5.034   6.751  11.945 -0.3857 -0.4611  0.2413
12931TIP3    H160208   4.959   6.709  11.987  0.0489  0.0893  1.6037
12931TIP3    H260209   4.996   6.815  11.886 -1.0034 -0.6563  0.4280
12932TIP3   OH260210   4.835   5.308   5.515 -0.5891 -0.4362 -0.4333
12932TIP3    H160211   4.853   5.277   5.426  1.3428 -0.6278  0.0017
12932TIP3    H260212   4.855   5.233   5.571 -1.1884 -0.1101  0.2244
12933TIP3   OH260213   5.768   4.406   2.171  0.1393  0.2322  0.6252
12933TIP3    H160214   5.691   4.443   2.215 -0.0299 -0.9282  1.3253
12933TIP3    H260215   5.823   4.374   2.242  1.3858  1.2576  0.1396
12934TIP3   OH260216   3.807   1.909  16.656  0.2801 -0.3874 -0.5677
12934TIP3    H160217   3.788   1.889  16.564 -1.2556  0.1687 -0.3805
12934TIP3    H260218   3.722   1.925  16.696  1.0958  1.9401  0.3697
12935TIP3   OH260219   4.839   3.527   4.549  0.7241  0.0365  0.2808
12935TIP3    H160220   4.827   3.519   4.644  1.1304  0.0436  0.3323
12935TIP3    H260221   4.932   3.510   4.535  0.7634  0.5367 -0.0638
12936TIP3   OH260222   0.465   6.774  14.021  0.8122  0.0037  0.4054
12936TIP3    H160223   0.555   6.782  14.055  1.4099 -0.0332 -1.1268
12936TIP3    H260224   0.474   6.720  13.943 -0.0102  2.8386 -1.7496
12937TIP3   OH260225   2.780   3.436   0.421  0.0781  0.2880 -0.2154
12937TIP3    H160226   2.695   3.428   0.380  0.1936 -1.4364 -0.1674
12937TIP3    H260227   2.842   3.409   0.353  0.3808 -1.0011  0.5517
12938TIP3   OH260228   6.142   4.920  14.662  0.2511  0.6119  0.5946
12938TIP3    H160229   6.130   4.876  14.746  1.9255 -2.0814 -0.4946
12938TIP3    H260230   6.127   4.852  14.597 -0.6697  2.5759 -1.2914
12939TIP3   OH260231   5.900   3.874  14.918  0.4755  0.0246 -0.1526
12939TIP3    H160232   5.824   3.887  14.974  0.1570  2.2526 -1.0501
12939TIP3    H260233   5.975   3.894  14.974  0.3736 -1.3085  0.4788
12940TIP3   OH260234   2.379   0.313   5.359 -0.3145  0.0725 -0.5317
12940TIP3    H160235   2.422   0.227   5.352  0.8129  0.3992  1.7105
12940TIP3    H260236   2.304   0.297   5.417  1.2711  1.0250  1.8718
12941TIP3   OH260237   2.263   2.169  10.742  0.3559  0.3865  0.2580
12941TIP3    H160238   2.356   2.158  10.722  0.1486 -0.5553 -0.2171
12941TIP3    H260239   2.220   2.176  10.657  0.1543  2.3303  0.5020
12942TIP3   OH260240   4.617   5.374  16.833 -0.5014  0.2100  0.4201
12942TIP3    H160241   4.629   5.299  16.891 -0.6653  0.0522  0.2541
12942TIP3    H260242   4.546   5.348  16.774  0.9454 -0.3869 -1.0930
12943TIP3   OH260243   6.396   4.700   3.612  0.5255 -0.5889 -0.4545
12943TIP3    H160244   6.409   4.713   3.518 -0.3927 -0.0890 -0.5100
12943TIP3    H260245   6.472   4.742   3.652  0.5418 -0.1511 -0.9347
12944TIP3   OH260246   0.229   5.843   0.485  0.3776  0.1469 -0.0900
12944TIP3    H160247   0.200   5.789   0.559  0.9811 -0.2823 -0.1664
12944TIP3    H260248   0.324   5.852   0.498  1.2215 -3.3683 -3.0308
12945TIP3   OH260249   3.446   0.895   0.095  0.6034  0.3913 -0.3153
12945TIP3    H160250   3.451   0.978   0.144  1.2961  0.3840 -0.3749
12945TIP3    H260251   3.403   0.834   0.155  0.4165  0.6968 -0.1382
12946TIP3   OH260252   1.322   2.404  12.045 -0.0382 -0.0728  0.0094
12946TIP3    H160253   1.235   2.385  12.010 -0.3965  2.3614 -0.5547
12946TIP3    H260254   1.374   2.426  11.967  1.2592 -2.0753  0.2813
12947TIP3   OH260255   0.356   5.629  12.924 -0.0481 -1.2288  0.4190
12947TIP3    H160256   0.365   5.547  12.876  0.2683 -0.7236 -0.4166
12947TIP3    H260257   0.428   5.683  12.891  0.3979 -1.0003  1.7485
12948TIP3   OH260258   1.178   0.172   6.395  0.5185  0.7017 -0.1101
12948TIP3    H160259   1.267   0.150   6.422 -0.3575 -0.1334  2.1410
12948TIP3    H260260   1.140   0.217   6.470 -0.7085  1.8111 -1.3645
12949TIP3   OH260261   1.291   2.800  17.091 -0.1556  0.1451 -0.0314
12949TIP3    H160262   1.364   2.820  17.033 -1.4475  0.8231 -1.4851
12949TIP3    H260263   1.229   2.752  17.035 -1.3182  0.5887  0.8465
12950TIP3   OH260264   3.326   1.347   1.993  0.1317  0.3283  0.0816
12950TIP3    H160265   3.415   1.364   1.962 -0.0102 -1.7612 -1.6332
12950TIP3    H260266   3.330   1.361   2.088  1.7273  2.3757 -0.2514
12951TIP3   OH260267   3.772   0.123  16.687  0.0590 -0.1127  0.1816
12951TIP3    H160268   3.764   0.036  16.648  0.7238 -0.9668  1.8939
12951TIP3    H260269   3.697   0.129  16.748  1.0770 -0.2692  1.4791
12952TIP3   OH260270   0.349   2.302   5.442  0.3995 -0.1586  0.1837
12952TIP3    H160271   0.395   2.249   5.377 -1.4272 -0.8711 -0.5365
12952TIP3    H260272   0.309   2.373   5.391 -0.5057 -0.3550  0.6161
12953TIP3   OH260273   0.262   3.507   4.586 -0.6410  0.4156  0.2472
12953TIP3    H160274   0.177   3.475   4.617 -0.4125 -0.3673  0.0858
12953TIP3    H260275   0.279   3.585   4.639 -2.0453  1.3034 -0.5979
12954TIP3   OH260276   2.670   2.439   2.665 -0.0986  0.3972 -0.2874
12954TIP3    H160277   2.699   2.469   2.751 -1.9174  0.5947  0.2854
12954TIP3    H260278   2.639   2.350   2.681  2.2632 -0.6513 -1.3410
12955TIP3   OH260279   4.039   0.493   2.662 -0.0006 -0.5253  0.5745
12955TIP3    H160280   4.044   0.560   2.594 -1.1488  0.0009  0.9951
12955TIP3    H260281   4.041   0.541   2.744  0.6619 -1.1136  0.9080
12956TIP3   OH260282   3.951   2.531  16.629 -0.4093  0.0413 -0.0969
12956TIP3    H160283   3.918   2.450  16.590  1.1991 -0.7716  0.2101
12956TIP3    H260284   3.990   2.579  16.555 -0.4980  0.0993 -0.1074
12957TIP3   OH260285   4.765   0.862  15.555  0.6202  0.2352 -0.1047
12957TIP3    H160286   4.802   0.950  15.553 -0.9689  0.9023 -0.0733
12957TIP3    H260287   4.785   0.829  15.643 -1.1316  1.5846  0.8260
12958TIP3   OH260288   0.020   3.415   5.873 -0.0774 -0.4422 -0.2721
12958TIP3    H160289   0.085   3.433   5.805  0.7671 -0.6865  0.4539
12958TIP3    H260290  -0.063   3.446   5.837  0.8897  2.4676 -0.1186
12959TIP3   OH260291   2.987   2.181   1.522 -0.0154  0.8724 -0.3090
12959TIP3    H160292   2.949   2.220   1.600  0.6802  0.3113  0.3207
12959TIP3    H260293   3.028   2.100   1.553  0.1712  0.5907 -1.2698
12960TIP3   OH260294   6.609   3.411  14.972 -0.2274 -0.1557  0.3478
12960TIP3    H160295   6.544   3.451  14.914  0.0767 -1.5396 -0.9936
12960TIP3    H260296   6.671   3.369  14.912  0.1051 -1.5882  1.6647
12961TIP3   OH260297   2.247   5.836  16.702  0.2598 -0.4222 -0.1845
12961TIP3    H160298   2.315   5.878  16.650 -0.9618  0.2262 -1.2972
12961TIP3    H260299   2.276   5.846  16.793  1.0786  0.8566 -0.5756
12962TIP3   OH260300   2.863   3.322   1.287 -0.1498 -0.1959 -0.0579
12962TIP3    H160301   2.805   3.398   1.288  0.1186 -0.0129  1.2062
12962TIP3    H260302   2.942   3.354   1.243 -0.5376 -0.1239 -0.7246
12963TIP3   OH260303   6.316   0.271   3.668 -0.2030  0.0257  0.4540
12963TIP3    H160304   6.273   0.357   3.667 -0.4934 -0.1262 -0.9927
12963TIP3    H260305   6.245   0.208   3.677 -0.0056 -0.0915  1.2971
12964TIP3   OH260306   0.966   4.355   5.724  0.3435 -0.2109  0.5555
12964TIP3    H160307   1.021   4.331   5.798  0.8151 -0.5942  0.0865
12964TIP3    H260308   0.927   4.273   5.694 -1.1026  0.1686  1.3613
12965TIP3   OH260309   1.231   2.888  16.733  0.1494  0.2296  0.9082
12965TIP3    H160310   1.137   2.894  16.716  0.3147  0.8435  0.2301
12965TIP3    H260311   1.249   2.794  16.731  0.2545  0.2634 -2.8678
12966TIP3   OH260312   0.917   1.463   5.982 -0.4019  0.4145 -0.4267
12966TIP3    H160313   1.001   1.456   6.029  0.2312 -1.4990 -1.7796
12966TIP3    H260314   0.913   1.554   5.954  0.3906  0.9669  1.1962
12967TIP3   OH260315   2.509   5.534   5.699 -0.2555  0.3254 -0.2014
12967TIP3    H160316   2.450   5.579   5.639 -1.8876 -0.3821  0.8413
12967TIP3    H260317   2.467   5.542   5.785 -0.4491 -2.8995  0.0563
12968TIP3   OH260318   6.430   3.315  15.159  0.2887  0.5308  0.3222
12968TIP3    H160319   6.474   3.354  15.083  0.8301 -0.5829  0.0449
12968TIP3    H260320   6.350   3.278  15.123  1.4088 -1.6040 -0.0832
12969TIP3   OH260321   5.178   1.775  15.168  0.0818  0.4394 -0.1112
12969TIP3    H160322   5.161   1.770  15.262  1.1323 -0.8413  0.0312
12969TIP3    H260323   5.272   1.788  15.161  0.4998 -2.6193 -1.0025
12970TIP3   OH260324   3.445   0.672  11.402  0.3632  0.5037  0.0336
12970TIP3    H160325   3.376   0.721  11.447 -0.4184 -0.8583  0.3498
12970TIP3    H260326   3.439   0.584  11.438  1.5425  0.0812 -0.7607
12971TIP3   OH260327   1.974   0.846   4.509 -0.0508  0.0227  0.5076
12971TIP3    H160328   1.924   0.902   4.568  0.7059 -0.8020  1.9727
12971TIP3    H260329   1.998   0.770   4.563  2.6577  0.3354 -0.1836
12972TIP3   OH260330   6.694   1.084   1.176  0.1877 -0.6563  0.2090
12972TIP3    H160331   6.665   1.170   1.207  1.4791  0.2866 -1.1558
12972TIP3    H260332   6.619   1.050   1.127 -0.5592 -0.5990  1.2968
12973TIP3   OH260333   1.282   1.979  12.278 -0.3523 -0.4694 -0.6696
12973TIP3    H160334   1.307   2.007  12.366  0.4219 -0.9503 -0.7223
12973TIP3    H260335   1.210   2.036  12.254  0.4681  0.7377 -0.3445
12974TIP3   OH260336   4.773   5.377  12.208  0.3583 -0.2721  0.3989
12974TIP3    H160337   4.717   5.454  12.194  0.6243 -0.4771 -1.9792
12974TIP3    H260338   4.711   5.306  12.229 -0.1675 -0.2033 -0.9247
12975TIP3   OH260339   4.621   0.038   5.500  0.0805  0.0057 -0.0173
12975TIP3    H160340   4.555   0.106   5.515  1.4361  0.7988  2.6640
12975TIP3    H260341   4.577  -0.027   5.446 -3.0772  0.2764  2.1051
12976TIP3   OH260342   3.007   0.747   0.303 -0.0810 -0.0061  0.0651
12976TIP3    H160343   2.963   0.696   0.235 -0.3453 -0.5827  0.6633
12976TIP3    H260344   3.100   0.724   0.295 -0.3966 -1.8900  1.4138
12977TIP3   OH260345   4.225   5.838   4.995 -0.3024  0.1369  0.1080
12977TIP3    H160346   4.226   5.849   4.900  2.3578  1.6617  0.2582
12977TIP3    H260347   4.225   5.743   5.008  1.5336 -0.1212 -1.4622
12978TIP3   OH260348   4.281   1.382   3.574 -0.5145 -0.0499  0.3842
12978TIP3    H160349   4.223   1.422   3.510 -0.1703  1.1603  0.8223
12978TIP3    H260350   4.322   1.455   3.620 -0.5743 -0.8844  1.8228
12979TIP3   OH260351   3.194   1.687   3.332  0.3633  0.1885  0.0314
12979TIP3    H160352   3.262   1.622   3.317 -0.8141 -0.6269 -2.0092
12979TIP3    H260353   3.191   1.738   3.251 -0.1516  1.4613  0.8266
12980TIP3   OH260354   4.820   0.976  13.820  0.3593  0.0518  0.0197
12980TIP3    H160355   4.733   0.953  13.789  0.3026  0.1860  0.0809
12980TIP3    H260356   4.836   1.064  13.786  0.5748 -0.0753 -0.2089
12981TIP3   OH260357   1.886   4.345  11.692  0.2484  0.2891 -0.7861
12981TIP3    H160358   1.894   4.436  11.664 -0.1088  0.7089  0.4365
12981TIP3    H260359   1.974   4.309  11.682  0.6972  1.1486 -0.0130
12982TIP3   OH260360   6.524   6.206   0.984  0.6572 -0.2799  0.2059
12982TIP3    H160361   6.583   6.168   0.919  1.2277  1.2529 -0.1771
12982TIP3    H260362   6.547   6.161   1.065  1.1254 -0.9614 -0.2939
12983TIP3   OH260363   5.342   4.202   1.571 -0.0824  0.3978 -0.4139
12983TIP3    H160364   5.294   4.255   1.635 -0.3864  1.1209 -1.2346
12983TIP3    H260365   5.342   4.114   1.608  0.8746  1.0592  1.2223
12984TIP3   OH260366   0.453   1.798   2.812 -0.0791 -0.6448 -0.1050
12984TIP3    H160367   0.416   1.724   2.764 -0.5626 -0.3492 -0.1872
12984TIP3    H260368   0.538   1.813   2.771  0.0329 -1.1717 -0.0715
12985TIP3   OH260369   5.326   2.971   5.861  0.1249 -0.4357  0.3159
12985TIP3    H160370   5.379   2.893   5.875 -2.0072 -2.2219 -1.2120
12985TIP3    H260371   5.259   2.968   5.929 -0.6591 -0.5757 -0.4546
12986TIP3   OH260372   4.648   4.104   4.972 -0.7537  0.1023 -0.2997
12986TIP3    H160373   4.711   4.170   4.943  0.5216 -1.7918 -1.9834
12986TIP3    H260374   4.570   4.154   4.995  1.3621  2.5687  2.0685
12987TIP3   OH260375   4.501   2.771  14.265 -0.1894 -0.3812 -0.0510
12987TIP3    H160376   4.555   2.705  14.222  2.7319  1.1037  1.1026
12987TIP3    H260377   4.484   2.836  14.197  2.2763  0.7087  0.2848
12988TIP3   OH260378   6.780   2.846  12.260  0.4866  0.0184 -0.4070
12988TIP3    H160379   6.870   2.816  12.248  0.1168 -1.4092  0.2431
12988TIP3    H260380   6.786   2.919  12.320  0.9339 -2.1384  2.2835
12989TIP3   OH260381   0.424   1.675   5.276 -0.2741 -0.2127  0.4750
12989TIP3    H160382   0.436   1.763   5.241 -1.0280 -0.1648  0.3295
12989TIP3    H260383   0.502   1.659   5.329 -0.4825  0.8167  1.0839
12990TIP3   OH260384   2.670   2.806  16.651  0.4979 -0.1112  0.2172
12990TIP3    H160385   2.649   2.850  16.569 -0.0436 -1.4368 -0.3749
12990TIP3    H260386   2.731   2.864  16.695  1.7788  0.0145 -1.6994
12991TIP3   OH260387   2.123   0.492   5.800 -0.3242 -0.2433 -0.1606
12991TIP3    H160388   2.038   0.477   5.842 -0.0844  0.2531  0.5168
12991TIP3    H260389   2.170   0.409   5.811 -1.6775 -1.4524 -2.8962
12992TIP3   OH260390   4.404   3.369  13.156  0.2239 -0.3377  0.3371
12992TIP3    H160391   4.378   3.424  13.083 -0.7966 -0.6309  0.4772
12992TIP3    H260392   4.457   3.300  13.116  1.3103  0.6099  0.1396
12993TIP3   OH260393   6.739   0.384   6.236  0.4549 -0.1056 -0.1072
12993TIP3    H160394   6.756   0.465   6.284  2.1043  0.3893 -1.4744
12993TIP3    H260395   6.776   0.316   6.292  0.7377  0.2731  0.1725
12994TIP3   OH260396   1.748   2.801   2.400  0.2088  0.3287 -0.2927
12994TIP3    H160397   1.694   2.857   2.456  1.2438  1.5211 -0.4647
12994TIP3    H260398   1.808   2.862   2.356  2.2417 -1.0175  0.5102
12995TIP3   OH260399   4.832   4.435   5.167  0.2222  0.0387 -0.3676
12995TIP3    H160400   4.900   4.499   5.189  0.4684 -1.0178  2.1071
12995TIP3    H260401   4.752   4.470   5.207 -0.1993  0.0784 -1.2292
12996TIP3   OH260402   5.757   4.684   2.559 -0.2072  0.2961 -0.3753
12996TIP3    H160403   5.793   4.682   2.647 -0.9600  3.4921  0.0669
12996TIP3    H260404   5.833   4.674   2.501  0.1787 -2.7977  0.5766
12997TIP3   OH260405   3.458   2.575  14.716  0.0721 -0.2627  0.3869
12997TIP3    H160406   3.444   2.540  14.628  1.0210  0.9628 -0.2749
12997TIP3    H260407   3.426   2.665  14.711 -1.6116 -0.7558  1.8433
12998TIP3   OH260408   2.087   1.943  13.657  0.9712 -0.0009 -0.0367
12998TIP3    H160409   2.060   1.873  13.597  0.2275  0.7938 -0.6429
12998TIP3    H260410   2.015   1.949  13.720  0.5362  0.9158 -0.6064
12999TIP3   OH260411   0.129   0.824   2.627 -0.1389  0.7561 -0.3455
12999TIP3    H160412   0.044   0.865   2.640  0.0759  0.7142  1.3713
12999TIP3    H260413   0.170   0.826   2.714  0.6864 -1.2816 -0.6556
13000TIP3   OH260414   2.691   4.173   3.821  0.6717  0.1610 -0.0449
13000TIP3    H160415   2.780   4.154   3.791  1.9747  3.5472  1.3859
13000TIP3    H260416   2.704   4.216   3.906 -2.3864 -0.1886  0.6214
13001TIP3   OH260417   6.774   5.234   1.455  0.2432  1.0158 -0.0036
13001TIP3    H160418   6.690   5.188   1.461 -0.0487  1.4827 -0.5105
13001TIP3    H260419   6.778   5.286   1.535  0.6726 -0.0538  0.6778
13002TIP3   OH260420   1.397   4.051  15.069 -0.9996  0.1755 -0.4163
13002TIP3    H160421   1.396   4.105  14.990 -1.6355  2.7960  1.3032
13002TIP3    H260422   1.478   4.001  15.064  0.3393  2.3972 -1.3827
13003TIP3   OH260423   1.279   2.934   5.304 -0.3148  0.1012 -0.1428
13003TIP3    H160424   1.281   2.961   5.212 -2.2182 -0.9100 -0.5120
13003TIP3    H260425   1.355   2.977   5.344  0.1151  1.1277 -2.0257
13004TIP3   OH260426   1.931   4.350  16.733  0.1370  0.5539  0.4183
13004TIP3    H160427   2.007   4.390  16.775 -0.7917  2.0407  0.7224
13004TIP3    H260428   1.887   4.303  16.804  0.4665  0.1559  0.3615
13005TIP3   OH260429   1.776   1.631  13.224  0.2500  0.1727  0.0257
13005TIP3    H160430   1.801   1.540  13.236 -0.3978 -0.2901 -1.9566
13005TIP3    H260431   1.752   1.661  13.312 -0.9439 -1.9913  0.4769
13006TIP3   OH260432   5.491   3.978   2.078  0.1056 -0.1580  0.5992
13006TIP3    H160433   5.541   3.999   2.000 -0.9743  0.6123  0.0998
13006TIP3    H260434   5.459   3.888   2.063  0.9568 -0.4804  0.7231
13007TIP3   OH260435   5.609   4.301  14.472  0.1389  0.3575 -0.7441
13007TIP3    H160436   5.589   4.276  14.562  0.4527  1.2560 -0.4191
13007TIP3    H260437   5.677   4.239  14.445  0.7414  0.6981 -0.0286
13008TIP3   OH260438   1.521   5.948  15.807 -0.1894 -0.0389  0.0113
13008TIP3    H160439   1.607   5.983  15.829  1.0356 -1.4761 -2.2801
13008TIP3    H260440   1.477   5.938  15.892  1.4549  1.7529  1.1308
13009TIP3   OH260441   0.104   6.528  11.740 -0.0276 -0.0789 -0.0433
13009TIP3    H160442   0.119   6.464  11.670  1.3342  2.8068 -2.5139
13009TIP3    H260443   0.191   6.547  11.774 -0.3541  0.7773  0.3330
13010TIP3   OH260444   1.230   2.592   3.033 -0.2690  0.4050  0.5005
13010TIP3    H160445   1.215   2.621   2.943 -2.0057  0.7309  0.8863
13010TIP3    H260446   1.325   2.598   3.044 -0.0361  0.3247 -1.3177
13011TIP3   OH260447   2.180   0.186  11.356 -0.0899 -0.3888  0.2749
13011TIP3    H160448   2.114   0.197  11.288 -0.5190 -0.5930  0.6526
13011TIP3    H260449   2.252   0.142  11.312  0.3341  1.0101 -0.4620
13012TIP3   OH260450   6.180   5.434  11.545  0.8488  0.4014  0.4127
13012TIP3    H160451   6.193   5.503  11.480 -1.9714 -2.1052 -3.0583
13012TIP3    H260452   6.236   5.362  11.516  0.5065 -0.3295  1.5118
13013TIP3   OH260453   5.043   5.850   6.663  0.3535  0.6166 -0.0691
13013TIP3    H160454   5.095   5.793   6.606  1.4156 -0.6951  2.1800
13013TIP3    H260455   4.963   5.867   6.613  0.9124 -1.1613 -1.6224
13014TIP3   OH260456   3.929   3.073  15.548  0.3339 -0.0074 -0.7374
13014TIP3    H160457   3.933   2.987  15.590 -0.7094 -0.2631 -1.1331
13014TIP3    H260458   4.001   3.074  15.486 -0.3183 -1.0404 -1.5335
13015TIP3   OH260459   1.077   0.004  16.566  0.0258 -0.0674 -0.0499
13015TIP3    H160460   1.135  -0.067  16.539  1.4068 -0.0600  2.7902
13015TIP3    H260461   0.998  -0.040  16.597 -0.0424 -0.2269 -0.4394
13016TIP3   OH260462   5.489   2.014  14.448 -0.2722  0.4868 -0.0086
13016TIP3    H160463   5.490   1.920  14.466 -1.9459  0.3973 -0.2784
13016TIP3    H260464   5.432   2.023  14.372  0.2769  1.6747 -0.2929
13017TIP3   OH260465   1.261   3.414  14.144 -0.4371 -0.3611 -0.0475
13017TIP3    H160466   1.297   3.418  14.055  1.9134  1.2545  0.9255
13017TIP3    H260467   1.302   3.337  14.182  0.2143  0.1526  0.3040
13018TIP3   OH260468   6.781   6.312   3.676 -0.8878  0.2498  0.3887
13018TIP3    H160469   6.723   6.236   3.671  0.1546 -0.6082  0.9551
13018TIP3    H260470   6.755   6.356   3.757 -1.0688  0.1447  0.3889
13019TIP3   OH260471   4.006   5.495   2.688  0.1821  0.3628  0.1142
13019TIP3    H160472   4.067   5.538   2.628 -0.3909  0.1241 -0.6469
13019TIP3    H260473   3.935   5.558   2.697 -0.4023 -0.1880 -0.5760
13020TIP3   OH260474   4.127   5.992   1.336 -0.4517 -0.5807 -0.3673
13020TIP3    H160475   4.061   6.062   1.338 -1.8678 -1.9095  0.3122
13020TIP3    H260476   4.195   6.022   1.397 -1.1466  0.1115  0.0829
13021TIP3   OH260477   2.286   0.109   3.502 -0.1265 -0.0190 -0.5305
13021TIP3    H160478   2.251   0.039   3.557  1.0908  0.8732  1.4324
13021TIP3    H260479   2.301   0.182   3.562  2.5138  0.5367 -1.7899
13022TIP3   OH260480   3.733   1.960  14.987  0.8042  0.1250  0.0191
13022TIP3    H160481   3.791   1.886  14.969  1.7121  0.4053  1.7066
13022TIP3    H260482   3.757   2.025  14.921  1.4695 -0.2905 -0.1605
13023TIP3   OH260483   4.339   4.784   4.846 -0.0705  0.2367 -0.6487
13023TIP3    H160484   4.339   4.776   4.942 -0.5342 -0.6236 -0.7083
13023TIP3    H260485   4.256   4.827   4.825 -0.1945 -0.0184 -0.6892
13024TIP3   OH260486   0.116   1.841  12.511  0.1155  0.1706 -0.4261
13024TIP3    H160487   0.133   1.842  12.605 -1.8267 -2.1206  0.0042
13024TIP3    H260488   0.202   1.858  12.471  1.0581  0.6937  1.7222
13025TIP3   OH260489   6.139   3.198   1.635  0.2860  0.2961 -0.8119
13025TIP3    H160490   6.191   3.242   1.703  0.0587 -0.2466 -0.2836
13025TIP3    H260491   6.129   3.264   1.566  2.3351  0.1756 -1.2774
13026TIP3   OH260492   1.191   6.559   4.525 -0.4625 -0.3920 -0.8566
13026TIP3    H160493   1.164   6.514   4.444 -0.3642  1.2422 -1.8310
13026TIP3    H260494   1.267   6.510   4.556 -0.6857 -1.2166 -1.5995
13027TIP3   OH260495   5.075   5.542   5.236 -0.2724 -0.0272  0.1076
13027TIP3    H160496   5.159   5.546   5.281  0.9592 -0.7924 -2.1080
13027TIP3    H260497   5.072   5.621   5.183 -1.0635  0.1030  0.3290
13028TIP3   OH260498   1.948   5.840  11.566  0.2874  0.1976  0.2523
13028TIP3    H160499   1.881   5.772  11.574  2.7299 -2.1952  0.8631
13028TIP3    H260500   1.925   5.886  11.486 -2.4272 -0.1863  0.7610
13029TIP3   OH260501   4.641   3.193  17.164  0.0212 -0.0792  0.0385
13029TIP3    H160502   4.603   3.274  17.130  1.8526  2.2252  3.2315
13029TIP3    H260503   4.567   3.145  17.201 -0.8682  0.8573 -0.5002
13030TIP3   OH260504   1.409   1.813   2.384 -0.0763  0.0400  0.1182
13030TIP3    H160505   1.474   1.882   2.372 -1.4079  1.4291  0.8050
13030TIP3    H260506   1.419   1.758   2.306  2.2903 -0.0957  0.4758
13031TIP3   OH260507   4.468   0.148  14.005 -0.1606  0.1172 -0.0377
13031TIP3    H160508   4.521   0.146  13.925 -0.1447  0.4814 -0.0366
13031TIP3    H260509   4.433   0.059  14.012  0.6511 -0.1931  0.0919
13032TIP3   OH260510   5.021   4.441  10.804  0.5075  0.7707 -0.2547
13032TIP3    H160511   5.024   4.427  10.710 -1.5718 -1.6147 -0.0064
13032TIP3    H260512   5.105   4.408  10.837 -0.0921 -1.4886 -0.9172
13033TIP3   OH260513   0.536   4.570  15.767 -0.0366 -0.0185 -0.5034
13033TIP3    H160514   0.504   4.610  15.685 -0.6714  0.5116 -0.0009
13033TIP3    H260515   0.543   4.643  15.828  2.1722 -0.1234 -0.5966
13034TIP3   OH260516   6.035   3.450  15.867 -0.0457 -0.4084  0.0612
13034TIP3    H160517   6.057   3.527  15.815 -0.5223  0.4155  1.0644
13034TIP3    H260518   6.090   3.456  15.945 -0.7821 -0.5472  0.6041
13035TIP3   OH260519   2.887   4.918  16.620  0.5861  0.2103  0.1997
13035TIP3    H160520   2.819   4.905  16.555  0.9010  0.8168 -0.2517
13035TIP3    H260521   2.881   5.011  16.644  0.5780  0.0309  0.9055
13036TIP3   OH260522   6.395   3.577   2.898 -0.1551  0.4670 -0.5097
13036TIP3    H160523   6.351   3.493   2.888 -1.9663  1.3860 -0.4491
13036TIP3    H260524   6.405   3.610   2.808  0.2487  0.3537 -0.5092
13037TIP3   OH260525   0.552   4.245   3.672  0.3873  0.0841  0.2520
13037TIP3    H160526   0.474   4.237   3.726  1.8082 -0.3256  2.2828
13037TIP3    H260527   0.625   4.239   3.733  2.0498 -0.7437 -1.7476
13038TIP3   OH260528   2.798   1.076   4.770 -0.5227  0.1858  0.8055
13038TIP3    H160529   2.787   1.020   4.693 -1.8259  2.5937 -0.8319
13038TIP3    H260530   2.716   1.067   4.818  0.1108 -0.9550  1.7042
13039TIP3   OH260531   2.276   5.237   6.126 -0.0396  0.2211  0.5815
13039TIP3    H160532   2.344   5.281   6.178  0.6919 -1.0695  0.7287
13039TIP3    H260533   2.241   5.170   6.183  0.7297 -1.1794 -0.5644
13040TIP3   OH260534   0.347   0.486   5.691  0.4823  0.5589 -0.2271
13040TIP3    H160535   0.336   0.573   5.652 -1.0073  1.1841  1.4859
13040TIP3    H260536   0.322   0.425   5.621  0.4899  1.5554 -1.1036
13041TIP3   OH260537   5.642   0.356  15.001  0.4949  0.1829  0.4069
13041TIP3    H160538   5.699   0.332  14.928 -0.4071 -0.9717  0.0680
13041TIP3    H260539   5.606   0.441  14.976  0.1112 -0.2536 -0.5534
13042TIP3   OH260540   6.095   6.308  10.846 -0.5348  0.4665 -0.4766
13042TIP3    H160541   6.180   6.267  10.830 -0.0827  1.6940 -1.2086
13042TIP3    H260542   6.058   6.257  10.919 -0.1230 -1.4483 -1.5668
13043TIP3   OH260543   0.528   5.282   5.381  0.1945 -0.2479  0.0367
13043TIP3    H160544   0.568   5.304   5.297 -0.5121  2.2499  0.3280
13043TIP3    H260545   0.440   5.250   5.358 -0.1912  0.9259 -0.1617
13044TIP3   OH260546   6.342   1.822  13.264 -0.2368 -0.0538 -0.0027
13044TIP3    H160547   6.355   1.915  13.245  0.1787 -0.4905 -2.0380
13044TIP3    H260548   6.419   1.798  13.316  1.0036  0.1823 -1.6462
13045TIP3   OH260549   3.283   5.007   6.087 -0.4480 -0.1053 -0.0737
13045TIP3    H160550   3.221   4.939   6.114 -1.7437  1.6921  1.6349
13045TIP3    H260551   3.283   5.070   6.160  2.2362  0.7205 -0.7274
13046TIP3   OH260552   1.822   5.639   4.471  0.1810  0.5850 -0.3524
13046TIP3    H160553   1.816   5.614   4.379 -2.1741 -1.7468  0.3998
13046TIP3    H260554   1.731   5.656   4.497  0.7704  0.6888  1.6853
13047TIP3   OH260555   0.473   0.429  15.803  0.3540  0.3273 -0.5599
13047TIP3    H160556   0.451   0.400  15.891 -0.0863  0.3586 -0.6602
13047TIP3    H260557   0.562   0.396  15.789  1.2765  2.1923  0.7243
13048TIP3   OH260558   2.915   0.524   7.106  0.1719  0.2076  0.0038
13048TIP3    H160559   2.866   0.518   7.023 -0.2279 -1.2258  0.3318
13048TIP3    H260560   3.003   0.496   7.084  0.4998  1.4280 -0.2816
13049TIP3   OH260561   6.768   5.070   5.796  0.3807  0.0409  0.4322
13049TIP3    H160562   6.680   5.109   5.797  0.2737 -0.1702 -0.4064
13049TIP3    H260563   6.823   5.133   5.842 -0.1310  0.3598  0.6172
13050TIP3   OH260564   4.407   4.114  13.534 -0.3048 -0.5274  0.0113
13050TIP3    H160565   4.397   4.046  13.468  0.2749 -0.2132 -0.4059
13050TIP3    H260566   4.415   4.195  13.484 -1.6020 -0.0710  0.5186
13051TIP3   OH260567   1.481   1.645   2.140 -0.5098  0.1061  0.2522
13051TIP3    H160568   1.443   1.609   2.059 -0.8467  0.8793  0.0668
13051TIP3    H260569   1.558   1.694   2.112  0.6022 -1.3901  0.6222
13052TIP3   OH260570   2.169   5.559   4.023  1.0017  0.7391  0.1616
13052TIP3    H160571   2.208   5.496   4.084 -0.8958 -0.9726 -0.3528
13052TIP3    H260572   2.162   5.640   4.075  2.6246  0.2997  1.1095
13053TIP3   OH260573   5.423   5.722   1.963 -0.7559 -0.2874  0.7059
13053TIP3    H160574   5.387   5.802   1.924 -2.0966 -1.8903 -1.4634
13053TIP3    H260575   5.354   5.692   2.022 -1.6844 -1.6221 -1.0201
13054TIP3   OH260576   4.204   5.395  16.637  0.0697 -0.7368  0.3930
13054TIP3    H160577   4.279   5.354  16.679  0.9894 -1.5509 -1.9610
13054TIP3    H260578   4.154   5.322  16.601 -0.2993 -0.0270 -0.5528
13055TIP3   OH260579   1.290   3.506  15.839  0.7425 -0.2622  0.1777
13055TIP3    H160580   1.291   3.558  15.759 -1.2449 -0.5569 -0.0757
13055TIP3    H260581   1.301   3.570  15.909 -0.7713  0.4306 -0.1843
13056TIP3   OH260582   0.084   6.469  11.240  0.0487 -0.1594  0.0556
13056TIP3    H160583   0.098   6.534  11.172 -0.4967  0.8144  0.8676
13056TIP3    H260584   0.032   6.401  11.198  2.0408 -0.9196 -1.2781
13057TIP3   OH260585   5.298   4.903   1.175  0.4333 -0.1574 -0.6764
13057TIP3    H160586   5.241   4.899   1.098  0.2763  0.5652 -0.5996
13057TIP3    H260587   5.386   4.889   1.141  0.2430 -0.9960 -0.8328
13058TIP3   OH260588   5.729   0.554  13.435 -0.6582  0.1804  0.1221
13058TIP3    H160589   5.795   0.605  13.388  0.3344 -1.0854  0.1075
13058TIP3    H260590   5.665   0.529  13.368 -1.4519  1.8543  0.2319
13059TIP3   OH260591   5.729   1.625   5.336 -0.8777  0.1518 -0.4122
13059TIP3    H160592   5.796   1.623   5.267 -0.8476 -0.2056 -0.3734
13059TIP3    H260593   5.709   1.718   5.347 -1.6032  0.1554 -1.6090
13060TIP3   OH260594   4.875   2.649  16.173 -0.8018  0.3875 -0.8652
13060TIP3    H160595   4.924   2.728  16.197 -1.2434  0.3442  0.1912
13060TIP3    H260596   4.899   2.633  16.082  1.3222  0.2342 -0.2975
13061TIP3   OH260597   6.093   0.720   5.955  0.5069 -0.5153  0.0292
13061TIP3    H160598   6.136   0.746   6.036 -0.3774 -0.8893  0.6288
13061TIP3    H260599   6.086   0.800   5.903  0.4153 -0.1340  0.6357
13062TIP3   OH260600   1.040   4.322   3.560  0.0371  0.1235  0.3946
13062TIP3    H160601   1.063   4.316   3.653 -0.3074  0.6537  0.5153
13062TIP3    H260602   1.054   4.414   3.537 -0.6167  0.1543  0.1150
13063TIP3   OH260603   2.646   5.296  12.215  0.0751  0.2742  0.2163
13063TIP3    H160604   2.732   5.336  12.230  0.1275  0.3738 -0.3495
13063TIP3    H260605   2.583   5.360  12.246  0.2126  0.0788  0.9128
13064TIP3   OH260606   2.599   0.752  11.988 -0.6906 -0.5325  0.1246
13064TIP3    H160607   2.612   0.749  11.893 -0.1661 -1.3838  0.2156
13064TIP3    H260608   2.687   0.748  12.025 -0.7151  2.4952  0.6231
13065TIP3   OH260609   0.460   1.081  15.152 -0.2532  0.4642 -0.3512
13065TIP3    H160610   0.465   1.092  15.057 -0.6881  2.0280 -0.1974
13065TIP3    H260611   0.504   0.998  15.168 -0.2974  0.1147 -1.9360
13066TIP3   OH260612   1.234   4.328   0.642 -0.1170  0.2781  0.9185
13066TIP3    H160613   1.285   4.274   0.582 -0.4544  0.3726  0.5412
13066TIP3    H260614   1.198   4.398   0.587 -2.1189 -0.7937  0.8128
13067TIP3   OH260615   5.616   3.795   5.039 -0.1516  0.6757  0.6890
13067TIP3    H160616   5.564   3.747   4.975 -2.5950  4.2034 -0.1077
13067TIP3    H260617   5.619   3.738   5.116 -1.8132 -1.2830 -0.6542
13068TIP3   OH260618   5.534   3.450   1.015  0.3611 -0.4063 -0.2868
13068TIP3    H160619   5.472   3.504   1.065  1.1486  1.6059 -1.4417
13068TIP3    H260620   5.478   3.389   0.967 -0.6771  0.6416 -0.4432
13069TIP3   OH260621   3.556   5.681  17.026 -0.0328 -0.4955 -0.1124
13069TIP3    H160622   3.567   5.658  16.934  1.2856 -1.3500  0.2467
13069TIP3    H260623   3.479   5.630  17.054  0.1857 -1.0221 -0.4731
13070TIP3   OH260624   0.251   4.501  13.644 -0.3309 -0.7129 -0.4121
13070TIP3    H160625   0.270   4.552  13.565 -2.0549 -0.3514 -0.6162
13070TIP3    H260626   0.210   4.421  13.611  0.3382 -1.2381  0.0331
13071TIP3   OH260627   4.676   0.160   3.501 -0.2889 -0.2272 -0.3642
13071TIP3    H160628   4.589   0.132   3.529  0.0028 -0.2744  0.4873
13071TIP3    H260629   4.736   0.102   3.547  0.3035  1.4875  1.0792
13072TIP3   OH260630   1.993   4.588  11.658  0.1406 -0.1066 -0.7411
13072TIP3    H160631   2.073   4.620  11.616 -0.9346  0.6957 -2.1961
13072TIP3    H260632   2.009   4.598  11.752  0.7438  2.4561 -1.1029
13073TIP3   OH260633   2.473   3.678   1.048 -0.5209 -0.9387  0.4901
13073TIP3    H160634   2.553   3.725   1.028 -1.0567  0.1712  0.9296
13073TIP3    H260635   2.501   3.602   1.099  0.3336 -1.0283 -0.1175
13074TIP3   OH260636   0.838   1.341  14.644  0.3866 -0.1415  0.0496
13074TIP3    H160637   0.872   1.285  14.574  1.5954 -1.7514  1.8849
13074TIP3    H260638   0.916   1.371  14.691 -0.4813 -0.3033  1.6322
13075TIP3   OH260639   6.780   1.970  16.581  0.5085  0.2783  0.0776
13075TIP3    H160640   6.860   1.953  16.531 -0.9841 -0.2171 -2.2317
13075TIP3    H260641   6.725   1.893  16.565 -0.1365  0.2440  2.2825
13076TIP3   OH260642   1.439   3.576   2.814 -0.0984  0.1902 -0.2758
13076TIP3    H160643   1.391   3.506   2.770 -2.3476  2.4981 -1.5860
13076TIP3    H260644   1.400   3.581   2.902 -0.5399  0.3970 -0.4853
13077TIP3   OH260645   5.462   5.059  11.051  0.0091  0.0725 -0.2177
13077TIP3    H160646   5.397   5.032  10.986  1.8537 -2.0440 -1.2344
13077TIP3    H260647   5.522   5.115  11.003 -0.4154  1.1148  0.4536
13078TIP3   OH260648   2.018   2.146  13.354 -0.1430  0.8062  0.8937
13078TIP3    H160649   2.048   2.231  13.385  0.5930  1.9630 -2.6991
13078TIP3    H260650   2.097   2.092  13.352  0.0442  1.0999 -0.0159
13079TIP3   OH260651   6.056   2.824   3.325  0.8469  0.2576  0.0835
13079TIP3    H160652   6.095   2.830   3.237 -1.7258 -0.0899 -1.1284
13079TIP3    H260653   6.081   2.737   3.356  0.8322 -0.0667 -0.7938
13080TIP3   OH260654   2.043   6.629  14.523 -0.4243 -0.7096  0.5128
13080TIP3    H160655   1.968   6.624  14.462 -0.3077  1.5769  0.1123
13080TIP3    H260656   2.117   6.653  14.467 -0.0862  0.3034  1.3716
13081TIP3   OH260657   4.867   4.166  14.951  0.0328  0.2196  0.2948
13081TIP3    H160658   4.954   4.205  14.948 -0.7484  1.9145 -1.2438
13081TIP3    H260659   4.881   4.075  14.924  1.2464  0.6111 -0.4528
13082TIP3   OH260660   5.747   5.337   1.115 -0.5388  0.7038  0.5125
13082TIP3    H160661   5.747   5.409   1.052  1.0663  0.3492  0.0868
13082TIP3    H260662   5.756   5.379   1.200 -2.5690  1.1799  0.5169
13083TIP3   OH260663   4.174   6.075  17.033  0.2513  0.7398  0.0095
13083TIP3    H160664   4.166   5.979  17.038  0.1083  0.7660  0.3052
13083TIP3    H260665   4.179   6.103  17.124  1.4659  0.9239 -0.1143
13084TIP3   OH260666   6.031   6.553   6.177 -0.0258 -0.1797 -0.6807
13084TIP3    H160667   5.974   6.593   6.243  2.3022 -0.6778  1.7336
13084TIP3    H260668   6.089   6.623   6.149 -1.4196  0.1905 -2.7385
13085TIP3   OH260669   5.083   1.317   2.407  0.6870  0.0103 -0.9606
13085TIP3    H160670   5.078   1.234   2.454  0.0475 -0.0183 -1.0804
13085TIP3    H260671   5.036   1.379   2.463  0.9731  0.2475 -0.9782
13086TIP3   OH260672   2.060   3.463   0.322 -0.6012 -0.2928 -0.2084
13086TIP3    H160673   2.095   3.462   0.410 -1.6872  3.2504  0.3487
13086TIP3    H260674   1.966   3.480   0.334 -0.8488 -0.2853 -2.0045
13087TIP3   OH260675   1.765   1.287   5.679 -0.3358  0.4977 -0.6725
13087TIP3    H160676   1.843   1.240   5.650 -0.3332  1.0291 -1.5328
13087TIP3    H260677   1.706   1.285   5.603 -1.5447 -0.7005  0.2587
13088TIP3   OH260678   4.861   0.533  12.870  0.1139  0.1501  0.4125
13088TIP3    H160679   4.910   0.592  12.927  1.7956  0.5147 -1.3365
13088TIP3    H260680   4.798   0.590  12.826 -0.6731  0.0020  1.3420
13089TIP3   OH260681   6.523   4.538   5.976 -0.8021 -0.2348 -0.4188
13089TIP3    H160682   6.560   4.452   5.995 -0.8828  0.0254  0.9849
13089TIP3    H260683   6.547   4.591   6.052 -3.4028  0.1339  0.1736
13090TIP3   OH260684   4.140   6.565   5.985  0.0098  0.2186  0.1068
13090TIP3    H160685   4.098   6.610   5.912  1.0948 -0.7718 -1.1533
13090TIP3    H260686   4.084   6.489   6.002  0.0736  0.1249 -0.0964
13091TIP3   OH260687   2.309   0.154   1.477  0.0766 -0.0635 -0.1016
13091TIP3    H160688   2.273   0.243   1.470 -1.0874 -0.5640 -0.4697
13091TIP3    H260689   2.296   0.131   1.569 -0.3325 -0.1507 -0.1795
13092TIP3   OH260690   0.518   0.789   3.035  0.1459  0.2661 -0.0002
13092TIP3    H160691   0.564   0.777   3.118  0.8080  2.2070 -0.0570
13092TIP3    H260692   0.433   0.824   3.059  0.9865  2.5255 -0.1980
13093TIP3   OH260693   1.528   4.018  14.672 -0.7210  0.0786  0.5402
13093TIP3    H160694   1.593   4.083  14.643 -0.4296 -0.0362  0.9281
13093TIP3    H260695   1.553   3.938  14.627 -1.1044  0.2494  0.0318
13094TIP3   OH260696   5.885   4.648  16.873  0.5733  0.3300  0.0902
13094TIP3    H160697   5.927   4.730  16.847  1.0033  0.3708  0.9184
13094TIP3    H260698   5.866   4.658  16.966  2.9592 -1.4916  0.8233
13095TIP3   OH260699   1.040   3.700  16.817 -0.1012 -0.5987  0.0112
13095TIP3    H160700   1.014   3.610  16.797  1.1620 -1.9287  3.9746
13095TIP3    H260701   1.132   3.705  16.788  0.5289 -1.3252  1.8225
13096TIP3   OH260702   2.610   4.055  11.514  0.9811  0.3475  0.4510
13096TIP3    H160703   2.577   4.021  11.597 -0.0733 -0.3583 -0.2531
13096TIP3    H260704   2.641   3.978  11.467 -0.0374  0.5336 -0.5286
13097TIP3   OH260705   2.708   0.975   5.129  0.5495 -0.2429  0.3663
13097TIP3    H160706   2.724   1.062   5.091  2.0100  0.2895  2.0920
13097TIP3    H260707   2.773   0.918   5.087  0.2518 -0.2820 -0.0404
13098TIP3   OH260708   5.834   5.986   3.485  0.6416  0.2143  0.4555
13098TIP3    H160709   5.822   6.067   3.535  2.2586  0.2172  0.8543
13098TIP3    H260710   5.925   5.961   3.501  0.1833 -1.6392  0.2669
13099TIP3   OH260711   6.154   3.879  14.131  0.1328 -0.0443  0.5323
13099TIP3    H160712   6.179   3.792  14.162 -1.2720 -0.9919 -0.9205
13099TIP3    H260713   6.060   3.884  14.145  0.1497  1.1166  0.2958
13100TIP3   OH260714   0.378   5.459  13.784 -0.0734 -0.0084 -0.1579
13100TIP3    H160715   0.438   5.515  13.833  0.1123  0.5832 -1.0486
13100TIP3    H260716   0.354   5.511  13.707 -2.3448  0.0572  0.5725
13101TIP3   OH260717   0.728   6.642   3.161  0.1356 -0.6195 -0.3163
13101TIP3    H160718   0.800   6.675   3.107  0.5948 -0.0534  0.6266
13101TIP3    H260719   0.675   6.720   3.181 -0.3843 -0.9274 -0.4711
13102TIP3   OH260720   4.391   5.445  12.089 -0.3289  0.2170 -0.0460
13102TIP3    H160721   4.416   5.509  12.156 -1.2726  1.0725 -0.4844
13102TIP3    H260722   4.360   5.499  12.016  2.5823 -0.6102 -1.9818
13103TIP3   OH260723   2.134   3.404   1.666  0.0563  0.1703 -0.0653
13103TIP3    H160724   2.148   3.499   1.665  0.3058  0.1398  0.4404
13103TIP3    H260725   2.076   3.389   1.741  1.3818 -0.2675  0.8862
13104TIP3   OH260726   0.902   6.660   1.943  0.3834 -0.5813 -0.5453
13104TIP3    H160727   0.824   6.632   1.894  0.8421  0.1885 -1.7461
13104TIP3    H260728   0.973   6.607   1.907  0.4218 -1.3076  0.5758
13105TIP3   OH260729   5.796   3.876   4.826  0.2610 -0.6295 -0.2308
13105TIP3    H160730   5.739   3.865   4.902  0.6689  1.8802  0.4831
13105TIP3    H260731   5.736   3.872   4.751 -0.3361 -1.6831  0.2947
13106TIP3   OH260732   1.993   2.384  11.897 -0.4354 -0.1683  0.1615
13106TIP3    H160733   2.080   2.351  11.876  0.0859  1.4034 -0.2284
13106TIP3    H260734   1.971   2.443  11.825 -0.6156  1.6558  1.6587
13107TIP3   OH260735   6.770   5.643  13.029 -0.5622 -0.5717  0.0826
13107TIP3    H160736   6.860   5.625  13.056 -0.4640  0.9083  0.8025
13107TIP3    H260737   6.758   5.736  13.048 -2.1813 -0.7149 -0.2023
13108TIP3   OH260738   0.812   2.593  12.098 -0.0907  0.5181  0.2628
13108TIP3    H160739   0.794   2.599  12.191  0.4601 -0.4479  0.4416
13108TIP3    H260740   0.731   2.558  12.060  0.4285 -1.2199  0.6949
13109TIP3   OH260741   3.444   4.624   1.985  0.2772 -0.1967  0.6671
13109TIP3    H160742   3.408   4.709   1.959 -1.2052 -0.5376  1.5476
13109TIP3    H260743   3.428   4.620   2.079  1.0934 -1.1170  0.7731
13110TIP3   OH260744   5.005   2.234   4.095  0.3035 -0.1793 -0.2629
13110TIP3    H160745   5.026   2.313   4.145  0.7629 -0.9149  0.7007
13110TIP3    H260746   4.976   2.268   4.010  2.1591  0.9806 -0.4701
13111TIP3   OH260747   6.644   4.210  12.466 -0.3479 -0.5389 -0.0460
13111TIP3    H160748   6.586   4.232  12.539 -0.8074 -0.8730 -0.3078
13111TIP3    H260749   6.588   4.167  12.403  0.2689 -1.2320 -0.1303
13112TIP3   OH260750   0.483   4.690   1.187 -0.5603  0.5130  0.0741
13112TIP3    H160751   0.556   4.750   1.173  0.8257 -1.1785 -0.1185
13112TIP3    H260752   0.504   4.644   1.269 -0.9726 -0.5837 -0.4172
13113TIP3   OH260753   1.421   2.006  14.459  0.5916 -0.0822  0.1597
13113TIP3    H160754   1.333   2.044  14.454  0.1023 -1.2198  0.0216
13113TIP3    H260755   1.475   2.075  14.497 -0.1706  0.9527 -0.5994
13114TIP3   OH260756   2.767   2.956   5.030  0.0546  0.1084 -0.1266
13114TIP3    H160757   2.679   2.985   5.005  0.1001  0.8994  0.5880
13114TIP3    H260758   2.761   2.941   5.125  0.8279  0.7117  0.0268
13115TIP3   OH260759   1.384   6.722   5.228  0.3851 -0.1171  0.2977
13115TIP3    H160760   1.292   6.719   5.255 -0.0792 -1.6898 -1.3461
13115TIP3    H260761   1.393   6.806   5.184 -0.3246 -0.0625  0.2452
13116TIP3   OH260762   3.768   3.075  13.283  0.7179 -0.4828 -0.2934
13116TIP3    H160763   3.730   2.990  13.260  0.0499 -0.5266  0.9201
13116TIP3    H260764   3.861   3.057  13.296  0.6856 -0.9124 -0.6509
13117TIP3   OH260765   1.481   5.529   3.448 -0.1768 -0.0665  0.1842
13117TIP3    H160766   1.436   5.504   3.529 -0.8888  0.5146 -0.0197
13117TIP3    H260767   1.527   5.610   3.470 -0.6207  0.2589 -0.0669
13118TIP3   OH260768   3.969   0.910   1.166 -0.0956  0.2908 -0.3731
13118TIP3    H160769   3.921   0.908   1.249 -0.4915 -1.1631 -0.6230
13118TIP3    H260770   4.045   0.853   1.181 -0.3803 -0.2956 -1.1216
13119TIP3   OH260771   0.519   6.056   3.781 -0.0285  0.5342 -0.7611
13119TIP3    H160772   0.578   6.119   3.742 -0.8104  1.8962  0.1912
13119TIP3    H260773   0.442   6.108   3.807 -1.1094 -0.9701 -0.8519
13120TIP3   OH260774   6.454   5.985   2.024 -0.8647 -0.3347  0.5535
13120TIP3    H160775   6.365   5.959   2.000 -0.9045 -0.1631  0.5144
13120TIP3    H260776   6.444   6.073   2.061 -1.0892 -1.4377  3.1829
13121TIP3   OH260777   0.146   3.900  15.722  0.0219 -0.9330  0.4453
13121TIP3    H160778   0.221   3.903  15.663  0.6002 -2.1906  1.0801
13121TIP3    H260779   0.182   3.925  15.807 -0.7038  0.4095  0.3763
13122TIP3   OH260780   0.011   6.400  15.567 -0.6477  0.0333 -0.4784
13122TIP3    H160781   0.000   6.488  15.529  0.5628 -0.8084 -2.8453
13122TIP3    H260782  -0.061   6.349  15.529  1.0732 -1.0357 -2.4068
13123TIP3   OH260783   6.685   1.105   4.476  0.2435 -0.4680  0.4709
13123TIP3    H160784   6.753   1.145   4.531 -0.4067  0.5086  0.5776
13123TIP3    H260785   6.661   1.173   4.414 -0.6951 -0.7792  0.4826
13124TIP3   OH260786   0.659   4.240   5.382  0.2226  0.1094  0.2458
13124TIP3    H160787   0.591   4.203   5.437 -0.6471  2.2138  0.6291
13124TIP3    H260788   0.701   4.307   5.436  0.5463  0.9522 -1.0068
13125TIP3   OH260789   4.892   0.696   1.998 -0.1530  0.0143 -0.4309
13125TIP3    H160790   4.956   0.711   2.068  0.4263 -0.6247 -0.8096
13125TIP3    H260791   4.916   0.759   1.930 -0.7009  0.6186 -0.0633
13126TIP3   OH260792   5.670   3.764   0.752 -0.1163 -0.2827  0.6006
13126TIP3    H160793   5.595   3.706   0.741 -1.5087  1.7617 -0.8723
13126TIP3    H260794   5.656   3.805   0.838 -1.0007  0.5053  0.0923
13127TIP3   OH260795   1.790   2.518   0.131 -0.0540  0.2046  0.8307
13127TIP3    H160796   1.860   2.541   0.192  0.7660 -0.9124  0.3299
13127TIP3    H260797   1.795   2.423   0.124  1.0315  0.4147 -2.3062
13128TIP3   OH260798   1.601   6.642  13.012 -0.6003  0.3294 -0.0401
13128TIP3    H160799   1.569   6.724  12.975  0.2129  1.9275  2.6278
13128TIP3    H260800   1.690   6.662  13.041 -0.3900 -1.5019  0.6211
13129TIP3   OH260801   0.817   3.044   3.472  0.0400 -0.3432  0.0764
13129TIP3    H160802   0.836   2.964   3.521  1.4517 -0.8998 -1.3185
13129TIP3    H260803   0.804   3.111   3.539  1.7966 -1.1142  1.2238
13130TIP3   OH260804   0.877   5.551   6.097  0.2642 -0.3821 -0.3661
13130TIP3    H160805   0.897   5.460   6.117 -1.7995 -0.6189  0.7396
13130TIP3    H260806   0.903   5.600   6.175  0.2639 -0.1869 -0.4865
13131TIP3   OH260807   1.721   5.625  12.623 -0.2570  0.0168 -0.2395
13131TIP3    H160808   1.655   5.635  12.692  0.6451 -0.8279  0.7658
13131TIP3    H260809   1.805   5.638  12.668  0.3413 -0.5170 -1.1842
13132TIP3   OH260810   6.001   5.074  15.804  0.1375 -0.3925  0.0213
13132TIP3    H160811   6.068   5.066  15.871 -0.8015  1.3972  1.2178
13132TIP3    H260812   6.026   5.152  15.755 -0.1269 -0.7160 -0.6366
13133TIP3   OH260813   0.936   6.715  16.046  0.2770 -0.0781  0.0919
13133TIP3    H160814   0.873   6.736  15.977  0.4637  0.1813  0.0031
13133TIP3    H260815   1.016   6.693  15.999  0.3670 -0.0295  0.2246
13134TIP3   OH260816   6.190   2.623   4.434  0.2138 -0.0633  0.0870
13134TIP3    H160817   6.267   2.588   4.480 -0.3085 -1.4587 -0.0710
13134TIP3    H260818   6.117   2.570   4.466 -0.2084 -0.8652 -2.0991
13135TIP3   OH260819   4.606   0.622   0.206 -0.5851  0.1889 -1.0312
13135TIP3    H160820   4.654   0.705   0.204  0.4009 -0.3021  0.9518
13135TIP3    H260821   4.638   0.574   0.130  1.1148  0.4182 -0.4869
13136TIP3   OH260822   4.536   1.854   6.032 -0.1491  0.3068 -0.1564
13136TIP3    H160823   4.536   1.780   6.092 -1.5882  1.3341  1.1605
13136TIP3    H260824   4.524   1.815   5.946  0.4508 -1.0763  0.3734
13137TIP3   OH260825   0.452   4.062   1.964 -0.1865 -0.3504  0.2129
13137TIP3    H160826   0.457   3.989   1.902 -0.5738  1.3148 -1.8565
13137TIP3    H260827   0.358   4.076   1.978 -0.0831 -1.5970  2.2812
13138TIP3   OH260828   0.083   1.586  14.333 -0.2237  0.0598  0.7394
13138TIP3    H160829   0.103   1.493  14.321 -0.6683 -0.0288  0.6712
13138TIP3    H260830   0.125   1.609  14.416 -1.2649 -0.5482  1.4626
13139TIP3   OH260831   3.889   6.063   6.616  0.6475  0.1629 -0.0581
13139TIP3    H160832   3.813   6.020   6.655  1.0493  1.4635  2.2253
13139TIP3    H260833   3.851   6.120   6.548 -0.3548  0.2579  0.5742
13140TIP3   OH260834   0.717   2.758   1.130 -0.0232 -0.3115  0.4856
13140TIP3    H160835   0.690   2.793   1.045  0.7164 -1.0755 -0.0706
13140TIP3    H260836   0.800   2.802   1.149  0.4856 -1.1328  0.1798
13141TIP3   OH260837   4.977   3.686   1.088 -0.6898  0.0586 -0.1350
13141TIP3    H160838   5.049   3.674   1.025  1.6183 -0.7374  2.5237
13141TIP3    H260839   5.020   3.720   1.167 -3.4247  0.5957  1.1826
13142TIP3   OH260840   6.191   5.248   4.176  0.3791  0.6048 -0.1282
13142TIP3    H160841   6.108   5.251   4.224  0.8484  1.9558  0.6176
13142TIP3    H260842   6.210   5.154   4.167 -0.5341  0.3090  0.9153
13143TIP3   OH260843   4.065   3.079  14.979  0.2144  0.0242  0.3006
13143TIP3    H160844   3.999   3.079  14.910 -0.3960 -1.6685  0.8573
13143TIP3    H260845   4.118   3.157  14.962 -0.0240 -0.2778 -1.9755
13144TIP3   OH260846   2.229   0.274  16.656 -0.1013  0.4736 -0.5476
13144TIP3    H160847   2.313   0.313  16.683 -0.2252  0.4580 -0.1361
13144TIP3    H260848   2.238   0.181  16.678 -0.1582  0.4392 -0.6718
13145TIP3   OH260849   3.878   4.616  16.791 -0.0513 -0.1030 -0.3851
13145TIP3    H160850   3.913   4.537  16.833  0.3252  0.0379 -0.4303
13145TIP3    H260851   3.953   4.654  16.746  0.0425  0.9200  0.6050
13146TIP3   OH260852   4.732   2.126   5.572  0.0558  0.3851  0.0542
13146TIP3    H160853   4.741   2.090   5.660  0.3497 -0.1650 -0.1960
13146TIP3    H260854   4.644   2.164   5.570  0.1472  0.6378  0.6649
13147TIP3   OH260855   6.727   5.361   0.964  0.0071 -0.4174 -0.1750
13147TIP3    H160856   6.649   5.335   1.014 -0.4446  1.1994 -0.0246
13147TIP3    H260857   6.793   5.378   1.031  0.0352 -0.3211 -0.2273
13148TIP3   OH260858   3.903   2.496   2.519 -1.0654 -0.0390  0.1352
13148TIP3    H160859   3.841   2.423   2.512 -0.5250 -0.6888  1.8557
13148TIP3    H260860   3.860   2.558   2.578 -0.3686 -0.2024  0.8252
13149TIP3   OH260861   3.471   2.869   3.564 -0.0766  0.0783 -0.3370
13149TIP3    H160862   3.405   2.938   3.574 -0.4293 -0.1989 -0.7501
13149TIP3    H260863   3.423   2.795   3.526  0.2166 -0.5248  0.4548
13150TIP3   OH260864   6.099   6.426   2.703  0.3496 -0.7166  0.1816
13150TIP3    H160865   6.179   6.383   2.732  1.1184  0.5693  0.0033
13150TIP3    H260866   6.089   6.501   2.762 -1.1145 -1.2574  0.6588
13151TIP3   OH260867   2.954   2.017   4.379  0.0069  0.2385  0.3275
13151TIP3    H160868   2.923   1.939   4.332  2.8856  0.5992 -2.3894
13151TIP3    H260869   2.876   2.071   4.389 -1.4236 -1.5730 -0.6322
13152TIP3   OH260870   6.704   0.708  12.996 -0.2824  0.4094  0.2419
13152TIP3    H160871   6.799   0.709  12.986 -0.3559  0.1007 -0.5933
13152TIP3    H260872   6.686   0.639  13.059  0.0953  1.0228  1.0257
13153TIP3   OH260873   2.434   3.464  11.135  0.0656  0.2041 -0.3195
13153TIP3    H160874   2.441   3.382  11.086  1.3517 -0.1105  0.3623
13153TIP3    H260875   2.340   3.480  11.143 -0.1929 -1.3195 -0.2731
13154TIP3   OH260876   3.337   5.455   5.901  0.2445 -0.5759  0.2296
13154TIP3    H160877   3.272   5.426   5.966  0.0428 -0.3705  0.1205
13154TIP3    H260878   3.358   5.375   5.852  2.2108 -1.2430  2.1067
13155TIP3   OH260879   0.389   2.868   0.379 -0.3992 -0.2449 -0.0573
13155TIP3    H160880   0.304   2.846   0.341 -0.2399 -0.8069 -0.0904
13155TIP3    H260881   0.452   2.853   0.309  0.2333 -3.9249  1.1479
13156TIP3   OH260882   0.776   2.359  11.775  0.3493  0.2667  0.4762
13156TIP3    H160883   0.773   2.279  11.828  0.3033  0.5926  0.9659
13156TIP3    H260884   0.718   2.340  11.702 -0.0104  0.0137  0.8216
13157TIP3   OH260885   1.426   6.253  14.750 -0.4976  0.3915  0.4617
13157TIP3    H160886   1.513   6.280  14.782  0.7655 -0.2029 -2.3251
13157TIP3    H260887   1.373   6.332  14.757  0.7414  1.2369  0.5911
13158TIP3   OH260888   3.987   3.216   0.678 -0.8268  0.1695 -0.0028
13158TIP3    H160889   3.943   3.214   0.763 -1.4433  1.6722 -0.2599
13158TIP3    H260890   4.081   3.217   0.699 -0.9307 -1.2102  0.5957
13159TIP3   OH260891   4.420   4.668  13.822  0.5010  0.2249 -0.1002
13159TIP3    H160892   4.342   4.613  13.810  0.8872 -0.7340  1.5725
13159TIP3    H260893   4.424   4.722  13.743 -0.9331 -0.8682 -0.9464
13160TIP3   OH260894   6.786   3.157  10.479 -0.9204 -0.1834 -0.5072
13160TIP3    H160895   6.809   3.245  10.511  0.3392 -0.9222  0.6864
13160TIP3    H260896   6.693   3.148  10.500 -0.7037  0.3020  0.7291
13161TIP3   OH260897   1.698   1.971  15.398 -0.8696 -0.9718 -0.0839
13161TIP3    H160898   1.635   2.019  15.344 -0.8545 -0.7831  0.0689
13161TIP3    H260899   1.749   1.921  15.335 -0.2077  0.0008 -0.3262
13162TIP3   OH260900   2.356   2.931  15.359 -0.3780 -0.0706  0.7638
13162TIP3    H160901   2.305   3.007  15.330 -0.7848  0.5936  3.1248
13162TIP3    H260902   2.444   2.965  15.372  0.7800 -1.2184 -3.3008
13163TIP3   OH260903   5.051   6.472   2.213  0.5359 -0.5822  0.2836
13163TIP3    H160904   5.118   6.463   2.146 -3.0201 -1.8726 -3.2820
13163TIP3    H260905   5.045   6.386   2.254 -0.2599 -1.0380 -0.7648
13164TIP3   OH260906   0.576   6.747   3.549  0.4515  0.3207 -0.0158
13164TIP3    H160907   0.647   6.685   3.532  1.7029  1.4123  1.1376
13164TIP3    H260908   0.578   6.806   3.473 -1.1496 -1.3614 -1.4300
13165TIP3   OH260909   2.881   3.172  11.373 -0.3585 -0.1305 -0.0569
13165TIP3    H160910   2.867   3.105  11.306  1.0413 -0.5254  0.0172
13165TIP3    H260911   2.975   3.189  11.370 -0.3872  0.3571  1.3255
13166TIP3   OH260912   6.126   6.510  13.057  0.2298  0.1746 -0.0058
13166TIP3    H160913   6.157   6.425  13.025  0.8697  0.7675 -0.9730
13166TIP3    H260914   6.104   6.494  13.148  2.2807 -0.5448  0.3912
13167TIP3   OH260915   5.739   1.425  16.401  0.5668 -0.5911  0.1008
13167TIP3    H160916   5.644   1.413  16.401  0.3496  1.0488  0.4104
13167TIP3    H260917   5.763   1.430  16.309 -0.1624  2.6805  0.0368
13168TIP3   OH260918   3.811   1.156   0.145  0.3215 -0.0653  0.5617
13168TIP3    H160919   3.744   1.179   0.082  0.3881  0.6015  0.7346
13168TIP3    H260920   3.763   1.128   0.223  0.2295 -1.6456 -0.0361
13169TIP3   OH260921   4.242   4.375  16.218 -0.6265 -0.0079 -0.0081
13169TIP3    H160922   4.167   4.431  16.238 -1.2347 -0.9813  0.4494
13169TIP3    H260923   4.266   4.400  16.128 -1.0658  0.7799  0.0797
13170TIP3   OH260924   0.849   0.892   4.486  0.0408  1.0463 -0.5651
13170TIP3    H160925   0.811   0.844   4.412  0.4238 -0.9794  0.5113
13170TIP3    H260926   0.942   0.898   4.466  0.3194 -0.4394  0.2323
13171TIP3   OH260927   0.173   2.350   2.187  0.0067 -0.0997  0.1871
13171TIP3    H160928   0.148   2.268   2.231 -0.6168  0.6797  1.3155
13171TIP3    H260929   0.093   2.378   2.143 -0.0456  0.3855  0.5884
13172TIP3   OH260930   2.684   2.914   1.753  0.3348 -0.0205 -0.2880
13172TIP3    H160931   2.718   2.828   1.777  1.5077  0.5631  0.2514
13172TIP3    H260932   2.759   2.958   1.711  0.3766  1.4279  1.2284
13173TIP3   OH260933   2.808   0.060  13.448  0.0836 -0.1186 -0.1626
13173TIP3    H160934   2.754  -0.004  13.402  0.0299  0.2782 -0.6483
13173TIP3    H260935   2.858   0.103  13.380 -0.9382  1.3705 -0.0017
13174TIP3   OH260936   5.683   1.060  15.143  0.1540  0.0639  0.3330
13174TIP3    H160937   5.747   1.118  15.186  2.5979 -1.8926 -0.5524
13174TIP3    H260938   5.652   1.004  15.214 -1.9138  2.0993  1.1118
13175TIP3   OH260939   2.997   4.634   5.487 -0.1422  0.7158  0.0317
13175TIP3    H160940   2.976   4.726   5.468 -1.6714  0.3801  0.0246
13175TIP3    H260941   2.992   4.627   5.582  2.3173  1.1688  0.2328
13176TIP3   OH260942   6.178   3.061  13.157  0.3265  0.6545 -0.9714
13176TIP3    H160943   6.130   3.056  13.240  0.7069  0.2103 -0.7660
13176TIP3    H260944   6.214   3.149  13.156 -0.9199  1.1601 -1.3744
13177TIP3   OH260945   2.684   0.877  11.429  0.1281  0.0694  0.5240
13177TIP3    H160946   2.614   0.826  11.389  0.2005 -0.0257  0.5175
13177TIP3    H260947   2.682   0.961  11.383  2.6377 -1.3292 -2.3087
13178TIP3   OH260948   0.441   2.136   0.422 -0.2306  0.1285 -0.6328
13178TIP3    H160949   0.392   2.084   0.485  0.3343 -1.3004 -1.3534
13178TIP3    H260950   0.384   2.142   0.345 -0.4937  0.9834 -0.3731
13179TIP3   OH260951   3.146   5.926  14.446 -0.1477  0.3528  0.0176
13179TIP3    H160952   3.058   5.918  14.408  0.3160  1.0262 -1.2320
13179TIP3    H260953   3.136   5.898  14.537 -1.2859 -1.3155 -0.6055
13180TIP3   OH260954   4.655   3.840  11.162 -0.5560  0.1466  0.2388
13180TIP3    H160955   4.681   3.815  11.073  0.9320  1.7960  0.1902
13180TIP3    H260956   4.566   3.807  11.171 -0.7615  0.0510 -1.8979
13181TIP3   OH260957   4.652   2.027   1.665  0.0119  0.0663  0.4500
13181TIP3    H160958   4.601   2.107   1.650  1.9008  1.0668 -0.8132
13181TIP3    H260959   4.589   1.956   1.652 -1.4686  1.3057  0.6464
13182TIP3   OH260960   3.306   1.683  14.081 -0.2749  0.3250  0.0009
13182TIP3    H160961   3.237   1.741  14.051  0.7036  0.9251 -1.0994
13182TIP3    H260962   3.334   1.720  14.165 -3.2593 -1.5596  1.9381
13183TIP3   OH260963   4.047   6.654   3.010  0.2031 -0.2207 -0.6319
13183TIP3    H160964   4.127   6.608   3.034  0.0071  0.0257  0.5157
13183TIP3    H260965   3.986   6.585   2.986 -0.7243 -0.7491  2.9639
13184TIP3   OH260966   3.985   6.323   4.293  0.1171  0.1240  0.0202
13184TIP3    H160967   3.975   6.238   4.336 -1.0435  0.3613  0.2418
13184TIP3    H260968   3.940   6.313   4.209 -0.4420  0.6576  0.2482
13185TIP3   OH260969   0.321   1.202   3.238  0.6041  0.0413  0.3458
13185TIP3    H160970   0.303   1.245   3.154  1.2450  1.0706  0.7198
13185TIP3    H260971   0.236   1.202   3.283 -0.5948 -3.7687 -1.7100
13186TIP3   OH260972   4.819   6.635   1.863 -0.1068  0.2358  0.0184
13186TIP3    H160973   4.791   6.648   1.953 -1.3467  0.0184 -0.3298
13186TIP3    H260974   4.914   6.619   1.869 -0.4214 -1.2053  1.4035
13187TIP3   OH260975   3.701   2.299  13.542 -0.7417 -0.1321 -0.1250
13187TIP3    H160976   3.715   2.388  13.507  0.8915 -0.1145  0.5110
13187TIP3    H260977   3.668   2.249  13.467 -0.0584  0.6041 -0.9359
13188TIP3   OH260978   4.327   5.706   0.516  0.3517  0.0064 -0.3749
13188TIP3    H160979   4.269   5.717   0.591 -2.1456 -1.9295 -1.9245
13188TIP3    H260980   4.364   5.619   0.527  1.9273  0.6968 -0.1198
13189TIP3   OH260981   3.566   1.394   4.983  0.4115  0.3435 -0.1586
13189TIP3    H160982   3.501   1.394   5.053  1.8750 -1.6453  1.2341
13189TIP3    H260983   3.635   1.453   5.014  1.6394 -1.4944  0.6411
13190TIP3   OH260984   5.156   2.618   0.107 -0.0082 -0.5781  0.1990
13190TIP3    H160985   5.092   2.607   0.178  1.4145  0.8278  1.7428
13190TIP3    H260986   5.110   2.588   0.029 -1.6006 -2.2579  1.7098
13191TIP3   OH260987   2.288   6.162   1.333 -0.5366 -0.3172  0.3507
13191TIP3    H160988   2.224   6.231   1.311  0.4917  0.1185 -1.3983
13191TIP3    H260989   2.331   6.194   1.412 -0.4500  0.8018 -0.1352
13192TIP3   OH260990   4.617   6.561  14.414  0.1014  0.3462  0.3927
13192TIP3    H160991   4.572   6.624  14.358 -1.3356 -1.8675 -1.0150
13192TIP3    H260992   4.695   6.537  14.364  1.4019  2.0094  1.5576
13193TIP3   OH260993   3.819   4.335   6.229  0.3607 -0.1757  0.0752
13193TIP3    H160994   3.740   4.356   6.180 -0.0010 -1.9976 -0.1477
13193TIP3    H260995   3.850   4.419   6.262 -0.6881  0.7754 -1.3211
13194TIP3   OH260996   1.290   1.031   2.686 -0.2049 -0.5475 -0.1877
13194TIP3    H160997   1.384   1.049   2.688 -0.0220 -0.7113 -4.0613
13194TIP3    H260998   1.249   1.115   2.665 -0.7481 -0.9221 -0.6489
13195TIP3   OH260999   2.439   2.422  14.422 -0.6122 -0.5070  0.1848
13195TIP3    H161000   2.401   2.427  14.334 -0.9331 -0.0302  0.3507
13195TIP3    H261001   2.454   2.513  14.447 -0.7747 -0.6310  0.7343
13196TIP3   OH261002   1.256   4.961  10.811  0.2619  0.3624  0.1620
13196TIP3    H161003   1.223   5.016  10.740  1.6798  1.6839  0.5062
13196TIP3    H261004   1.181   4.951  10.870 -0.5693  0.2779 -0.8741
13197TIP3   OH261005   5.493   6.232  13.026  1.1237  0.2311  0.2329
13197TIP3    H161006   5.459   6.314  12.990 -0.2283 -0.2544  0.3916
13197TIP3    H261007   5.415   6.181  13.047  1.9352 -0.3124  1.9794
13198TIP3   OH261008   0.864   5.484   4.321  0.0405 -0.3862 -0.0370
13198TIP3    H161009   0.853   5.494   4.226 -1.3043 -0.4702  0.0978
13198TIP3    H261010   0.814   5.558   4.358  1.4076  0.2454  0.5798
13199TIP3   OH261011   6.506   4.997   2.369 -0.3846  0.0279  0.4658
13199TIP3    H161012   6.475   5.062   2.432 -0.7415  0.3721 -0.0518
13199TIP3    H261013   6.434   4.933   2.364 -0.1251 -0.2909  0.8147
13200TIP3   OH261014   0.209   2.711  11.588 -1.0205  0.7766 -0.6391
13200TIP3    H161015   0.278   2.673  11.534 -0.2639  2.6398 -1.0292
13200TIP3    H261016   0.129   2.695  11.539 -0.4905  1.3295 -1.6975
13201TIP3   OH261017   6.306   5.574  12.440  0.3428 -0.1053 -0.5039
13201TIP3    H161018   6.320   5.497  12.385  1.5376 -0.3692  0.1496
13201TIP3    H261019   6.333   5.648  12.385 -0.3218 -0.1777 -0.9479
13202TIP3   OH261020   6.372   0.043  15.107 -0.3557 -0.0591  0.9071
13202TIP3    H161021   6.449  -0.011  15.091 -1.2740 -0.9495 -0.7408
13202TIP3    H261022   6.347   0.022  15.197 -0.3109 -1.9501  0.5212
13203TIP3   OH261023   1.341   6.684  14.862  0.0705  0.3813 -0.0115
13203TIP3    H161024   1.291   6.762  14.835 -1.1105 -0.4564 -0.2815
13203TIP3    H261025   1.274   6.617  14.876  0.8004  0.2471  3.1302
13204TIP3   OH261026   4.711   2.497  17.086 -0.4770 -0.0606  0.3386
13204TIP3    H161027   4.710   2.420  17.030 -0.1031 -0.2633  0.6055
13204TIP3    H261028   4.620   2.525  17.091 -0.6790 -0.7719  0.6340
13205TIP3   OH261029   4.236   6.605   1.506  0.1464  0.1367 -0.0206
13205TIP3    H161030   4.238   6.523   1.555  0.7825  0.0002 -0.2663
13205TIP3    H261031   4.268   6.671   1.567  0.0377  0.1333  0.0414
13206TIP3   OH261032   0.929   2.565  11.860  0.3378 -0.5730  0.5903
13206TIP3    H161033   0.898   2.610  11.938 -0.5851  0.9371 -0.6413
13206TIP3    H261034   0.867   2.493  11.847 -0.4857  0.1902  0.2856
13207TIP3   OH261035   1.331   0.320  14.161  0.6477  0.1138 -0.3627
13207TIP3    H161036   1.394   0.260  14.121  0.9942  0.2893 -0.0844
13207TIP3    H261037   1.378   0.357  14.236  0.3203  0.4763 -0.3350
13208TIP3   OH261038   0.049   1.369  13.999 -0.0608 -0.0387  0.0415
13208TIP3    H161039  -0.036   1.388  14.038 -0.9614 -0.6574 -1.5527
13208TIP3    H261040   0.099   1.450  14.008 -0.3126 -0.1096  2.2370
13209TIP3   OH261041   2.436   0.359   4.436 -0.3907  0.0805 -0.4464
13209TIP3    H161042   2.523   0.329   4.409 -0.8625 -0.1871 -1.6798
13209TIP3    H261043   2.396   0.284   4.479 -0.4373 -0.1442 -0.8819
13210TIP3   OH261044   5.305   3.123   1.904 -1.1935 -0.0980 -0.6814
13210TIP3    H161045   5.340   3.094   1.988  1.3351  0.2999 -1.5547
13210TIP3    H261046   5.276   3.213   1.921  0.0731  0.2735 -0.4238
13211TIP3   OH261047   2.883   1.407  12.669 -0.0927 -0.3437  0.2806
13211TIP3    H161048   2.790   1.401  12.651 -0.1907  0.2576  0.5729
13211TIP3    H261049   2.889   1.417  12.764  0.1318  1.8900  0.0736
13212TIP3   OH261050   1.245   3.985   6.372 -0.0646  0.0285 -0.2617
13212TIP3    H161051   1.309   4.003   6.441  0.5086 -0.6728 -0.6200
13212TIP3    H261052   1.161   4.008   6.412  0.2463 -0.5656  0.7399
13213TIP3   OH261053   2.160   4.203   5.313 -0.4476 -0.3554  0.2256
13213TIP3    H161054   2.181   4.266   5.383 -2.3070 -1.0064  1.4086
13213TIP3    H261055   2.231   4.139   5.317 -1.5284 -1.4736  2.8734
13214TIP3   OH261056   0.813   0.501  14.319  0.0191 -0.2504 -0.3226
13214TIP3    H161057   0.834   0.432  14.382 -2.0562 -0.0361  0.6397
13214TIP3    H261058   0.873   0.485  14.246  0.9173 -1.8636  0.7227
13215TIP3   OH261059   2.783   5.891   3.678  0.4777 -0.6045 -0.2109
13215TIP3    H161060   2.800   5.927   3.765  0.0802  1.3996 -0.9291
13215TIP3    H261061   2.820   5.803   3.681  1.7348 -0.0479  1.5300
13216TIP3   OH261062   1.554   6.639  16.237 -0.3555 -0.8339  0.1033
13216TIP3    H161063   1.605   6.621  16.158  1.2590 -1.2186  1.2166
13216TIP3    H261064   1.463   6.636  16.207  0.2021 -1.7209 -1.5889
13217TIP3   OH261065   6.400   3.323   2.745  0.1383 -0.1191  0.2785
13217TIP3    H161066   6.315   3.280   2.753 -0.2674  0.3515 -1.2938
13217TIP3    H261067   6.455   3.282   2.812 -1.0724 -1.0518  0.7064
13218TIP3   OH261068   5.551   4.376  16.689  0.5123 -0.8250 -0.0226
13218TIP3    H161069   5.640   4.379  16.654  0.6863 -0.9868  0.4121
13218TIP3    H261070   5.498   4.421  16.623  0.8970 -0.8193 -0.3284
13219TIP3   OH261071   5.618   2.303   0.683 -0.6486  0.3723 -0.0561
13219TIP3    H161072   5.539   2.256   0.655 -0.8891  1.6249 -1.5604
13219TIP3    H261073   5.688   2.264   0.631 -0.2880 -0.6243  1.1587
13220TIP3   OH261074   0.721   0.531  13.902  0.3958 -0.4824 -0.7311
13220TIP3    H161075   0.692   0.605  13.956 -0.3599 -1.4581  0.2104
13220TIP3    H261076   0.641   0.483  13.882  0.8522 -0.8866 -1.5908
13221TIP3   OH261077   1.842   4.340   3.721  0.3473 -0.5013  0.0824
13221TIP3    H161078   1.915   4.344   3.659  1.1220 -1.9721  0.8678
13221TIP3    H261079   1.802   4.427   3.717  1.0187 -0.2425 -1.6933
13222TIP3   OH261080   5.495   5.090   4.722 -0.1588  0.0530  0.0114
13222TIP3    H161081   5.579   5.119   4.687 -0.9386  1.4772 -0.7359
13222TIP3    H261082   5.490   4.997   4.700  0.5749  0.3023 -1.2498
13223TIP3   OH261083   3.660   4.174   0.821  0.1027 -0.2773 -0.3974
13223TIP3    H161084   3.569   4.193   0.843  0.2125 -1.2881  0.9777
13223TIP3    H261085   3.662   4.174   0.726 -0.7748  2.3807 -0.4625
13224TIP3   OH261086   3.165   1.341   3.458  0.1703 -0.1313  0.0720
13224TIP3    H161087   3.186   1.250   3.441  2.1846 -0.0149  1.7895
13224TIP3    H261088   3.229   1.390   3.406 -0.1461  0.2931  0.0809
13225TIP3   OH261089   1.930   5.363   3.054  0.0157  0.1474 -0.2971
13225TIP3    H161090   1.876   5.354   3.133 -0.0512 -0.5912 -0.4247
13225TIP3    H261091   1.922   5.455   3.030  0.2221  0.4319  0.6956
13226TIP3   OH261092   5.405   6.066   5.537 -0.7606 -1.1825 -0.2312
13226TIP3    H161093   5.383   6.044   5.628  1.1138 -0.8198  0.3312
13226TIP3    H261094   5.327   6.042   5.487 -1.9762 -0.9918  1.5284
13227TIP3   OH261095   1.932   4.264  13.501 -0.1668  0.0808  0.0861
13227TIP3    H161096   1.876   4.210  13.446 -0.2936  0.6739 -0.3711
13227TIP3    H261097   1.873   4.304  13.565 -0.2338  0.5342 -0.2588
13228TIP3   OH261098   2.877   5.088  16.982  0.1799  0.4085 -0.0288
13228TIP3    H161099   2.890   5.086  17.077  1.0074 -0.2663 -0.1532
13228TIP3    H261100   2.785   5.114  16.971  0.3259  1.3440  0.9337
13229TIP3   OH261101   1.407   4.514  13.484  0.1596  0.1393 -0.9562
13229TIP3    H161102   1.481   4.458  13.460 -0.0094 -0.3932 -0.2494
13229TIP3    H261103   1.368   4.540  13.400  0.3928 -0.5928 -1.2953
13230TIP3   OH261104   0.799   6.255  12.686 -0.0609  0.0022  0.0798
13230TIP3    H161105   0.724   6.197  12.700  1.7198 -2.1037  1.1773
13230TIP3    H261106   0.840   6.223  12.606 -0.0287  0.7874 -0.2153
13231TIP3   OH261107   6.538   5.807   5.504  0.3723 -0.6454 -0.8137
13231TIP3    H161108   6.558   5.814   5.597  0.3236 -0.4305 -0.8201
13231TIP3    H261109   6.455   5.854   5.494  0.0570 -1.1996 -0.8529
13232TIP3   OH261110   2.744   3.455   4.164 -0.4689 -0.2968 -0.1000
13232TIP3    H161111   2.661   3.408   4.165  0.1568 -1.4220  0.0994
13232TIP3    H261112   2.749   3.495   4.251 -1.1060  0.3317 -0.3473
13233TIP3   OH261113   3.532   3.721   1.969  0.3459 -0.6484  0.2009
13233TIP3    H161114   3.582   3.640   1.959  1.2641  0.0260 -0.6251
13233TIP3    H261115   3.501   3.718   2.060 -2.5258 -3.5852 -0.7898
13234TIP3   OH261116   0.391   3.723   1.369  0.1344  0.1794 -0.0977
13234TIP3    H161117   0.427   3.736   1.281  0.0179  1.3294  0.0134
13234TIP3    H261118   0.301   3.755   1.363 -0.4010 -1.2701  0.0205
13235TIP3   OH261119   5.965   5.824  13.182  0.1726 -0.4914  0.1567
13235TIP3    H161120   5.933   5.855  13.098  1.2511  1.6997  0.5273
13235TIP3    H261121   5.886   5.803  13.232 -0.4924 -0.8260 -1.0205
13236TIP3   OH261122   6.072   1.942   4.499  0.3240  0.4424  0.1602
13236TIP3    H161123   6.042   1.869   4.444 -2.3831  0.0868  1.9798
13236TIP3    H261124   6.166   1.946   4.484 -0.2564  0.2063 -4.2668
13237TIP3   OH261125   2.335   2.980  11.308 -0.1155  0.6213 -0.3387
13237TIP3    H161126   2.310   3.042  11.239  0.3466  0.7515 -0.3911
13237TIP3    H261127   2.353   2.899  11.261  1.6952  1.1238 -0.5581
13238TIP3   OH261128   4.800   4.963  12.115  0.0120 -0.3098  0.2228
13238TIP3    H161129   4.838   4.888  12.161  0.0363  0.2891  1.1999
13238TIP3    H261130   4.709   4.938  12.098 -0.8945  0.6021  3.3021
13239TIP3   OH261131   4.752   5.051   2.134 -0.1896  0.0422  0.2482
13239TIP3    H161132   4.808   5.082   2.205 -0.0182 -0.8837  0.5209
13239TIP3    H261133   4.673   5.020   2.178 -0.4068  0.2048 -0.0295
13240TIP3   OH261134   2.628   4.136  12.339 -0.1401  0.4089 -0.5333
13240TIP3    H161135   2.606   4.209  12.397 -1.2714 -1.2275  1.1087
13240TIP3    H261136   2.554   4.076  12.346  1.1279 -1.2683 -1.2777
13241TIP3   OH261137   1.907   1.232   4.052  0.0257  0.3135 -0.4921
13241TIP3    H161138   1.940   1.151   4.015  0.7638  0.0927  0.6236
13241TIP3    H261139   1.812   1.219   4.060 -0.0718  0.1876 -1.8354
13242TIP3   OH261140   1.505   3.453  11.068 -0.2286 -0.2990 -0.1358
13242TIP3    H161141   1.502   3.463  10.973 -1.7990 -0.0479 -0.0763
13242TIP3    H261142   1.571   3.516  11.097 -0.9079  0.7998 -0.9273
13243TIP3   OH261143   2.392   1.585   0.441 -0.3550 -0.1210 -0.0706
13243TIP3    H161144   2.419   1.624   0.358 -0.7614 -0.5135 -0.3918
13243TIP3    H261145   2.471   1.545   0.476 -0.6878 -2.1062 -1.4638
13244TIP3   OH261146   1.890   4.879   3.536  0.7335  0.3483  0.3038
13244TIP3    H161147   1.801   4.903   3.562  0.6555  1.2132 -0.7347
13244TIP3    H261148   1.937   4.962   3.532  1.6884 -0.1354  1.1776
13245TIP3   OH261149   1.841   6.733   3.935 -0.4697 -0.4278  0.5083
13245TIP3    H161150   1.781   6.686   3.994 -0.0714 -1.5152  0.0555
13245TIP3    H261151   1.808   6.714   3.847  0.0427 -0.3323  0.2926
13246TIP3   OH261152   0.635   0.141  11.586  0.0408 -0.2723 -0.4822
13246TIP3    H161153   0.544   0.160  11.607  0.3370  0.0607  0.5041
13246TIP3    H261154   0.644   0.047  11.601 -0.0919 -0.2756 -0.4208
13247TIP3   OH261155   4.198   6.103  16.293 -0.6453  0.0729  0.1490
13247TIP3    H161156   4.231   6.180  16.338 -0.1564 -0.4567  0.7033
13247TIP3    H261157   4.151   6.054  16.360 -0.9749 -0.0976 -0.2033
13248TIP3   OH261158   0.120   5.515   2.199 -0.3221  0.6512 -0.5715
13248TIP3    H161159   0.212   5.499   2.180 -0.5372 -1.2846 -0.1119
13248TIP3    H261160   0.075   5.505   2.115 -0.2970 -0.0080 -0.5107
13249TIP3   OH261161   6.585   3.307   3.693 -0.0568 -0.4614 -0.1965
13249TIP3    H161162   6.628   3.223   3.704 -1.2499 -0.8805  1.4929
13249TIP3    H261163   6.500   3.297   3.737 -0.4430  1.4423 -0.4417
13250TIP3   OH261164   0.001   4.970   2.346 -0.6947  0.7575 -0.1498
13250TIP3    H161165  -0.091   4.952   2.367 -1.4897  2.2263 -2.1696
13250TIP3    H261166   0.008   5.065   2.347  0.6461  0.6806 -0.6783
13251TIP3   OH261167   5.617   1.634   6.116 -0.5719  0.0080  0.3898
13251TIP3    H161168   5.551   1.697   6.087  0.2042  0.2562 -0.8899
13251TIP3    H261169   5.689   1.688   6.147  0.0802 -0.2313 -0.6749
13252TIP3   OH261170   6.286   5.003   3.580  0.2078  0.2538 -0.1041
13252TIP3    H161171   6.288   4.914   3.615  0.5763  1.0514  1.9869
13252TIP3    H261172   6.284   4.991   3.485 -0.2759 -1.9803  0.1473
13253TIP3   OH261173   5.536   5.061  12.887 -0.2861  0.0972  0.4148
13253TIP3    H161174   5.510   4.969  12.895  0.7212 -0.2584 -0.1428
13253TIP3    H261175   5.460   5.111  12.915  0.0638 -0.9341  3.3183
13254TIP3   OH261176   6.660   0.214  15.193  0.3358  1.0604  0.6831
13254TIP3    H161177   6.565   0.222  15.194  0.2496  0.0417  1.1784
13254TIP3    H261178   6.689   0.270  15.265 -0.0075  0.1003  1.5934
13255TIP3   OH261179   1.138   5.748  14.933  0.0520 -0.1715 -0.0506
13255TIP3    H161180   1.082   5.727  14.858  1.2564  1.9468 -1.5822
13255TIP3    H261181   1.222   5.708  14.912 -0.7168 -3.1041  2.1193
13256TIP3   OH261182   2.134   6.171  11.567  0.0818  0.4338  0.2628
13256TIP3    H161183   2.225   6.197  11.557  0.5460 -1.4863 -0.8263
13256TIP3    H261184   2.137   6.075  11.573 -1.7128  0.4670  2.0576
13257TIP3   OH261185   2.818   1.517   6.309  0.0026  0.1972  0.2684
13257TIP3    H161186   2.890   1.491   6.367  0.1779  1.8102  0.7913
13257TIP3    H261187   2.752   1.554   6.368 -1.1547 -0.9863 -0.2429
13258TIP3   OH261188   4.191   2.287   5.579 -0.5790  0.0952 -0.3831
13258TIP3    H161189   4.215   2.379   5.579  2.8861 -0.7218  1.2893
13258TIP3    H261190   4.173   2.266   5.671 -1.0213 -0.9523 -0.6931
13259TIP3   OH261191   0.528   4.098  16.032 -0.1554  0.0285  0.1395
13259TIP3    H161192   0.615   4.128  16.007 -0.2783  1.3144  1.2021
13259TIP3    H261193   0.527   4.006  16.008  1.3280  0.1179 -0.3284
13260TIP3   OH261194   5.161   1.336   1.020 -0.4224  0.1865 -0.8423
13260TIP3    H161195   5.103   1.355   1.094 -0.5987 -1.4742 -0.5237
13260TIP3    H261196   5.240   1.388   1.038 -0.2208 -0.6473  0.8535
13261TIP3   OH261197   3.940   4.420  15.598  0.7670 -0.0166 -0.3374
13261TIP3    H161198   3.868   4.386  15.650  0.4433  0.2964 -0.5825
13261TIP3    H261199   4.017   4.372  15.630  0.3490 -0.8426 -0.5400
13262TIP3   OH261200   1.989   0.004  16.206 -0.1381 -0.1308  0.1769
13262TIP3    H161201   2.070   0.038  16.244 -0.2913  0.2162  0.2020
13262TIP3    H261202   1.973   0.059  16.129  0.0228 -0.6543 -0.2309
13263TIP3   OH261203   1.287   2.033   3.947 -0.4582  0.4525  0.4378
13263TIP3    H161204   1.323   2.002   3.864 -0.0065  0.2698  0.7028
13263TIP3    H261205   1.197   2.059   3.926  1.2476  5.6632 -1.3768
13264TIP3   OH261206   5.988   1.636  16.362  0.5491  0.2583  0.1092
13264TIP3    H161207   6.031   1.619  16.446 -0.4148 -1.2304  0.3308
13264TIP3    H261208   6.042   1.591  16.298  0.3147 -0.1035  0.1647
13265TIP3   OH261209   3.398   3.669   0.167  0.2526 -0.0051  0.1471
13265TIP3    H161210   3.411   3.742   0.107  0.2543 -0.9935 -1.0911
13265TIP3    H261211   3.441   3.696   0.248  0.7015  1.1361 -0.4619
13266TIP3   OH261212   0.616   3.494  15.274 -0.1578 -0.4733 -0.3905
13266TIP3    H161213   0.606   3.553  15.349  3.1135 -0.3580 -0.0022
13266TIP3    H261214   0.607   3.551  15.197  0.4145  0.0930 -0.0404
13267TIP3   OH261215   6.011   6.605   0.617  0.1020 -0.4568  0.2263
13267TIP3    H161216   6.064   6.570   0.545 -0.1235  0.4612 -0.3979
13267TIP3    H261217   6.070   6.666   0.661 -0.5825  0.9831 -0.8025
13268TIP3   OH261218   4.124   4.925   1.432  0.3831  0.5671 -0.1809
13268TIP3    H161219   4.046   4.979   1.425 -0.3911 -0.8280 -2.8965
13268TIP3    H261220   4.197   4.987   1.426 -0.4992  1.6484  0.2099
13269TIP3   OH261221   4.699   4.423   3.557 -0.4198 -0.1279  0.2945
13269TIP3    H161222   4.677   4.351   3.498 -1.9114  0.5990 -0.0604
13269TIP3    H261223   4.617   4.442   3.603 -0.1472  1.5864  0.0952
13270TIP3   OH261224   0.547   2.780  15.089 -0.2845 -0.0747 -0.2818
13270TIP3    H161225   0.458   2.772  15.124 -0.1943  0.0427 -0.0164
13270TIP3    H261226   0.567   2.694  15.053  0.6106 -1.0293  2.3512
13271TIP3   OH261227   6.237   4.417   1.181  0.3789 -0.7638  0.3173
13271TIP3    H161228   6.196   4.440   1.098 -0.4828  0.4152  1.0605
13271TIP3    H261229   6.286   4.336   1.162 -0.2848 -0.8266 -1.1741
13272TIP3   OH261230   3.653   1.675   2.780  0.1621 -0.3940  0.1709
13272TIP3    H161231   3.635   1.613   2.851 -2.0405 -1.0041 -0.8598
13272TIP3    H261232   3.748   1.686   2.780  0.5120 -3.1230  0.9359
13273TIP3   OH261233   1.841   2.809  15.294 -0.4011  0.2523  0.6843
13273TIP3    H161234   1.912   2.749  15.274  0.0995  0.9836  0.2213
13273TIP3    H261235   1.855   2.835  15.385  0.0665  0.5742  0.5243
13274TIP3   OH261236   6.735   1.367  11.903  0.0946  0.7906  0.1523
13274TIP3    H161237   6.761   1.454  11.872 -1.4615  1.2585  0.1256
13274TIP3    H261238   6.651   1.381  11.947  0.9704 -0.2984  2.2758
13275TIP3   OH261239   0.440   1.983   3.332 -0.0248 -0.3164  0.3737
13275TIP3    H161240   0.385   1.929   3.276  2.1438  0.2477 -2.4558
13275TIP3    H261241   0.509   1.924   3.363  1.0258  0.2548 -0.8290
13276TIP3   OH261242   1.350   5.616   4.079 -0.0374  0.3241 -0.1178
13276TIP3    H161243   1.290   5.638   4.007 -0.3398 -1.6489 -0.4927
13276TIP3    H261244   1.296   5.566   4.140  0.6133  0.6705  0.7501
13277TIP3   OH261245   0.341   3.761  15.267  0.2313 -0.0963  0.2615
13277TIP3    H161246   0.250   3.755  15.293  0.2604  0.6280  0.5382
13277TIP3    H261247   0.370   3.846  15.300  0.8751 -0.1250 -0.2180
13278TIP3   OH261248   0.391   5.736  12.404  0.1194 -0.1521 -0.2395
13278TIP3    H161249   0.317   5.686  12.370 -1.2431  1.0404  0.9532
13278TIP3    H261250   0.353   5.801  12.463  2.0961  0.5425  0.3409
13279TIP3   OH261251   0.470   5.493  15.396 -0.5621 -0.2746 -0.0079
13279TIP3    H161252   0.563   5.502  15.416 -0.7450  1.3977  0.2024
13279TIP3    H261253   0.448   5.573  15.348 -2.2680  0.1873  1.4491
13280TIP3   OH261254   1.159   1.095   3.266  0.6587  0.7687 -0.0022
13280TIP3    H161255   1.075   1.066   3.231  1.3398 -0.9081 -0.3043
13280TIP3    H261256   1.137   1.163   3.330 -1.1335 -1.5013  1.8989
13281TIP3   OH261257   1.989   5.853   1.355 -0.3765  0.1297 -0.4761
13281TIP3    H161258   1.956   5.856   1.266 -0.6845  0.6314 -0.3479
13281TIP3    H261259   1.941   5.922   1.401  1.3140  1.3042 -0.4395
13282TIP3   OH261260   2.054   5.203   2.429 -0.5381 -0.1061 -0.5882
13282TIP3    H161261   1.994   5.277   2.437  0.5272  0.7461 -0.3853
13282TIP3    H261262   2.039   5.169   2.341  0.4829  1.6922 -1.4844
13283TIP3   OH261263   4.668   2.932   3.332  0.2254  0.0058 -0.0034
13283TIP3    H161264   4.738   2.930   3.266  1.6585  0.7555  1.4732
13283TIP3    H261265   4.678   2.850   3.380  2.0514  1.4384  2.1687
13284TIP3   OH261266   3.332   3.568   1.425  0.4951 -0.2453  0.4087
13284TIP3    H161267   3.249   3.571   1.473  0.7658  1.5320  0.8292
13284TIP3    H261268   3.396   3.601   1.487  1.3005 -0.3973 -0.3382
13285TIP3   OH261269   4.214   3.033  15.517 -0.0750 -0.4001  0.4296
13285TIP3    H161270   4.254   3.118  15.500  0.5220 -0.6152  0.7343
13285TIP3    H261271   4.214   2.989  15.432  1.6105 -0.9290  0.6868
13286TIP3   OH261272   1.958   2.843   1.811 -0.1818  0.0559 -0.9047
13286TIP3    H161273   1.941   2.904   1.739  1.4978  0.4730 -0.9529
13286TIP3    H261274   1.993   2.898   1.881 -1.2504 -0.4404  0.0414
13287TIP3   OH261275   1.959   6.145   6.590  0.0697  0.2920  0.0897
13287TIP3    H161276   1.872   6.125   6.624  0.6850 -0.2142  1.3816
13287TIP3    H261277   1.998   6.060   6.570  0.9884  0.3994  1.3525
13288TIP3   OH261278   6.224   5.513  12.769 -0.3260  0.0874 -0.3000
13288TIP3    H161279   6.192   5.431  12.807 -0.6346  1.1375  1.8158
13288TIP3    H261280   6.297   5.538  12.826  0.4875  0.7286 -1.5963
13289TIP3   OH261281   4.336   5.162  12.384  0.2531  0.5430  0.7965
13289TIP3    H161282   4.414   5.147  12.330 -0.1808  1.0381  0.0156
13289TIP3    H261283   4.321   5.256  12.378 -1.4550  0.2010 -0.5555
13290TIP3   OH261284   1.692   5.796   1.638  0.0596 -0.0120 -0.3598
13290TIP3    H161285   1.646   5.733   1.583  0.2424  0.2764 -0.8517
13290TIP3    H261286   1.663   5.776   1.727 -1.0369  0.1769 -0.6600
13291TIP3   OH261287   3.106   6.390  14.982 -0.4423 -0.0717 -0.1162
13291TIP3    H161288   3.086   6.341  14.902  0.7868 -1.5323  0.4336
13291TIP3    H261289   3.025   6.389  15.032 -0.2344 -2.3096  0.2567
13292TIP3   OH261290   2.830   2.362  15.972  0.6823  0.5516 -0.0611
13292TIP3    H161291   2.824   2.319  16.058  0.9384  1.2589  0.3160
13292TIP3    H261292   2.751   2.334  15.925  0.4679  0.2791  0.4570
13293TIP3   OH261293   1.257   5.717   0.765  0.3190 -0.3296 -0.0034
13293TIP3    H161294   1.180   5.774   0.754 -0.7747 -1.8088 -0.1009
13293TIP3    H261295   1.315   5.767   0.822 -1.5913 -0.0202  1.7415
13294TIP3   OH261296   2.678   4.787   5.648 -0.1425 -0.2678  0.4427
13294TIP3    H161297   2.731   4.789   5.728  1.1206  0.0547 -0.3715
13294TIP3    H261298   2.635   4.872   5.646  1.7783  0.7089 -0.4727
13295TIP3   OH261299   5.835   5.886  12.505 -0.1753 -0.0439  0.2188
13295TIP3    H161300   5.857   5.951  12.437  1.2497  0.2740  0.9677
13295TIP3    H261301   5.797   5.813  12.456  1.5015 -0.1176 -1.0140
13296TIP3   OH261302   4.704   1.211  10.954  0.0335 -0.1665 -0.4324
13296TIP3    H161303   4.615   1.245  10.947  0.4502  1.2690  0.6887
13296TIP3    H261304   4.750   1.245  10.877 -0.8803 -2.5889 -2.0771
13297TIP3   OH261305   1.521   3.673   0.438  0.2164  0.5686 -0.1950
13297TIP3    H161306   1.560   3.692   0.352 -0.0763  1.4830 -0.1241
13297TIP3    H261307   1.546   3.582   0.455 -0.0083  0.2734 -1.4049
13298TIP3   OH261308   3.904   1.746  15.514 -0.2624 -0.0427  0.2934
13298TIP3    H161309   3.955   1.827  15.515 -0.9519  0.4017 -0.3436
13298TIP3    H261310   3.967   1.678  15.488 -0.0954  0.5793 -0.9607
13299TIP3   OH261311   2.789   0.227   2.431  0.0452  0.3044 -0.5003
13299TIP3    H161312   2.846   0.176   2.374 -0.6213  1.8463 -2.6173
13299TIP3    H261313   2.759   0.165   2.497  2.8450 -0.9114 -0.3110
13300TIP3   OH261314   3.426   3.719   5.624 -0.1296  0.5457  0.1924
13300TIP3    H161315   3.383   3.646   5.668 -1.1428 -0.1250 -1.8332
13300TIP3    H261316   3.406   3.795   5.679 -0.4785 -0.4331  1.4369
13301TIP3   OH261317   3.102   4.237   1.229  0.0774 -0.0582 -0.5399
13301TIP3    H161318   3.196   4.215   1.233  0.5470  1.6399 -1.6821
13301TIP3    H261319   3.089   4.298   1.301 -0.0053  0.2100 -0.7810
13302TIP3   OH261320   4.177   1.098  14.654  0.1757  0.0021 -0.0746
13302TIP3    H161321   4.138   1.129  14.572  1.5016 -1.1956 -1.1910
13302TIP3    H261322   4.271   1.105  14.640  0.4148 -0.1956  1.3742
13303TIP3   OH261323   4.604   6.457  16.937 -0.3722  0.1321 -0.7174
13303TIP3    H161324   4.638   6.495  16.856  2.1957  0.3194  0.3702
13303TIP3    H261325   4.672   6.395  16.964 -1.9820 -1.1697  0.3988
13304TIP3   OH261326   5.497   2.918  16.751 -0.0975 -0.2351  0.3948
13304TIP3    H161327   5.503   2.965  16.668 -2.2045 -3.1384 -1.5244
13304TIP3    H261328   5.580   2.871  16.758  0.1040  0.0521 -0.0200
13305TIP3   OH261329   2.451   5.666   5.467 -0.2311 -0.4308 -0.5196
13305TIP3    H161330   2.414   5.673   5.379  1.9113  0.1879 -1.4049
13305TIP3    H261331   2.435   5.751   5.507  0.8024  0.0771 -1.1529
13306TIP3   OH261332   5.682   0.525   1.166 -0.0479 -0.2757 -0.2806
13306TIP3    H161333   5.722   0.611   1.153  0.6837 -0.4572  0.7734
13306TIP3    H261334   5.606   0.526   1.107 -1.3289  1.9261  1.2883
13307TIP3   OH261335   4.085   1.379   0.044 -0.0757 -0.2236  0.3394
13307TIP3    H161336   4.094   1.413  -0.045  0.9524 -0.9284  0.1636
13307TIP3    H261337   4.050   1.290   0.032  0.1636 -0.3587  0.6356
13308TIP3   OH261338   2.229   3.849   1.771 -0.5298 -0.0378  0.4203
13308TIP3    H161339   2.138   3.823   1.762 -0.9146  0.6815  2.0613
13308TIP3    H261340   2.249   3.835   1.863  1.3008 -1.0786 -0.1200
13309TIP3   OH261341   0.988   4.598  15.274  0.2839  0.7490  0.1735
13309TIP3    H161342   0.996   4.537  15.201  2.2638  0.9488  0.1795
13309TIP3    H261343   0.966   4.682  15.233 -0.0937  0.5347 -0.0600
13310TIP3   OH261344   3.486   0.403   2.144  0.4161  0.1396  0.0933
13310TIP3    H161345   3.490   0.360   2.059 -1.1046  0.6963 -0.2640
13310TIP3    H261346   3.480   0.331   2.208 -2.0321 -0.2042 -0.4897
13311TIP3   OH261347   6.072   2.279  13.977 -0.4523 -0.0391 -0.2980
13311TIP3    H161348   6.044   2.187  13.979 -0.4373 -0.0775 -1.5716
13311TIP3    H261349   6.088   2.297  13.885  1.8104  0.5680  0.1690
13312TIP3   OH261350   0.159   3.802   3.904 -0.0400 -0.4211  0.3257
13312TIP3    H161351   0.176   3.896   3.915 -1.5673 -0.2451  1.1648
13312TIP3    H261352   0.228   3.759   3.954 -1.5672  0.2980  3.1121
13313TIP3   OH261353   5.967   0.556   3.989 -0.3232  0.3861 -0.2212
13313TIP3    H161354   5.951   0.465   4.013 -0.8791  0.8225  1.1668
13313TIP3    H261355   5.976   0.601   4.074 -2.1128  1.9767 -0.8527
13314TIP3   OH261356   5.894   6.190   5.802 -0.5026 -0.3473 -0.0160
13314TIP3    H161357   5.804   6.218   5.818 -0.7641 -0.2575 -1.5963
13314TIP3    H261358   5.947   6.246   5.859 -1.2728  1.1835 -0.7895
13315TIP3   OH261359   5.134   2.147  13.197 -0.0716  0.3628 -0.3792
13315TIP3    H161360   5.215   2.133  13.148  0.9094 -0.1482  1.3781
13315TIP3    H261361   5.156   2.212  13.264 -0.5906 -1.1911  1.3339
13316TIP3   OH261362   3.674   5.447   5.346 -0.1485 -0.0093  0.1472
13316TIP3    H161363   3.603   5.388   5.372 -0.1775  0.0078  0.1066
13316TIP3    H261364   3.752   5.410   5.386 -0.2754  0.3096  0.6856
13317TIP3   OH261365   3.182   0.157   4.754 -0.3040 -0.0264 -0.1566
13317TIP3    H161366   3.128   0.090   4.795 -2.8486  1.9546 -0.1095
13317TIP3    H261367   3.254   0.172   4.815 -0.7755 -1.2978  0.7267
13318TIP3   OH261368   4.647   1.233   4.764 -0.1441 -0.3063  0.0398
13318TIP3    H161369   4.688   1.278   4.838  1.0586 -0.3083 -0.6021
13318TIP3    H261370   4.601   1.302   4.716  0.8193  0.0693 -0.3576
13319TIP3   OH261371   6.376   1.325   3.574 -0.7725 -0.8091  0.4889
13319TIP3    H161372   6.451   1.385   3.564 -0.2683 -1.6306 -0.6817
13319TIP3    H261373   6.299   1.381   3.564 -0.3029 -0.3192 -0.4703
13320TIP3   OH261374   0.502   4.684   3.107 -0.3820 -1.0527 -0.0493
13320TIP3    H161375   0.585   4.648   3.137 -0.4926  0.2282  1.8387
13320TIP3    H261376   0.527   4.763   3.059 -0.3819 -1.7579 -1.2263
13321TIP3   OH261377   2.469   6.298   1.796 -0.2479  0.1800 -0.5332
13321TIP3    H161378   2.424   6.230   1.846 -1.4475  2.9226  2.2962
13321TIP3    H261379   2.562   6.276   1.803 -0.6554 -1.4522 -0.1278
13322TIP3   OH261380   6.625   1.714  16.860 -0.1692  0.6532 -0.3600
13322TIP3    H161381   6.610   1.721  16.954  0.4454  0.2049 -0.2245
13322TIP3    H261382   6.543   1.744  16.820 -1.7782 -2.4795  0.3775
13323TIP3   OH261383   0.953   6.491   0.201  0.0353 -1.1884  0.0852
13323TIP3    H161384   0.996   6.545   0.135  0.2269 -1.5734 -0.1050
13323TIP3    H261385   0.936   6.551   0.273 -1.2827 -0.4881 -0.8020
13324TIP3   OH261386   4.265   4.899  11.239  0.0496  0.6381 -0.8313
13324TIP3    H161387   4.304   4.812  11.237  1.3813  1.2107 -0.7480
13324TIP3    H261388   4.277   4.933  11.150 -1.3694  0.3524 -1.1371
13325TIP3   OH261389   2.333   0.886   1.181 -0.2330 -0.1061 -0.2099
13325TIP3    H161390   2.284   0.822   1.232 -0.1651  0.3698  0.4587
13325TIP3    H261391   2.329   0.853   1.091 -0.8711 -0.6233  0.0051
13326TIP3   OH261392   5.946   2.880   5.759 -0.0560  0.1161  0.2448
13326TIP3    H161393   5.994   2.943   5.705 -0.0644 -0.0805  0.0056
13326TIP3    H261394   6.004   2.860   5.832 -0.2890  0.8419  0.6259
13327TIP3   OH261395   5.625   1.126  16.622  0.4044 -0.0908  0.2707
13327TIP3    H161396   5.653   1.072  16.548  2.3112 -4.6119  4.0495
13327TIP3    H261397   5.529   1.126  16.617  0.5121  0.8740 -2.9009
13328TIP3   OH261398   2.885   2.397   3.829 -0.0600 -0.1955  0.2815
13328TIP3    H161399   2.970   2.395   3.874 -0.1685  1.9402  0.6563
13328TIP3    H261400   2.903   2.362   3.742  1.1297 -0.1546  0.4990
13329TIP3   OH261401   5.483   0.498   0.974 -0.0204  0.1849  0.4507
13329TIP3    H161402   5.420   0.428   0.988  0.3923 -0.3323 -0.2475
13329TIP3    H261403   5.515   0.484   0.884  1.4701  0.1332  0.9744
13330TIP3   OH261404   6.299   1.929   2.088  0.8833  0.4119 -0.4477
13330TIP3    H161405   6.213   1.970   2.102  1.5576  1.6218  0.2843
13330TIP3    H261406   6.329   1.966   2.004  0.6079 -0.1597 -0.7995
13331TIP3   OH261407   6.573   3.997   2.808  0.4106  0.1388  0.0951
13331TIP3    H161408   6.588   4.076   2.860  1.8496  0.5920 -0.9746
13331TIP3    H261409   6.493   3.959   2.845 -1.4030  3.1263 -0.6367
13332TIP3   OH261410   6.341   5.414   1.707  0.2728 -0.0573 -0.3040
13332TIP3    H161411   6.364   5.350   1.774 -0.6691  1.6475  1.7071
13332TIP3    H261412   6.258   5.451   1.737  0.3926  1.5289 -1.8507
13333TIP3   OH261413   1.880   0.144   3.666 -0.3664  0.6302 -0.4579
13333TIP3    H161414   1.964   0.184   3.642  0.6426 -0.4769  1.1034
13333TIP3    H261415   1.880   0.143   3.761 -1.2055 -1.3136 -0.4391
13334TIP3   OH261416   1.118   4.330   2.418  0.4136  0.1935 -0.5826
13334TIP3    H161417   1.114   4.342   2.513  0.4886  1.4902 -0.7348
13334TIP3    H261418   1.042   4.275   2.398  0.3679 -0.0464  0.2192
13335TIP3   OH261419   2.741   0.701  15.300  0.0500  0.4156  0.0845
13335TIP3    H161420   2.672   0.635  15.295  0.2141  0.0105  2.3494
13335TIP3    H261421   2.729   0.755  15.222 -2.2737 -0.1713 -0.0021
13336TIP3   OH261422   1.151   1.636  15.943  0.2055  0.4857 -0.0709
13336TIP3    H161423   1.092   1.599  15.877 -0.9270  2.3705 -0.1486
13336TIP3    H261424   1.109   1.615  16.027  1.6340 -1.8915  0.0962
13337TIP3   OH261425   1.996   6.620  16.876 -0.8318 -0.2385  0.1748
13337TIP3    H161426   1.996   6.551  16.943 -1.5202  0.8063  1.2715
13337TIP3    H261427   1.981   6.573  16.794  0.4209 -1.5910  0.6796
13338TIP3   OH261428   4.447   5.295   3.376  0.4145  0.3421 -0.4757
13338TIP3    H161429   4.416   5.300   3.466  1.0102  0.4594 -0.2762
13338TIP3    H261430   4.398   5.363   3.330  0.4157  0.5617 -0.1530
13339TIP3   OH261431   1.548   6.342   1.112  0.4585 -0.3765 -0.2222
13339TIP3    H161432   1.533   6.385   1.196  1.6284 -0.6304  0.1341
13339TIP3    H261433   1.581   6.411   1.056 -1.0196 -0.0457 -0.6999
13340TIP3   OH261434   4.824   6.628  12.739  0.5295 -0.1925 -0.2535
13340TIP3    H161435   4.884   6.683  12.790 -1.0217 -1.0302  2.5993
13340TIP3    H261436   4.882   6.572  12.686  2.2294  0.0891  1.2441
13341TIP3   OH261437   0.485   4.815   4.375  0.0810  0.4180 -0.8010
13341TIP3    H161438   0.485   4.865   4.294  1.3337  1.4384 -0.1937
13341TIP3    H261439   0.535   4.869   4.437 -0.3298 -0.6213  0.4672
13342TIP3   OH261440   2.904   2.399   3.341 -0.1763 -0.2458  0.0612
13342TIP3    H161441   2.855   2.348   3.276  1.8492 -1.1549 -0.7995
13342TIP3    H261442   2.846   2.472   3.364 -1.8084 -1.1613 -1.1132
13343TIP3   OH261443   1.020   0.018   2.535  0.1578 -0.4355 -0.2208
13343TIP3    H161444   0.958  -0.049   2.564 -0.8252  1.9202  3.3914
13343TIP3    H261445   1.061   0.049   2.615  2.7096  1.2662 -2.1190
13344TIP3   OH261446   6.662   4.292   1.931 -0.4956 -0.3722  0.4261
13344TIP3    H161447   6.665   4.385   1.955  0.0527 -0.1640 -0.3996
13344TIP3    H261448   6.582   4.283   1.879  1.3150  0.4717 -2.6726
13345TIP3   OH261449   6.742   3.125   0.925  0.2967 -0.3064 -0.3324
13345TIP3    H161450   6.797   3.153   0.998  3.0934 -1.1997 -2.0224
13345TIP3    H261451   6.754   3.030   0.922 -2.1296 -0.6557 -0.1679
13346TIP3   OH261452   2.326   3.016   4.541  0.9051  0.0214  0.8601
13346TIP3    H161453   2.418   3.043   4.535  0.7672  0.3777  0.3327
13346TIP3    H261454   2.277   3.088   4.501  0.4375 -0.4182  0.6377
13347TIP3   OH261455   3.851   6.545   5.261  0.1597 -0.3525  0.2805
13347TIP3    H161456   3.773   6.489   5.263 -0.2316  0.1544 -0.4115
13347TIP3    H261457   3.918   6.491   5.220 -0.2282 -0.3126 -0.4182
13348TIP3   OH261458   5.826   5.397   0.756  0.7339  0.2149 -0.5594
13348TIP3    H161459   5.790   5.464   0.815 -0.8578 -0.0993 -1.1321
13348TIP3    H261460   5.758   5.385   0.690  1.6889 -0.8198 -1.3702
13349TIP3   OH261461   0.035   2.800   4.675  0.1546  0.6655  0.0853
13349TIP3    H161462   0.023   2.741   4.750  0.3221  0.2293 -0.2296
13349TIP3    H261463   0.127   2.788   4.650 -0.7478 -1.7362 -2.3212
13350TIP3   OH261464   0.344   2.187  11.485  0.1813 -0.3623  0.5336
13350TIP3    H161465   0.282   2.146  11.545 -2.3535  3.0037  0.4110
13350TIP3    H261466   0.308   2.171  11.398  0.7842 -0.4386  0.2953
13351TIP3   OH261467   2.883   5.215  12.650 -0.2134 -0.7634  0.3465
13351TIP3    H161468   2.957   5.274  12.633 -1.3070  0.5805  0.2388
13351TIP3    H261469   2.916   5.155  12.717  0.8986 -0.0231  0.4761
13352TIP3   OH261470   4.156   4.039   3.193 -0.1591 -0.3139 -0.7697
13352TIP3    H161471   4.072   4.008   3.159  0.7842 -1.0725 -2.5028
13352TIP3    H261472   4.194   3.962   3.236  0.4582 -0.5043 -1.6377
13353TIP3   OH261473   5.920   4.552   0.561  0.3527  0.0957  0.2936
13353TIP3    H161474   5.894   4.607   0.634  0.6928  1.0741 -0.3048
13353TIP3    H261475   5.868   4.472   0.571 -1.6672  1.3345  0.0405
13354TIP3   OH261476   5.080   1.090   2.828  0.0786  0.0212  0.4352
13354TIP3    H161477   5.000   1.129   2.863 -0.9530 -2.0487  0.4852
13354TIP3    H261478   5.074   0.998   2.853  1.4316 -0.6113 -1.4422
13355TIP3   OH261479   2.041   1.329  11.508  0.3551  0.0894 -0.3011
13355TIP3    H161480   2.042   1.246  11.556 -1.9596  0.0370 -0.2712
13355TIP3    H261481   2.131   1.359  11.510  0.9928 -1.7934  0.8057
13356TIP3   OH261482   4.822   3.537   0.417 -0.3530  0.7310  0.0127
13356TIP3    H161483   4.867   3.521   0.500 -0.9891  0.4552  0.3157
13356TIP3    H261484   4.869   3.610   0.377  0.6922  0.0818  0.0535
13357TIP3   OH261485   2.865   1.099  13.921 -0.7167 -0.1789 -0.7722
13357TIP3    H161486   2.832   1.045  13.850  1.4204 -0.9985 -1.1813
13357TIP3    H261487   2.835   1.188  13.901 -3.7849 -1.0747 -0.3920
13358TIP3   OH261488   2.182   2.917  17.202  0.0116 -0.9921 -0.0597
13358TIP3    H161489   2.202   3.000  17.246 -0.3909 -0.2583 -1.2448
13358TIP3    H261490   2.268   2.883  17.176  0.0545  0.0023 -1.2630
13359TIP3   OH261491   4.519   6.095   0.492 -0.9818 -0.1240 -0.1152
13359TIP3    H161492   4.592   6.066   0.548 -1.1723 -1.0449 -0.3366
13359TIP3    H261493   4.491   6.178   0.530  0.5236  0.5057 -0.3305
13360TIP3   OH261494   0.916   0.231   4.675 -1.0501  0.5472 -0.4058
13360TIP3    H161495   0.900   0.224   4.581 -0.6775  1.6939 -0.5654
13360TIP3    H261496   0.861   0.305   4.703 -1.0421  0.3086  0.2418
13361TIP3   OH261497   5.630   5.656   0.355 -0.1348 -0.1977  0.0923
13361TIP3    H161498   5.641   5.561   0.363 -0.2738 -0.1227  1.2332
13361TIP3    H261499   5.714   5.686   0.320  0.2706 -0.6256  0.6806
13362TIP3   OH261500   2.754   0.491   6.881  0.0259 -0.8299  0.1223
13362TIP3    H161501   2.804   0.429   6.828  0.2261 -0.9823  0.4860
13362TIP3    H261502   2.668   0.449   6.892 -0.2889 -0.4341 -0.7494
13363TIP3   OH261503   6.644   5.781  16.627 -0.2124  0.3011 -0.2509
13363TIP3    H161504   6.599   5.771  16.711 -0.1375 -1.4854 -0.4146
13363TIP3    H261505   6.600   5.856  16.586 -1.1027  0.3890  0.8218
13364TIP3   OH261506   6.327   5.272   3.349  0.4001 -0.0301 -0.4228
13364TIP3    H161507   6.326   5.347   3.408  1.4270  0.6061 -1.1933
13364TIP3    H261508   6.420   5.251   3.339  0.3067  0.4426 -2.5029
13365TIP3   OH261509   0.789   2.009   4.485  0.0517  0.4248 -0.1721
13365TIP3    H161510   0.874   2.054   4.484  1.5149 -2.2668 -0.3437
13365TIP3    H261511   0.782   1.973   4.573  0.0719 -1.1469 -0.8027
13366TIP3   OH261512   4.153   4.183  15.003  0.0401  0.2054  0.6449
13366TIP3    H161513   4.204   4.261  14.982  0.1604 -0.2061 -0.6051
13366TIP3    H261514   4.165   4.172  15.098 -0.0060  1.7079  0.8331
13367TIP3   OH261515   2.097   3.958  16.404 -0.0064 -0.3044  0.5604
13367TIP3    H161516   2.028   3.895  16.385  0.3024 -0.3655 -0.3532
13367TIP3    H261517   2.069   4.038  16.362  2.1094 -1.2399 -2.7990
13368TIP3   OH261518   3.228   5.248  12.910 -0.3797  0.3267  0.0576
13368TIP3    H161519   3.283   5.281  12.838  0.8225  1.1868  1.3483
13368TIP3    H261520   3.287   5.198  12.965 -1.1200  0.3421  0.8797
13369TIP3   OH261521   1.249   5.190  12.662 -0.2879 -1.0539 -0.3937
13369TIP3    H161522   1.301   5.110  12.666 -0.3856 -1.1986 -1.7649
13369TIP3    H261523   1.282   5.236  12.585  0.5529  0.7828  1.0298
13370TIP3   OH261524   1.432   4.639   3.245 -0.3269 -0.2080  0.1968
13370TIP3    H161525   1.442   4.711   3.306 -0.0179  0.3747 -0.5299
13370TIP3    H261526   1.501   4.652   3.180 -2.0620  0.5307 -1.5813
13371TIP3   OH261527   3.633   5.334  13.940  0.5930 -0.0925  0.0278
13371TIP3    H161528   3.665   5.243  13.943  0.2382 -0.1781  2.4415
13371TIP3    H261529   3.711   5.387  13.958  0.4611 -0.0212  0.3995
13372TIP3   OH261530   2.442   2.960   6.212 -0.3206 -0.1089 -0.2986
13372TIP3    H161531   2.504   2.920   6.151 -0.4283  1.1507 -1.2618
13372TIP3    H261532   2.363   2.972   6.159 -0.4294  0.9572  0.1079
13373TIP3   OH261533   5.074   1.163   1.997 -0.2607  0.4298 -0.1922
13373TIP3    H161534   5.014   1.165   1.922 -2.4735 -0.7850  1.4844
13373TIP3    H261535   5.049   1.239   2.049 -0.3808 -0.1031  0.5324
13374TIP3   OH261536   4.147   6.405  14.728  0.5854  0.3789  0.0673
13374TIP3    H161537   4.153   6.430  14.820 -0.6828  0.8193  0.0422
13374TIP3    H261538   4.175   6.313  14.726  0.5812  0.3583  0.8963
13375TIP3   OH261539   2.661   6.276   0.912  0.3882 -0.3570  0.3597
13375TIP3    H161540   2.708   6.231   0.841 -1.4370 -1.4968 -0.1544
13375TIP3    H261541   2.725   6.281   0.983  2.1827  0.5932 -1.2603
13376TIP3   OH261542   1.020   6.624   1.216  0.5830  0.1438 -0.4262
13376TIP3    H161543   1.096   6.674   1.186  0.2120 -0.9540 -3.4143
13376TIP3    H261544   0.996   6.569   1.141 -1.5116 -1.5180  1.3742
13377TIP3   OH261545   4.097   2.864   3.192  0.3181  0.5367 -0.1685
13377TIP3    H161546   4.151   2.902   3.262  0.8483 -0.7086  0.1195
13377TIP3    H261547   4.109   2.769   3.202 -1.3545  0.2760 -0.5639
13378TIP3   OH261548   5.716   5.767   4.773  0.2525 -0.0804  0.9317
13378TIP3    H161549   5.696   5.823   4.698 -0.6363 -0.4673  0.8637
13378TIP3    H261550   5.674   5.683   4.751 -0.4644 -0.0292  2.0917
13379TIP3   OH261551   2.776   5.315   0.033  0.6303  0.1085 -0.1812
13379TIP3    H161552   2.752   5.246   0.094  2.7318  0.2157  0.8211
13379TIP3    H261553   2.855   5.282  -0.011  1.6985  1.8637  0.3495
13380TIP3   OH261554   3.481   6.058   3.230 -0.5559  0.0470  0.3302
13380TIP3    H161555   3.447   6.020   3.312 -0.8025 -1.7568 -0.5884
13380TIP3    H261556   3.419   6.029   3.163 -1.4231  3.0770 -0.2626
13381TIP3   OH261557   5.621   1.826  15.002  0.1365 -0.1188 -0.6001
13381TIP3    H161558   5.554   1.760  14.985  0.3776 -0.3789 -0.5368
13381TIP3    H261559   5.699   1.794  14.958  1.1023 -1.3888  1.9215
13382TIP3   OH261560   3.261   3.183  12.794 -0.2702  0.4984  0.6388
13382TIP3    H161561   3.177   3.221  12.818  0.2233  2.1996 -0.2603
13382TIP3    H261562   3.320   3.211  12.864 -0.2644 -0.0072  0.8397
13383TIP3   OH261563   0.614   4.399  11.853 -0.0798 -0.4104  0.1077
13383TIP3    H161564   0.697   4.446  11.846 -0.1352 -0.5110 -1.3748
13383TIP3    H261565   0.568   4.442  11.926  0.3905  1.0219 -0.4179
13384TIP3   OH261566   3.070   6.239   3.232  0.8296 -0.3185 -0.0796
13384TIP3    H161567   3.109   6.258   3.317 -0.0345 -0.4618  0.3488
13384TIP3    H261568   3.133   6.274   3.169  1.1313  0.4196  0.6208
13385TIP3   OH261569   3.999   0.449  13.434  0.1776  0.3168  0.2958
13385TIP3    H161570   3.936   0.521  13.438  1.4007  1.4299  0.1786
13385TIP3    H261571   4.017   0.439  13.340  1.3656  1.1101  0.4170
13386TIP3   OH261572   4.015   3.256  16.029  0.0719  0.2348 -0.7092
13386TIP3    H161573   4.035   3.185  15.968  3.1772  1.6684 -1.4217
13386TIP3    H261574   4.028   3.217  16.116 -1.3586 -0.9245 -0.9877
13387TIP3   OH261575   5.969   0.274  16.990 -0.0345  0.0781  0.0840
13387TIP3    H161576   5.920   0.193  16.978  0.6937 -0.8298  2.8568
13387TIP3    H261577   5.933   0.312  17.071  0.6414  1.7548 -0.3888
13388TIP3   OH261578   3.666   6.361  11.882 -0.0739 -0.6730 -0.0298
13388TIP3    H161579   3.703   6.449  11.884 -0.3802 -0.5564  1.1537
13388TIP3    H261580   3.606   6.359  11.956 -0.0333 -1.8961 -0.0222
13389TIP3   OH261581   5.248   5.156   2.511 -0.7346  0.1088  0.0034
13389TIP3    H161582   5.177   5.132   2.571 -1.1506 -0.5191 -0.7325
13389TIP3    H261583   5.264   5.076   2.460  0.4869  0.2534  0.1481
13390TIP3   OH261584   4.159   2.032   2.108 -0.6403 -0.5634 -0.7132
13390TIP3    H161585   4.244   2.053   2.070 -0.9830 -0.5300 -1.4610
13390TIP3    H261586   4.180   2.006   2.198  0.1253 -0.2454 -0.7894
13391TIP3   OH261587   4.060   4.528   1.827  0.3000  0.0497 -0.6968
13391TIP3    H161588   4.019   4.442   1.833  0.8500 -0.2374 -1.0483
13391TIP3    H261589   4.104   4.528   1.742  0.6438  0.5238 -0.5219
13392TIP3   OH261590   2.422   2.011  12.382 -0.0424 -0.4281  0.3571
13392TIP3    H161591   2.413   1.978  12.471  0.9273 -0.7271  0.3428
13392TIP3    H261592   2.386   1.942  12.326 -0.6836 -0.2245  0.5086
13393TIP3   OH261593   5.956   6.057   5.117 -0.7670  0.3940 -0.6621
13393TIP3    H161594   5.877   6.057   5.063 -0.5741 -0.4120 -0.9515
13393TIP3    H261595   6.024   6.021   5.060 -0.3694  0.3395 -0.1590
13394TIP3   OH261596   2.236   0.623  16.077  0.3422 -0.3104  0.5707
13394TIP3    H161597   2.164   0.603  16.017  2.2206 -0.3168 -1.7321
13394TIP3    H261598   2.222   0.715  16.101  1.7335  0.9470 -3.0620
13395TIP3   OH261599   4.229   0.869   1.291  0.6065 -0.2547 -0.0738
13395TIP3    H161600   4.223   0.804   1.361  1.2164 -0.4775 -0.2253
13395TIP3    H261601   4.249   0.951   1.336 -0.1974 -0.1596  0.1202
13396TIP3   OH261602   3.992   6.145  13.021 -0.4060  0.5642  0.5410
13396TIP3    H161603   3.922   6.181  13.076  0.1186 -0.4912  1.9413
13396TIP3    H261604   4.008   6.057  13.057 -1.3811 -0.9209 -2.5496
13397TIP3   OH261605   3.174   1.847  10.716 -0.4558 -0.2789 -0.0153
13397TIP3    H161606   3.082   1.866  10.697 -0.3420 -0.1048 -0.4148
13397TIP3    H261607   3.193   1.768  10.665 -0.9022 -1.4287  1.5753
13398TIP3   OH261608   1.110   5.736   3.390 -0.3192 -0.5314 -0.1856
13398TIP3    H161609   1.136   5.673   3.458 -0.8774 -0.4974  0.0670
13398TIP3    H261610   1.014   5.731   3.389 -0.3389 -0.0689 -0.5359
13399TIP3   OH261611   0.496   2.095  15.899 -0.4371 -0.0290  0.2424
13399TIP3    H161612   0.553   2.025  15.868 -0.3418  0.7458 -1.3849
13399TIP3    H261613   0.468   2.140  15.819 -0.6882  1.6352  1.2434
13400TIP3   OH261614   0.642   6.412   2.450 -0.2315  0.1876  0.9234
13400TIP3    H161615   0.657   6.367   2.367  0.3450  0.3487  0.9346
13400TIP3    H261616   0.709   6.376   2.509  0.5583  1.3989  0.7929
13401TIP3   OH261617   0.280   1.126  15.632  0.3817 -0.4026 -0.8281
13401TIP3    H161618   0.373   1.125  15.653  0.2222  1.9050  0.1841
13401TIP3    H261619   0.249   1.038  15.654  1.7895 -0.3505  1.4833
13402TIP3   OH261620   0.404   0.690  15.341  0.2762  0.3152 -0.5249
13402TIP3    H161621   0.455   0.739  15.277 -0.6737  1.8618 -0.1040
13402TIP3    H261622   0.378   0.611  15.294  0.3865  0.9887 -1.7429
13403TIP3   OH261623   0.121   1.756  15.701  0.0241 -0.0498 -0.2276
13403TIP3    H161624   0.164   1.796  15.625  0.8670  1.0309  0.7793
13403TIP3    H261625   0.028   1.756  15.679  0.0564  1.9800 -0.5122
13404TIP3   OH261626   0.304   2.404   3.886  0.4043  0.0544 -0.0773
13404TIP3    H161627   0.283   2.353   3.965 -0.7544 -1.8042 -1.5572
13404TIP3    H261628   0.299   2.495   3.915  1.7864 -0.6113  2.4383
13405TIP3   OH261629   4.960   5.613  11.424 -0.5502  0.9019  0.3747
13405TIP3    H161630   5.044   5.641  11.389  0.1935 -1.5679  0.1057
13405TIP3    H261631   4.950   5.522  11.396 -1.6831  0.0425  3.3271
13406TIP3   OH261632   3.197   2.782  13.876 -0.7200 -0.2789  0.8653
13406TIP3    H161633   3.292   2.785  13.863 -0.7525  0.4740  0.7895
13406TIP3    H261634   3.162   2.757  13.790 -0.8568  3.5021 -0.2394
13407TIP3   OH261635   2.489   6.414   5.169 -0.8398  0.7068  0.9852
13407TIP3    H161636   2.568   6.364   5.187  0.0073  2.1211  1.2040
13407TIP3    H261637   2.501   6.447   5.080 -1.4990  0.3643  0.7614
13408TIP3   OH261638   0.836   4.125  12.409 -0.1215 -0.0041 -0.0284
13408TIP3    H161639   0.819   4.204  12.459  1.0181 -0.9309  1.8572
13408TIP3    H261640   0.910   4.147  12.352  1.2858 -0.2011  1.6884
13409TIP3   OH261641   2.455   2.441  10.659  0.0549  0.0099 -0.1935
13409TIP3    H161642   2.436   2.400  10.743 -1.1633  1.3569  0.2122
13409TIP3    H261643   2.477   2.368  10.601  1.4096 -0.8884  1.4098
13410TIP3   OH261644   1.149   6.491  15.625  0.0817 -0.1039  0.1368
13410TIP3    H161645   1.218   6.469  15.562  0.1119  0.2679  0.0389
13410TIP3    H261646   1.080   6.531  15.572  0.2830  0.5942  0.3925
13411TIP3   OH261647   2.272   2.945  13.056  0.1998  0.0127  0.5272
13411TIP3    H161648   2.287   2.996  13.136  1.5950  4.4780 -2.3944
13411TIP3    H261649   2.356   2.905  13.037  1.5408  3.6321 -1.6627
13412TIP3   OH261650   5.179   5.761   3.176 -0.0094 -0.0312  0.0104
13412TIP3    H161651   5.155   5.678   3.133  0.4431  0.7578 -1.8197
13412TIP3    H261652   5.213   5.735   3.261 -1.9204 -1.5824  0.3390
13413TIP3   OH261653   6.776   5.627   4.052 -0.2718  0.1327  0.2455
13413TIP3    H161654   6.722   5.698   4.016  0.0832  0.7063  0.8246
13413TIP3    H261655   6.732   5.603   4.133  0.5951  0.9315  0.9637
13414TIP3   OH261656   2.658   2.983   2.274 -0.4540 -0.1929 -0.7084
13414TIP3    H161657   2.722   2.912   2.283 -0.4513  0.0966  2.0649
13414TIP3    H261658   2.619   2.970   2.188  2.2124 -1.3108 -1.8066
13415TIP3   OH261659   4.122   5.844   3.342  0.5426  0.0608 -0.2766
13415TIP3    H161660   4.089   5.902   3.411  0.9562 -0.6036  0.4916
13415TIP3    H261661   4.055   5.777   3.332  0.9160 -0.3854  0.1630
13416TIP3   OH261662   2.811   5.526  17.026  0.3149  0.5892 -0.1643
13416TIP3    H161663   2.847   5.554  16.942  1.0222  0.9494  0.2513
13416TIP3    H261664   2.856   5.443  17.044 -0.6535 -0.0473 -0.6669
13417TIP3   OH261665   1.419   3.428  12.828 -0.2882 -0.1527 -0.2658
13417TIP3    H161666   1.375   3.477  12.759  2.4381  1.8428 -0.6507
13417TIP3    H261667   1.476   3.366  12.781  0.0156 -0.2304  0.2025
13418TIP3   OH261668   3.481   5.671  13.453  0.1257  0.8375  0.0382
13418TIP3    H161669   3.574   5.650  13.467  0.3286  0.1805 -2.1218
13418TIP3    H261670   3.475   5.765  13.471  0.9279  0.6390  1.4542
13419TIP3   OH261671   2.603   0.640   1.909  0.1546  0.3884  0.1497
13419TIP3    H161672   2.525   0.602   1.868  0.9685  0.4480 -1.4851
13419TIP3    H261673   2.663   0.567   1.921  1.0786  0.8615 -1.4945
13420TIP3   OH261674   4.214   0.949  12.890 -0.2303  0.2243  0.1229
13420TIP3    H161675   4.292   1.004  12.890 -1.3846  1.9523  2.4609
13420TIP3    H261676   4.220   0.899  12.809  3.0385  0.6778  0.0127
13421TIP3   OH261677   3.471   0.790  14.028 -0.5425  0.6130  0.2053
13421TIP3    H161678   3.498   0.700  14.044  0.7318  1.0406  0.5826
13421TIP3    H261679   3.432   0.789  13.941 -0.5454 -0.3030  0.2136
13422TIP3   OH261680   4.693   1.918   3.307 -0.1144 -0.1954  0.4596
13422TIP3    H161681   4.661   1.883   3.223  2.1176  0.1340 -0.5854
13422TIP3    H261682   4.692   2.013   3.295 -1.3677 -0.0843  1.4282
13423TIP3   OH261683   1.208   6.356  11.560  0.8948  0.2178 -0.3551
13423TIP3    H161684   1.126   6.397  11.532  0.3641  1.5414  2.9065
13423TIP3    H261685   1.275   6.395  11.503 -0.0912  3.0141  0.3098
13424TIP3   OH261686   1.391   4.398  13.754 -0.3288  0.3093 -0.6671
13424TIP3    H161687   1.371   4.428  13.665 -1.1117  0.7414 -0.3520
13424TIP3    H261688   1.320   4.433  13.807  1.4564  2.2433  0.5477
13425TIP3   OH261689   1.509   4.391  10.989 -0.0754 -0.1151  0.1698
13425TIP3    H161690   1.473   4.467  11.033 -1.7550 -0.5299 -0.4656
13425TIP3    H261691   1.483   4.401  10.897  2.2925  0.0901 -0.5089
13426TIP3   OH261692   0.527   3.071   0.531  0.0853 -0.0269 -0.1357
13426TIP3    H161693   0.586   3.081   0.457  0.0474 -1.0178 -0.2940
13426TIP3    H261694   0.491   2.983   0.524 -1.4657  0.5656 -0.0727
13427TIP3   OH261695   2.580   1.807  13.789 -0.0380 -0.4412  0.0904
13427TIP3    H161696   2.541   1.881  13.741  0.7475 -0.4053 -0.5036
13427TIP3    H261697   2.632   1.848  13.858 -0.1788 -0.4618  0.2097
13428TIP3   OH261698   2.401   1.348  14.271  0.4650 -0.1479  0.2748
13428TIP3    H161699   2.490   1.363  14.302  0.0153 -1.3940  2.2926
13428TIP3    H261700   2.412   1.318  14.180  1.9588  1.4082 -0.0823
13429TIP3   OH261701   0.843   0.814   5.666 -0.2906 -0.3081  0.3820
13429TIP3    H161702   0.831   0.891   5.720 -3.0350  0.0069 -0.6077
13429TIP3    H261703   0.925   0.830   5.619 -0.4969  1.7170  0.6754
13430TIP3   OH261704   3.509   5.866   7.101  0.1799 -0.0562 -0.3866
13430TIP3    H161705   3.545   5.820   7.177 -1.3369 -1.4494 -0.5017
13430TIP3    H261706   3.514   5.803   7.030  0.1862  0.7357 -1.0897
13431TIP3   OH261707   4.987   4.218  13.550 -0.0724  0.3806  0.1635
13431TIP3    H161708   4.988   4.123  13.555  1.0708  0.4098  0.5983
13431TIP3    H261709   5.021   4.248  13.634 -1.2272  1.1911  0.3565
13432TIP3   OH261710   3.542   2.881  12.282 -0.1444  0.1296  0.0666
13432TIP3    H161711   3.473   2.906  12.343 -2.1002 -0.7685 -1.7103
13432TIP3    H261712   3.542   2.951  12.216  0.7625  0.1963  0.1245
13433TIP3   OH261713   1.773   3.863   2.216 -0.3264  0.0310 -0.7840
13433TIP3    H161714   1.768   3.954   2.245  0.8234  0.4661 -1.8671
13433TIP3    H261715   1.738   3.812   2.289  0.7358  1.2089  0.5971
13434TIP3   OH261716   6.548   3.220   4.367  0.2794  0.4565 -0.1181
13434TIP3    H161717   6.561   3.127   4.346 -0.6605  0.2252  0.2853
13434TIP3    H261718   6.604   3.266   4.306  1.3920 -0.4150  0.2308
13435TIP3   OH261719   5.579   1.235   1.771  0.2974 -0.3931 -0.7344
13435TIP3    H161720   5.593   1.325   1.740  1.2723 -0.4485 -0.4690
13435TIP3    H261721   5.582   1.182   1.692 -0.0495 -0.2120 -0.8677
13436TIP3   OH261722   0.036   5.831   0.273  0.2404 -0.0375  0.1789
13436TIP3    H161723   0.103   5.862   0.334 -0.0301  0.5158  0.1945
13436TIP3    H261724   0.084   5.772   0.214  0.6524  0.0086  0.4634
13437TIP3   OH261725   2.211   1.982  16.715 -0.3806  0.3825 -0.2751
13437TIP3    H161726   2.301   2.017  16.715 -0.1646 -0.1372  0.6716
13437TIP3    H261727   2.197   1.953  16.805 -1.7310  1.0278 -0.2718
13438TIP3   OH261728   5.090   0.058   3.409  0.1238  0.4494 -0.0091
13438TIP3    H161729   5.173   0.010   3.410  0.0841  0.3614 -0.9650
13438TIP3    H261730   5.108   0.138   3.360 -0.5701  0.0236 -0.9866
13439TIP3   OH261731   3.910   2.370   3.744 -0.7887 -0.5490  0.2479
13439TIP3    H161732   3.900   2.424   3.823  1.0155  0.5954 -0.2693
13439TIP3    H261733   3.860   2.291   3.763 -3.6461  1.3247  0.9959
13440TIP3   OH261734   5.676   5.381  13.151  0.3607 -0.2821  0.3514
13440TIP3    H161735   5.708   5.346  13.068  0.7475  2.0713 -0.5112
13440TIP3    H261736   5.626   5.309  13.189  0.5617 -1.5447 -1.6923
13441TIP3   OH261737   2.942   6.471  16.824 -0.1169 -0.1067  0.3120
13441TIP3    H161738   3.024   6.487  16.777 -0.5201  1.2011  0.0321
13441TIP3    H261739   2.968   6.421  16.902  0.6077 -1.9689 -1.0786
13442TIP3   OH261740   3.990   0.560   3.708  0.1588  0.1664  0.0918
13442TIP3    H161741   4.063   0.563   3.647  0.0472  0.5044 -0.0291
13442TIP3    H261742   3.973   0.652   3.731 -0.0753  0.0754  0.2989
13443TIP3   OH261743   5.476   2.611  17.213  0.5829  0.4701 -0.1877
13443TIP3    H161744   5.434   2.698  17.217  1.6736  1.0116 -0.4621
13443TIP3    H261745   5.558   2.626  17.166  1.0817 -0.5958  0.3344
13444TIP3   OH261746   2.244   5.273  16.322 -0.1872 -0.6675  0.3351
13444TIP3    H161747   2.311   5.254  16.256  0.3887 -0.5824  0.8898
13444TIP3    H261748   2.164   5.234  16.287 -0.4948  1.6705 -1.6889
13445TIP3   OH261749   5.365   2.914  15.840 -0.3023 -0.4145 -0.0377
13445TIP3    H161750   5.414   2.882  15.915 -0.9248  0.5157  0.7647
13445TIP3    H261751   5.378   3.008  15.840  0.7999 -0.5412 -1.8910
13446TIP3   OH261752   3.865   3.125  16.965 -0.2803  0.6410 -0.3666
13446TIP3    H161753   3.887   3.162  16.879  0.8342 -0.0639 -0.3943
13446TIP3    H261754   3.850   3.032  16.947 -2.1067  0.8664 -0.1380
13447TIP3   OH261755   4.257   0.359  16.274  0.0505 -0.5555 -0.2310
13447TIP3    H161756   4.238   0.314  16.357  0.8052  2.6196  1.7810
13447TIP3    H261757   4.171   0.374  16.235 -0.5199  0.2562  1.2908
13448TIP3   OH261758   5.632   5.988   2.722 -0.5498  0.0583 -0.1249
13448TIP3    H161759   5.581   5.928   2.776 -1.1732  1.5181  0.9087
13448TIP3    H261760   5.691   6.033   2.783 -1.2959  1.7545 -0.6312
13449TIP3   OH261761   0.281   3.608  14.744 -0.0719 -0.0939 -0.1194
13449TIP3    H161762   0.190   3.637  14.741  0.4057  1.4505 -0.2881
13449TIP3    H261763   0.332   3.688  14.730  1.3208 -0.8241  0.6481
13450TIP3   OH261764   3.037   2.769   5.222  0.3816  0.4100  0.2635
13450TIP3    H161765   3.090   2.834   5.175 -1.9299 -0.5998 -4.0083
13450TIP3    H261766   2.962   2.818   5.254  0.5022  0.5345  0.3608
13451TIP3   OH261767   5.381   1.913  12.304  0.5316 -0.3306  0.1019
13451TIP3    H161768   5.470   1.883  12.318  0.7149  0.3112  0.3551
13451TIP3    H261769   5.387   1.977  12.233 -0.0720 -1.9194 -1.4150
13452TIP3   OH261770   3.571   4.015   0.325 -0.2091 -0.1063 -0.0396
13452TIP3    H161771   3.599   4.093   0.277 -1.1290 -0.1337 -0.6236
13452TIP3    H261772   3.478   4.028   0.340  0.1421  0.0778  2.0989
13453TIP3   OH261773   4.143   4.504   4.890 -0.2202  0.8203 -0.5038
13453TIP3    H161774   4.052   4.514   4.862 -2.5197 -1.9647  5.0705
13453TIP3    H261775   4.170   4.419   4.856 -0.0756  1.1734 -1.2684
13454TIP3   OH261776   1.631   1.337   2.034 -0.2599 -0.0444 -0.9513
13454TIP3    H161777   1.651   1.383   2.116  0.1469 -2.3211  0.2661
13454TIP3    H261778   1.702   1.362   1.975  0.7772 -0.2859  0.1793
13455TIP3   OH261779   0.864   4.916   5.581 -0.6320  0.4963  0.1448
13455TIP3    H161780   0.813   4.976   5.526  0.4558 -1.1043 -2.7544
13455TIP3    H261781   0.799   4.861   5.624 -1.5822  2.8925  1.8744
13456TIP3   OH261782   0.342   0.823   1.097 -0.8217  0.2643 -0.3944
13456TIP3    H161783   0.260   0.863   1.125 -1.4324 -0.5617 -0.9720
13456TIP3    H261784   0.347   0.741   1.146 -0.1921  0.4488 -0.1409
13457TIP3   OH261785   3.553   2.012  16.713 -0.8930  0.3321  0.0876
13457TIP3    H161786   3.457   2.010  16.707 -1.0021  0.1986  1.8171
13457TIP3    H261787   3.572   2.084  16.773 -0.0058 -1.1205  1.5862
13458TIP3   OH261788   0.724   2.647  12.338  0.0490 -0.5003 -0.1822
13458TIP3    H161789   0.726   2.743  12.335  1.3619 -0.5231 -0.4215
13458TIP3    H261790   0.762   2.625  12.423 -0.2240 -0.8129 -0.1394
13459TIP3   OH261791   1.332   2.596   1.169  0.3945 -0.0039  0.5559
13459TIP3    H161792   1.359   2.687   1.173  2.5742 -0.6100  0.4124
13459TIP3    H261793   1.264   2.588   1.236 -0.4523  1.9149 -0.0509
13460TIP3   OH261794   6.331   6.322  11.080 -0.6873  0.7750 -0.7838
13460TIP3    H161795   6.339   6.417  11.075 -0.5572  0.8005 -0.1597
13460TIP3    H261796   6.260   6.307  11.143 -0.4733  0.4570 -0.6163
13461TIP3   OH261797   0.970   0.559   0.993  0.2200  0.1982  0.3208
13461TIP3    H161798   0.949   0.532   1.082  0.9229  1.7753  0.9897
13461TIP3    H261799   0.904   0.625   0.972 -0.2823 -0.5808 -0.5335
13462TIP3   OH261800   3.072   5.782  14.688 -0.0839 -0.3807 -0.9320
13462TIP3    H161801   3.132   5.722  14.732 -1.0280 -1.6931 -1.3856
13462TIP3    H261802   2.994   5.729  14.670 -0.7401  0.8458 -1.8148
13463TIP3   OH261803   6.192   3.031  12.514 -0.4287  0.4973  0.0213
13463TIP3    H161804   6.247   3.059  12.440 -0.4529  0.2535 -0.0872
13463TIP3    H261805   6.220   2.942  12.533 -0.6031  0.4670  0.1400
13464TIP3   OH261806   4.722   1.904  16.952 -0.2413  0.5271  0.1891
13464TIP3    H161807   4.729   1.939  16.863 -0.6452 -0.5410 -0.2785
13464TIP3    H261808   4.811   1.903  16.985  0.1817 -0.9039 -0.9368
13465TIP3   OH261809   3.132   5.338  12.569 -0.2290  0.2264 -0.2597
13465TIP3    H161810   3.145   5.414  12.512  0.5938 -0.3789 -0.8936
13465TIP3    H261811   3.185   5.357  12.647  0.2373  0.1652 -0.5575
13466TIP3   OH261812   2.535   6.474   3.807  0.6335  0.3696  0.3891
13466TIP3    H161813   2.485   6.523   3.742  2.0756 -0.0771 -1.0850
13466TIP3    H261814   2.486   6.486   3.889 -1.3565  0.7031 -0.8167
13467TIP3   OH261815   1.826   5.078   1.830 -0.0510  0.1554  0.2310
13467TIP3    H161816   1.873   5.088   1.747  1.1570  0.9012  0.9865
13467TIP3    H261817   1.736   5.058   1.805  0.8849 -2.4144 -1.2571
13468TIP3   OH261818   5.812   6.691   0.815  0.2245 -0.0539  0.0467
13468TIP3    H161819   5.825   6.659   0.904  0.7756  0.0153 -0.0026
13468TIP3    H261820   5.854   6.625   0.759 -0.3692 -0.2433 -0.1829
13469TIP3   OH261821   0.646   5.020   5.164  0.1229  0.2826 -0.2437
13469TIP3    H161822   0.638   4.979   5.250  1.5165  1.1310  0.3115
13469TIP3    H261823   0.739   5.038   5.155  0.1400 -0.7870 -2.4084
13470TIP3   OH261824   5.856   0.697   3.732 -0.0247 -0.5858 -0.5806
13470TIP3    H161825   5.773   0.709   3.686  1.2446  1.7405 -2.3641
13470TIP3    H261826   5.831   0.687   3.824 -2.1466  2.4557 -0.7556
13471TIP3   OH261827   0.169   1.277   3.827 -0.2324 -0.5411  0.8554
13471TIP3    H161828   0.239   1.233   3.779  1.0851  2.3138  0.0531
13471TIP3    H261829   0.209   1.307   3.908 -0.9521 -0.2534  1.1107
13472TIP3   OH261830   5.612   4.503  12.731 -0.0508  0.1053  0.3463
13472TIP3    H161831   5.707   4.512  12.729 -0.0669  0.2798  0.3885
13472TIP3    H261832   5.594   4.429  12.672  0.0692  0.4044 -0.0637
13473TIP3   OH261833   0.962   1.444  12.451  0.5332 -0.2847  0.1883
13473TIP3    H161834   0.959   1.358  12.493  1.8950 -0.3848  0.0917
13473TIP3    H261835   1.002   1.428  12.366  1.5046  0.5771  0.4787
13474TIP3   OH261836   0.308   4.276  14.199 -0.2304 -0.0951  0.5551
13474TIP3    H161837   0.239   4.258  14.135  0.8227  0.5670 -0.7760
13474TIP3    H261838   0.385   4.230  14.165  0.5806  1.0202  0.8587
13475TIP3   OH261839   2.014   1.934  12.036 -0.3428  0.5876 -0.5753
13475TIP3    H161840   1.956   1.955  12.109 -0.5698 -1.0739 -0.2415
13475TIP3    H261841   2.075   1.870  12.072 -0.4346 -0.2122 -1.8100
13476TIP3   OH261842   6.059   5.009  11.438  0.1284 -0.3065 -0.2572
13476TIP3    H161843   6.047   4.928  11.387 -1.2964  1.5444 -2.9899
13476TIP3    H261844   6.038   5.079  11.376 -0.9031  2.0967  2.7262
13477TIP3   OH261845   0.977   5.804   3.984 -0.4081 -0.1285  0.1623
13477TIP3    H161846   0.984   5.765   4.071 -0.6334 -1.6405 -0.4663
13477TIP3    H261847   0.901   5.862   3.989 -0.2768 -0.0343  1.0398
13478TIP3   OH261848   2.779   5.742  10.922  0.4260 -0.3289 -0.9276
13478TIP3    H161849   2.707   5.719  10.981  0.6333 -0.1810 -0.6139
13478TIP3    H261850   2.736   5.773  10.843  0.1442 -0.5948 -0.8799
13479TIP3   OH261851   0.425   0.010   0.066  0.3925  0.2057 -0.2351
13479TIP3    H161852   0.502   0.054   0.033 -0.5247 -1.0427 -4.2970
13479TIP3    H261853   0.458  -0.050   0.133  2.5617  1.5491 -0.0651
13480TIP3   OH261854   3.692   4.449   4.622 -0.5183 -0.0445  0.2533
13480TIP3    H161855   3.610   4.494   4.643 -0.0227  0.9874  0.0508
13480TIP3    H261856   3.665   4.367   4.580 -1.4500 -0.3402  1.4181
13481TIP3   OH261857   0.730   3.140  12.941 -0.4157  0.2739 -0.0665
13481TIP3    H161858   0.641   3.107  12.943  0.7054 -3.0169 -1.6659
13481TIP3    H261859   0.723   3.227  12.902 -2.6747 -0.9708 -2.5767
13482TIP3   OH261860   3.869   5.729  15.818  0.1811 -0.2813 -0.3140
13482TIP3    H161861   3.946   5.781  15.796  0.0318  0.4630  0.8598
13482TIP3    H261862   3.894   5.681  15.897 -0.2671 -0.7124 -0.4293
13483TIP3   OH261863   4.303   2.172  15.336  0.1622 -0.0232 -0.3402
13483TIP3    H161864   4.359   2.178  15.258  2.2913  0.3702  1.1691
13483TIP3    H261865   4.280   2.080  15.342 -1.1478  0.1600 -2.1870
13484TIP3   OH261866   4.038   6.235  14.333 -0.5050 -0.4120 -0.1249
13484TIP3    H161867   3.950   6.218  14.298 -1.0275  0.6589  0.6316
13484TIP3    H261868   4.082   6.283  14.263 -0.0789 -2.0686 -1.0160
13485TIP3   OH261869   5.078   3.769   3.269  0.1934  0.3108  0.2624
13485TIP3    H161870   5.002   3.824   3.249 -0.6114 -0.5431  0.9022
13485TIP3    H261871   5.046   3.708   3.335  1.2569 -0.5062  0.0332
13486TIP3   OH261872   4.421   2.358   1.386  0.1697 -0.4057  0.1526
13486TIP3    H161873   4.498   2.381   1.439  1.2890 -0.1396 -1.5573
13486TIP3    H261874   4.413   2.263   1.396 -0.2143 -0.2447  1.5488
13487TIP3   OH261875   2.176   2.220  14.386 -0.9803 -0.6442 -0.2283
13487TIP3    H161876   2.156   2.252  14.474  0.9962 -1.6260  0.6273
13487TIP3    H261877   2.210   2.297  14.340 -0.1983 -0.5466  0.4976
13488TIP3   OH261878   5.554   0.818  13.438 -0.2547  0.2980 -0.0800
13488TIP3    H161879   5.531   0.749  13.501 -0.7812 -2.1739 -2.8711
13488TIP3    H261880   5.628   0.864  13.478  2.1590 -3.8860  0.5569
13489TIP3   OH261881   2.236   5.938   1.624  0.7430  0.3658  0.1553
13489TIP3    H161882   2.269   5.854   1.591  1.3608  0.6543  0.0346
13489TIP3    H261883   2.295   6.003   1.587  0.0835  0.8833  0.0108
13490TIP3   OH261884   5.701   1.401   6.237  0.5416  0.0938  0.3150
13490TIP3    H161885   5.774   1.433   6.291 -0.6043  0.4264  1.6782
13490TIP3    H261886   5.672   1.477   6.188  0.6590  0.1157  0.2787
13491TIP3   OH261887   2.664   1.533   5.250 -0.3579 -0.3315 -0.8204
13491TIP3    H161888   2.746   1.580   5.234 -0.3296 -0.3813 -0.8207
13491TIP3    H261889   2.683   1.443   5.224 -0.3021 -0.4197 -0.4733
13492TIP3   OH261890   1.054   4.549   1.332  0.3337  0.6287 -0.3837
13492TIP3    H161891   1.027   4.461   1.304  1.3733 -0.7259  2.6960
13492TIP3    H261892   0.972   4.598   1.338 -0.7285 -1.3529  1.9015
13493TIP3   OH261893   5.115   3.849  15.935  0.3833 -0.0800 -0.2068
13493TIP3    H161894   5.147   3.891  16.015  2.4055 -0.5889 -0.7302
13493TIP3    H261895   5.052   3.912  15.899 -1.1112 -0.1619  2.1253
13494TIP3   OH261896   3.432   2.010   1.613  0.2128  0.5758  0.6020
13494TIP3    H161897   3.403   2.043   1.698 -0.2115  1.8387 -0.0218
13494TIP3    H261898   3.510   2.061   1.593  1.3007 -0.9012  1.0009
13495TIP3   OH261899   2.398   0.992   5.102  0.0877  0.3741 -0.7818
13495TIP3    H161900   2.426   0.919   5.157 -0.8419  0.7695  0.2422
13495TIP3    H261901   2.479   1.038   5.079  0.5747 -0.3817 -0.5890
13496TIP3   OH261902   5.949   5.235  16.398 -0.3687  0.2351 -0.0526
13496TIP3    H161903   5.919   5.260  16.311  1.5343  0.9133 -0.5566
13496TIP3    H261904   5.884   5.272  16.458  0.1514  2.8417 -1.0176
13497TIP3   OH261905   4.174   5.389   2.989  0.0455 -0.3188  0.4317
13497TIP3    H161906   4.149   5.459   2.928  0.0990 -1.0781 -0.4591
13497TIP3    H261907   4.269   5.396   2.995 -0.1343  1.1368  2.1062
13498TIP3   OH261908   0.547   3.416   0.385 -0.1445  0.5910  0.2199
13498TIP3    H161909   0.479   3.421   0.319 -0.2412 -2.4996  0.0397
13498TIP3    H261910   0.608   3.351   0.353  0.9532  0.6160  2.1543
13499TIP3   OH261911   3.524   2.664   1.742 -0.4972 -0.0279 -0.2900
13499TIP3    H161912   3.586   2.737   1.746 -1.7286  0.9988  0.5637
13499TIP3    H261913   3.511   2.639   1.834 -1.1749 -0.3760 -0.4756
13500TIP3   OH261914   2.265   3.143   0.822 -0.3072 -0.3810 -0.2197
13500TIP3    H161915   2.209   3.211   0.857  0.6580  0.1621  0.2819
13500TIP3    H261916   2.284   3.171   0.732  0.2021  0.0886  0.0319
13501TIP3   OH261917   4.864   4.118  14.466 -0.0698  0.1444  0.3265
13501TIP3    H161918   4.894   4.038  14.424 -2.4004  0.3150 -1.8192
13501TIP3    H261919   4.869   4.185  14.397 -0.0922  1.3893  1.5013
13502TIP3   OH261920   2.025   2.904   2.618 -0.4677 -0.3524  0.3643
13502TIP3    H161921   2.023   2.987   2.571  0.7827 -0.4460  0.1286
13502TIP3    H261922   2.062   2.842   2.555 -2.2737 -1.3056  0.2039
13503TIP3   OH261923   4.022   4.843  13.953  0.1665  0.2484  0.2827
13503TIP3    H161924   4.044   4.933  13.977 -0.9105  0.0598  2.0600
13503TIP3    H261925   4.059   4.790  14.023  0.9410 -0.7341 -0.8445
13504TIP3   OH261926   0.747   1.383  15.657 -0.4301 -0.5498  0.5369
13504TIP3    H161927   0.691   1.332  15.715 -1.4810  0.3093  0.2987
13504TIP3    H261928   0.690   1.405  15.583  0.5639 -0.6542 -0.2618
13505TIP3   OH261929   6.494   4.709  14.471  0.5534  0.0477  0.3117
13505TIP3    H161930   6.501   4.614  14.480  1.8921 -0.0783 -1.6698
13505TIP3    H261931   6.581   4.742  14.492  1.0982  0.4989 -2.3896
13506TIP3   OH261932   3.332   5.803   6.631  0.1848  0.1696  0.2730
13506TIP3    H161933   3.268   5.735   6.655  0.1316 -0.4487 -1.4969
13506TIP3    H261934   3.278   5.874   6.595  0.4769 -0.2888 -1.0797
13507TIP3   OH261935   2.051   0.029  12.183  0.1525  0.1258 -0.7329
13507TIP3    H161936   2.030   0.118  12.212  0.1427 -0.2013  0.2820
13507TIP3    H261937   2.062  -0.020  12.264  0.5794 -0.7024 -1.2924
13508TIP3   OH261938   0.906   6.250  13.636  0.1944 -0.4317  0.0241
13508TIP3    H161939   0.817   6.262  13.601  0.5387  0.9600 -0.3817
13508TIP3    H261940   0.927   6.158  13.616 -0.9808 -0.6476 -0.2624
13509TIP3   OH261941   1.062   3.072  11.304 -0.3616 -0.0619  0.8495
13509TIP3    H161942   1.124   3.000  11.298 -1.5898 -1.0826  0.0386
13509TIP3    H261943   1.033   3.071  11.396 -0.8923 -1.0643  0.6842
13510TIP3   OH261944   2.638   0.970   5.723 -0.0767  0.0861  0.0201
13510TIP3    H161945   2.717   0.940   5.677 -0.3207 -0.5732  0.0267
13510TIP3    H261946   2.566   0.929   5.675 -0.6013  2.9808 -1.7737
13511TIP3   OH261947   4.686   4.748   2.879 -0.4253 -0.3234 -0.4325
13511TIP3    H161948   4.701   4.711   2.966 -0.8459 -0.8665 -0.5936
13511TIP3    H261949   4.603   4.796   2.888 -1.4476 -1.9696 -1.0489
13512TIP3   OH261950   3.402   6.387   4.463  0.5104  0.6201 -0.3607
13512TIP3    H161951   3.423   6.479   4.446  2.2924  0.0758 -1.2384
13512TIP3    H261952   3.448   6.339   4.393 -2.5434 -0.7555 -1.5198
13513TIP3   OH261953   3.316   1.184   4.013  0.1493  0.2597  0.8569
13513TIP3    H161954   3.300   1.261   4.068 -0.9805 -1.1262  2.5384
13513TIP3    H261955   3.324   1.111   4.076  0.3945 -1.1149 -0.7332
13514TIP3   OH261956   4.989   0.249   3.638 -0.5220 -0.3055  0.0499
13514TIP3    H161957   4.984   0.324   3.578 -0.4036 -0.7189 -0.4798
13514TIP3    H261958   5.082   0.240   3.657 -0.3461 -1.4000 -1.2700
13515TIP3   OH261959   3.858   6.081   1.291 -0.0799  0.4899  0.1378
13515TIP3    H161960   3.765   6.060   1.284 -0.2383  1.5064 -1.1530
13515TIP3    H261961   3.886   6.096   1.200  1.1666  0.8960  0.5719
13516TIP3   OH261962   2.186   3.757   2.049 -0.1786 -0.4673  0.8020
13516TIP3    H161963   2.275   3.727   2.066 -0.0547 -1.0413 -0.7994
13516TIP3    H261964   2.150   3.776   2.136  1.5445 -0.0939  1.4428
13517TIP3   OH261965   2.368   3.623   0.200 -0.0044 -0.2498 -0.2649
13517TIP3    H161966   2.368   3.690   0.132  2.7142 -0.4372 -0.5359
13517TIP3    H261967   2.409   3.665   0.275 -2.8302 -0.1065  1.2367
13518TIP3   OH261968   2.083   2.182   4.901  0.6184  0.8863  0.3086
13518TIP3    H161969   2.035   2.155   4.979 -0.4200  2.0668  0.0956
13518TIP3    H261970   2.136   2.106   4.878 -0.3522 -0.0661  1.1660
13519TIP3   OH261971   1.225   1.669   5.930  0.2387 -0.2171  0.0573
13519TIP3    H161972   1.286   1.639   5.997  1.8331 -0.6897 -1.5668
13519TIP3    H261973   1.195   1.589   5.887  1.3848  0.2180 -1.6142
13520TIP3   OH261974   4.888   4.876  10.731 -0.0608  0.0321  0.1490
13520TIP3    H161975   4.981   4.858  10.714 -0.4802 -1.6578 -0.3946
13520TIP3    H261976   4.889   4.938  10.804  1.4858 -0.4349  0.5471
13521TIP3   OH261977   6.602   4.661   6.226 -0.3474 -0.0866 -0.4359
13521TIP3    H161978   6.546   4.667   6.303 -4.4387  1.5676 -3.3946
13521TIP3    H261979   6.642   4.747   6.218 -1.1986  0.2612 -1.0396
13522TIP3   OH261980   4.025   0.911  13.857  0.5200 -0.1905  0.0214
13522TIP3    H161981   3.977   0.852  13.915  2.8761 -0.3405  1.8962
13522TIP3    H261982   4.028   0.994  13.904  1.9433 -0.1387 -0.1569
13523TIP3   OH261983   3.037   5.324   6.313 -0.1151  0.5924 -0.0774
13523TIP3    H161984   3.078   5.255   6.366  1.0378  1.3452  0.0359
13523TIP3    H261985   2.944   5.318   6.332  0.1496 -0.0065  1.0253
13524TIP3   OH261986   2.492   3.252  13.981  0.2738  0.7969  0.4436
13524TIP3    H161987   2.470   3.224  13.892  1.7975  1.5163 -0.1742
13524TIP3    H261988   2.409   3.281  14.018 -0.5016 -0.1695 -0.5020
13525TIP3   OH261989   0.329   0.551  13.523 -0.0604  0.5159 -0.2172
13525TIP3    H161990   0.346   0.510  13.608 -2.3202 -0.5247 -0.2200
13525TIP3    H261991   0.357   0.642  13.535 -0.0335  0.3034  1.5349
13526TIP3   OH261992   1.512   4.395   4.601 -0.0113  1.2846  0.3527
13526TIP3    H161993   1.520   4.300   4.611 -3.2594  1.0573  1.4449
13526TIP3    H261994   1.489   4.426   4.689 -0.1675  2.9352 -0.2602
13527TIP3   OH261995   1.519   5.764  16.520  0.0198  0.1484  0.6693
13527TIP3    H161996   1.461   5.701  16.477 -1.9231  1.0129  1.9241
13527TIP3    H261997   1.604   5.752  16.478 -0.3911 -3.0621  0.6383
13528TIP3   OH261998   6.113   3.336  13.807  0.3699 -0.0136  0.5604
13528TIP3    H161999   6.017   3.337  13.809  0.3796  2.6173  1.1997
13528TIP3    H262000   6.137   3.261  13.861 -1.3135 -1.2402 -0.3198
13529TIP3   OH262001   0.924   6.558  16.602  0.2800 -0.1230  0.6280
13529TIP3    H162002   0.853   6.541  16.664 -0.4805 -0.4346 -0.3168
13529TIP3    H262003   0.969   6.475  16.593 -3.2926 -1.7416 -3.8077
13530TIP3   OH262004   2.132   2.862  15.155 -0.5405  0.3618 -0.1357
13530TIP3    H162005   2.191   2.818  15.216 -2.1785 -2.1978 -0.3445
13530TIP3    H262006   2.190   2.915  15.100  1.3351 -0.4238  1.0333
13531TIP3   OH262007   5.504   1.955   1.457  0.0964  0.3683 -0.6418
13531TIP3    H162008   5.528   1.881   1.512  1.9995  1.8456  0.5820
13531TIP3    H262009   5.409   1.947   1.446  0.0615 -1.3822  0.7368
13532TIP3   OH262010   1.207   4.507   0.443  0.5899  0.2978  0.2888
13532TIP3    H162011   1.147   4.581   0.455  2.4519  1.6508  1.5651
13532TIP3    H262012   1.294   4.547   0.440  1.4710 -1.6313 -1.4236
13533TIP3   OH262013   4.878   3.842  12.142  0.2329 -0.2946 -0.0164
13533TIP3    H162014   4.811   3.812  12.202  0.4972 -0.5292  0.1642
13533TIP3    H262015   4.918   3.918  12.184 -1.2965  1.1136 -1.0475
13534TIP3   OH262016   0.271   3.245   4.471 -0.2369 -0.1722  0.4420
13534TIP3    H162017   0.264   3.161   4.516 -1.3440 -0.9207 -1.0815
13534TIP3    H262018   0.249   3.310   4.537  0.7737 -1.0653  1.6771
13535TIP3   OH262019   6.216   1.505   0.769 -0.1515 -0.0998 -0.0093
13535TIP3    H162020   6.162   1.468   0.838  0.4952  0.9154  1.0540
13535TIP3    H262021   6.209   1.600   0.780  1.1814  0.0592 -0.3482
13536TIP3   OH262022   3.455   4.648  13.301  0.7758 -0.1522 -0.1225
13536TIP3    H162023   3.464   4.742  13.320  1.4848 -0.1368 -0.5190
13536TIP3    H262024   3.487   4.639  13.212 -1.5759 -0.3916 -0.9608
13537TIP3   OH262025   1.318   0.385   3.382 -0.5224 -0.4007 -0.2056
13537TIP3    H162026   1.228   0.386   3.417 -0.5331 -0.6180 -0.2233
13537TIP3    H262027   1.367   0.333   3.446 -0.2522  0.3258  0.1821
13538TIP3   OH262028   5.180   2.325  12.947 -0.0809  0.2630  0.2183
13538TIP3    H162029   5.256   2.296  12.898  0.0310 -1.3370  1.3005
13538TIP3    H262030   5.106   2.309  12.888  0.2125 -0.1643 -0.0399
13539TIP3   OH262031   2.148   5.837   4.106 -0.7658 -0.0484  0.0678
13539TIP3    H162032   2.224   5.881   4.068  2.1296 -1.9686  3.3598
13539TIP3    H262033   2.107   5.903   4.161 -0.2119  0.4293 -0.0865
13540TIP3   OH262034   5.966   3.587  14.284 -0.5430 -0.2118  0.3227
13540TIP3    H162035   5.949   3.680  14.297  0.5351  0.0335  0.0272
13540TIP3    H262036   5.928   3.545  14.361  0.8992  0.6852  1.5546
13541TIP3   OH262037   4.557   4.351   2.611  0.2361  0.0624 -0.3793
13541TIP3    H162038   4.548   4.439   2.575  0.5109  0.1141 -0.3191
13541TIP3    H262039   4.477   4.306   2.584 -0.6242  0.8027  0.9408
13542TIP3   OH262040   2.845   3.849   6.777  0.0054  0.1393 -0.0268
13542TIP3    H162041   2.820   3.780   6.838  1.9389 -1.1961 -0.6921
13542TIP3    H262042   2.860   3.803   6.694  2.7161  1.0923 -0.1213
13543TIP3   OH262043   5.340   2.773  10.321  0.3725 -0.3758 -0.4979
13543TIP3    H162044   5.353   2.860  10.282 -0.4634  0.1093  0.2812
13543TIP3    H262045   5.366   2.784  10.413 -1.3450 -0.4983  0.0139
13544TIP3   OH262046   6.674   3.928  15.648  0.1472 -0.4975 -0.3971
13544TIP3    H162047   6.667   4.023  15.643 -0.0660 -0.3896  1.4098
13544TIP3    H262048   6.765   3.913  15.674  0.4861 -0.8441 -1.7616
13545TIP3   OH262049   5.609   6.042  11.672 -0.6666  0.3808 -0.1182
13545TIP3    H162050   5.528   5.990  11.666 -0.4556 -0.0998  1.1576
13545TIP3    H262051   5.665   6.006  11.603 -0.3055 -1.5065  1.1017
13546TIP3   OH262052   1.918   3.562  16.755 -0.1906 -0.4637  0.1562
13546TIP3    H162053   1.939   3.470  16.774  0.9162 -0.5915 -1.5925
13546TIP3    H262054   1.998   3.598  16.718 -0.6995  1.1571  0.5853
13547TIP3   OH262055   5.572   3.486   6.080 -0.4201  0.1362 -0.1469
13547TIP3    H162056   5.499   3.439   6.040 -1.0512  0.6182  0.4245
13547TIP3    H262057   5.544   3.578   6.079 -0.0218  0.2647  0.5075
13548TIP3   OH262058   0.074   1.670  11.978  0.2754 -0.0438  0.1423
13548TIP3    H162059   0.025   1.715  12.047 -1.5437 -1.5036 -0.1611
13548TIP3    H262060   0.087   1.737  11.910  0.0159  0.7618  0.8798
13549TIP3   OH262061   4.652   1.289  16.801 -0.4168 -1.0756 -0.7128
13549TIP3    H162062   4.646   1.383  16.819 -0.0991 -0.8030 -1.9532
13549TIP3    H262063   4.570   1.267  16.758  0.2662 -0.9512 -2.1331
13550TIP3   OH262064   3.542   5.986   5.130  0.4317 -0.2521 -0.3200
13550TIP3    H162065   3.577   5.923   5.193 -1.7734 -0.1053  1.0905
13550TIP3    H262066   3.576   6.070   5.158  0.7530 -0.3900 -0.2921
13551TIP3   OH262067   1.196   2.217  15.891 -0.1889 -0.1100  0.2756
13551TIP3    H162068   1.207   2.257  15.804  0.2085 -0.7128  0.0445
13551TIP3    H262069   1.282   2.182  15.912 -0.2524  0.1418  0.9786
13552TIP3   OH262070   5.484   0.773   0.966  0.4084 -0.2389  0.4331
13552TIP3    H162071   5.499   0.813   0.880 -0.7186  0.5227  0.5911
13552TIP3    H262072   5.499   0.679   0.951 -0.3355 -0.1831 -0.7335
13553TIP3   OH262073   5.283   6.085  15.670  0.4008  0.1223  0.3809
13553TIP3    H162074   5.287   6.176  15.640 -0.1849 -0.1199 -0.4672
13553TIP3    H262075   5.192   6.074  15.698  0.0671 -0.6271 -0.9401
13554TIP3   OH262076   1.260   2.723  16.081  0.1921  0.3308  0.4484
13554TIP3    H162077   1.233   2.774  16.157 -0.8005 -0.2031  0.4612
13554TIP3    H262078   1.197   2.744  16.013  0.1921 -0.3331  0.2351
13555TIP3   OH262079   2.927   0.806   3.659 -0.3373  0.2494  0.1321
13555TIP3    H162080   3.020   0.786   3.666 -0.3848 -0.0686 -0.1328
13555TIP3    H262081   2.886   0.757   3.730 -0.5244 -1.0750 -0.8641
13556TIP3   OH262082   3.396   1.538  16.083 -0.4124  0.7084  0.1963
13556TIP3    H162083   3.346   1.463  16.113 -1.4129  1.6686  0.9748
13556TIP3    H262084   3.358   1.560  15.998  0.0042  0.2409 -0.1200
13557TIP3   OH262085   1.356   6.192  16.005  0.1415 -0.4026 -0.2433
13557TIP3    H162086   1.414   6.167  15.933  1.4386 -2.1834  1.3700
13557TIP3    H262087   1.282   6.131  15.998  0.4954 -0.8898  0.1916
13558TIP3   OH262088   1.056   5.606   3.077  0.0566  0.1144  0.1011
13558TIP3    H162089   0.998   5.609   3.001  0.5284 -0.3877 -0.2737
13558TIP3    H262090   1.138   5.569   3.045 -0.2894 -1.6550  1.2173
13559TIP3   OH262091   2.487   1.669  12.897  0.3509 -0.1676 -0.4696
13559TIP3    H162092   2.447   1.689  12.812  0.6235 -1.0634 -0.8126
13559TIP3    H262093   2.571   1.630  12.875  0.9712  0.7617  0.2399
13560TIP3   OH262094   1.336   3.747  16.009 -0.2115 -0.1060  0.1746
13560TIP3    H162095   1.337   3.834  15.970  1.8510  0.4769  1.4080
13560TIP3    H262096   1.251   3.740  16.052 -0.1436  1.5722  0.6128
13561TIP3   OH262097   4.895   2.265   1.611 -0.2261 -0.3533  0.4286
13561TIP3    H162098   4.828   2.325   1.578  0.7590  0.5167 -0.0137
13561TIP3    H262099   4.869   2.247   1.701 -0.4634  0.8569  0.6082
13562TIP3   OH262100   3.463   6.354  13.772 -0.2547  0.5538 -0.3047
13562TIP3    H162101   3.528   6.333  13.706 -0.5756  1.6832 -0.9994
13562TIP3    H262102   3.445   6.271  13.817 -0.4469 -0.3351 -2.0073
13563TIP3   OH262103   1.136   1.268   2.665  0.0274  0.4258  0.3910
13563TIP3    H162104   1.096   1.299   2.746 -1.0817  0.4200 -0.1518
13563TIP3    H262105   1.075   1.203   2.631  0.6540  0.1806 -0.2781
13564TIP3   OH262106   2.712   3.509   1.673 -0.0319  0.0830  0.3740
13564TIP3    H162107   2.749   3.429   1.637 -0.6277  0.2841 -0.6899
13564TIP3    H262108   2.630   3.481   1.715 -1.6486  0.5189 -2.3657
13565TIP3   OH262109   2.091   3.076  12.905  0.6996  0.1543  0.1411
13565TIP3    H162110   2.139   3.027  12.972  0.0533  0.9676  1.2225
13565TIP3    H262111   2.077   3.013  12.835  2.3583 -0.4001  0.2881
13566TIP3   OH262112   4.411   3.231   5.187 -0.2907  0.4176 -0.1822
13566TIP3    H162113   4.374   3.144   5.204 -1.0434  0.6895 -0.4161
13566TIP3    H262114   4.412   3.274   5.272 -2.7477  1.2703 -0.5531
13567TIP3   OH262115   0.147   4.109  14.380  0.0583 -0.0579 -0.5634
13567TIP3    H162116   0.218   4.052  14.410  1.5891  0.7361 -2.4945
13567TIP3    H262117   0.187   4.161  14.310 -2.0168  1.5481 -0.6011
13568TIP3   OH262118   2.740   4.161  14.552 -1.0909 -0.2965 -0.0954
13568TIP3    H162119   2.667   4.137  14.610 -0.8484  0.6659  0.6157
13568TIP3    H262120   2.817   4.121  14.593 -0.9062  0.4575  0.2911
13569TIP3   OH262121   0.297   4.892  13.111  0.2918 -0.4447  0.7523
13569TIP3    H162122   0.371   4.936  13.152  2.2461 -0.8345 -2.2072
13569TIP3    H262123   0.295   4.805  13.151  1.2790 -0.3420  1.0245
13570TIP3   OH262124   2.988   6.237  12.877  0.3540 -0.2819 -0.0498
13570TIP3    H162125   3.021   6.289  12.950  1.3585 -1.7731  0.5710
13570TIP3    H262126   2.897   6.220  12.898  0.5003 -0.2578  0.6062
13571TIP3   OH262127   2.844   6.339  13.161 -0.6984 -0.0964  0.2541
13571TIP3    H162128   2.825   6.248  13.184  2.2314 -0.3821  1.8897
13571TIP3    H262129   2.762   6.385  13.174 -2.5012 -2.6590 -1.5660
13572TIP3   OH262130   6.244   5.888  11.235 -0.6051 -0.3488 -0.1611
13572TIP3    H162131   6.203   5.955  11.290 -1.3848 -0.2332 -0.8725
13572TIP3    H262132   6.274   5.936  11.157  1.1818 -0.3786  0.5033
13573TIP3   OH262133   3.926   0.518   6.466 -0.2869 -0.2332  0.7756
13573TIP3    H162134   3.915   0.422   6.467  0.9371 -0.3690  1.4076
13573TIP3    H262135   3.894   0.544   6.379  0.9455 -1.4118 -0.0455
13574TIP3   OH262136   2.786   3.834  11.187 -0.3744 -0.1159 -0.7995
13574TIP3    H162137   2.699   3.874  11.191  0.5883  1.9943 -0.2300
13574TIP3    H262138   2.829   3.877  11.113  0.7324  0.0101 -0.0991
13575TIP3   OH262139   6.778   4.396   0.082  0.1181 -0.0835  0.7365
13575TIP3    H162140   6.701   4.410   0.028  1.1740 -0.2689 -0.8581
13575TIP3    H262141   6.852   4.399   0.021  1.6423  2.9577  2.5846
13576TIP3   OH262142   0.963   2.410   0.717 -0.4166 -0.5377  0.0222
13576TIP3    H162143   1.057   2.414   0.699 -0.8353 -1.2258 -2.5212
13576TIP3    H262144   0.949   2.323   0.755 -0.3234 -1.2293 -1.5131
13577TIP3   OH262145   1.622   3.634  15.023  0.5609  0.0972 -0.5785
13577TIP3    H162146   1.616   3.730  15.024  0.9342  0.1074  0.7727
13577TIP3    H262147   1.695   3.616  14.964  0.4413  0.6364 -0.8980
13578TIP3   OH262148   6.719   0.071   2.239  0.2327 -0.1436  0.1363
13578TIP3    H162149   6.695   0.059   2.330  0.0372 -1.9415 -0.1472
13578TIP3    H262150   6.638   0.058   2.190  0.3543  0.7196 -0.3176
13579TIP3   OH262151   6.579   4.970   4.020  0.5247  0.0126 -0.5250
13579TIP3    H162152   6.653   4.934   3.971 -0.4632 -1.6002 -0.8817
13579TIP3    H262153   6.508   4.974   3.955 -0.6380 -1.5897  0.6080
13580TIP3   OH262154   4.531   2.083  17.024 -0.1010 -0.2512  0.0571
13580TIP3    H162155   4.607   2.025  17.011 -1.3284 -2.2883  1.6838
13580TIP3    H262156   4.544   2.153  16.960  3.0875 -0.6116  0.1876
13581TIP3   OH262157   6.473   1.736   1.092  0.2637 -0.5772  0.4678
13581TIP3    H162158   6.461   1.758   1.000 -0.6842  0.0282  0.7307
13581TIP3    H262159   6.389   1.699   1.119  0.8210 -1.5607  0.8627
13582TIP3   OH262160   6.166   5.114  15.482  0.0697 -0.1905 -0.1206
13582TIP3    H162161   6.126   5.185  15.533 -1.2661 -0.7700 -0.3560
13582TIP3    H262162   6.204   5.056  15.547  3.5027  2.0411  0.0303
13583TIP3   OH262163   6.706   1.008   2.026  0.1685  0.3562  0.1373
13583TIP3    H162164   6.713   1.080   1.964 -0.0893  0.8627  0.6938
13583TIP3    H262165   6.767   0.942   1.993  3.3003  2.3370  1.6802
13584TIP3   OH262166   4.560   2.945  15.432 -0.7468 -0.4937  0.0431
13584TIP3    H162167   4.512   2.937  15.349  0.6244  2.2976 -1.0889
13584TIP3    H262168   4.587   3.036  15.435 -0.5394 -0.6173  3.4939
13585TIP3   OH262169   2.355   3.683   2.628  0.8054  0.1256  0.1038
13585TIP3    H162170   2.328   3.683   2.536  1.7419 -0.5131 -0.1790
13585TIP3    H262171   2.451   3.689   2.625  0.9195 -1.1186  1.0062
13586TIP3   OH262172   1.495   6.356   2.470 -0.5134  0.1716  0.5039
13586TIP3    H162173   1.476   6.387   2.382  1.0078  2.6331  0.9885
13586TIP3    H262174   1.590   6.361   2.478 -0.5537 -0.9983  1.9386
13587TIP3   OH262175   5.406   4.972   5.040 -0.0634  0.3265 -0.2597
13587TIP3    H162176   5.409   5.020   4.957  2.1495  1.2887  0.3506
13587TIP3    H262177   5.399   5.039   5.107  0.3211 -0.3340  0.4513
13588TIP3   OH262178   5.340   1.084   4.630 -0.2375  0.5681  0.2558
13588TIP3    H162179   5.407   1.149   4.653  0.9706 -0.7307  0.4545
13588TIP3    H262180   5.270   1.099   4.693  1.2872 -0.2369  2.1757
13589TIP3   OH262181   1.992   3.388  11.936 -0.3682 -0.4636  0.5842
13589TIP3    H162182   2.023   3.383  12.026  2.2322  0.9984 -0.1713
13589TIP3    H262183   1.990   3.298  11.905 -1.1486 -0.9545  2.0355
13590TIP3   OH262184   1.652   4.921  16.857  0.2984  0.2921  0.1326
13590TIP3    H162185   1.696   4.840  16.882  2.7498  1.2420 -0.9152
13590TIP3    H262186   1.562   4.895  16.841  0.8360 -2.0591  0.6608
13591TIP3   OH262187   6.261   2.173  12.771 -0.4027  0.2763 -0.0724
13591TIP3    H162188   6.329   2.125  12.724 -0.2768 -2.2994  2.5429
13591TIP3    H262189   6.299   2.259  12.786  2.9845 -1.5309  2.5603
13592TIP3   OH262190   1.375   2.672  15.742 -0.5306 -0.2022 -0.3070
13592TIP3    H162191   1.399   2.750  15.691 -1.8860  0.5749  0.2327
13592TIP3    H262192   1.291   2.694  15.782 -1.2495 -2.1851 -0.6587
13593TIP3   OH262193   4.569   0.160   2.461 -0.2509 -0.2072  0.1882
13593TIP3    H162194   4.613   0.205   2.533 -1.0729  0.5875  0.2022
13593TIP3    H262195   4.594   0.210   2.383 -0.0191 -0.5764  0.0267
13594TIP3   OH262196   1.600   0.178   2.697 -0.4824 -0.1793  0.2183
13594TIP3    H162197   1.652   0.156   2.620 -0.7039  0.2047 -0.0452
13594TIP3    H262198   1.609   0.272   2.706  0.0057 -0.3018  1.0090
13595TIP3   OH262199   4.440   1.500   4.304  0.6089  0.1564  0.0857
13595TIP3    H162200   4.524   1.522   4.263  1.3462 -0.5265  1.2060
13595TIP3    H262201   4.407   1.426   4.252  0.4242  0.7945 -0.7080
13596TIP3   OH262202   4.949   4.815   2.383  0.4700 -0.1057  0.0682
13596TIP3    H162203   4.895   4.741   2.410  1.0068 -0.7795 -0.6989
13596TIP3    H262204   5.036   4.795   2.418  0.3273  0.7931  0.9706
13597TIP3   OH262205   3.503   6.048   0.439  0.5024 -0.3847  0.5101
13597TIP3    H162206   3.480   6.106   0.367 -0.6876 -2.1604 -0.5682
13597TIP3    H262207   3.429   5.988   0.446  1.6387 -1.6873  1.7000
13598TIP3   OH262208   3.344   4.888   4.571 -1.1434  0.0693 -0.4868
13598TIP3    H162209   3.363   4.912   4.481  0.3801 -1.9217 -0.7351
13598TIP3    H262210   3.284   4.814   4.564  2.7736 -3.3152 -0.0693
13599TIP3   OH262211   1.727   4.460   2.635  0.7153 -0.7303  0.1342
13599TIP3    H162212   1.728   4.404   2.712  1.2383 -0.1205  0.5768
13599TIP3    H262213   1.747   4.548   2.669 -0.6148 -0.1708 -0.4614
13600TIP3   OH262214   1.609   1.390   1.640  0.5905  0.1584  0.5472
13600TIP3    H162215   1.642   1.323   1.579  1.6258  0.5326  0.7036
13600TIP3    H262216   1.563   1.339   1.707 -0.6362 -0.2587 -0.5762
13601TIP3   OH262217   4.083   0.237   0.124 -0.0004 -0.2079 -0.1153
13601TIP3    H162218   4.050   0.227   0.213  0.5402 -2.0625 -0.0946
13601TIP3    H262219   4.160   0.293   0.133  0.9513 -1.6331  0.8192
13602TIP3   OH262220   4.232   3.379   5.059 -0.0277 -0.1300 -0.7489
13602TIP3    H162221   4.305   3.347   5.112 -1.3615 -0.7511  0.7443
13602TIP3    H262222   4.161   3.317   5.077 -1.3969  1.3609 -0.9970
13603TIP3   OH262223   5.259   3.806  14.242  0.1038  0.1823  0.3208
13603TIP3    H162224   5.195   3.797  14.312 -1.0179  0.8062 -0.6113
13603TIP3    H262225   5.326   3.741  14.262 -1.6189 -1.6000  0.4251
13604TIP3   OH262226   1.670   0.130  16.331  0.0836 -0.0490 -0.5739
13604TIP3    H162227   1.619   0.051  16.312 -0.6429  0.5953 -1.3188
13604TIP3    H262228   1.735   0.101  16.396 -1.0338 -0.9342  0.1716
13605TIP3   OH262229   4.759   6.328  12.064  0.0907 -0.5863 -0.1650
13605TIP3    H162230   4.752   6.254  12.124  0.6775 -1.7552 -1.5251
13605TIP3    H262231   4.685   6.318  12.005  1.7761 -1.7064 -2.1286
13606TIP3   OH262232   6.216   4.957   3.030  0.0244 -0.5397 -0.2755
13606TIP3    H162233   6.155   5.029   3.018 -0.9816 -1.0247  1.8173
13606TIP3    H262234   6.287   4.994   3.082  0.8969 -0.3370 -1.5792
13607TIP3   OH262235   3.713   3.474  15.148 -0.5325  0.3316  0.1697
13607TIP3    H162236   3.724   3.539  15.217 -0.1396  1.6385 -1.0912
13607TIP3    H262237   3.643   3.509  15.093 -1.3138 -1.0317  0.2680
13608TIP3   OH262238   0.831   2.605   2.486 -0.4252 -0.2230 -0.3187
13608TIP3    H162239   0.815   2.577   2.576 -2.1383  1.8883  0.0938
13608TIP3    H262240   0.877   2.531   2.445 -1.0320 -1.8459  1.8321
13609TIP3   OH262241   3.471   6.696   1.209  0.4188  0.0257  0.4903
13609TIP3    H162242   3.429   6.698   1.123  2.1452  1.2436 -0.3564
13609TIP3    H262243   3.399   6.682   1.271 -0.7928 -1.2145 -1.1667
13610TIP3   OH262244   0.434   2.093   1.194  0.0655 -0.0168  0.0917
13610TIP3    H162245   0.381   2.130   1.123  1.1874 -1.7897 -1.7287
13610TIP3    H262246   0.398   2.005   1.207  0.0618  0.1835  1.5461
13611TIP3   OH262247   4.808   1.949  15.173 -0.0984 -0.1231 -0.4885
13611TIP3    H162248   4.870   1.969  15.243  0.1613 -2.6200  0.0411
13611TIP3    H262249   4.839   2.001  15.098  1.5827  0.0068  0.2785
13612TIP3   OH262250   4.818   5.505   5.758 -0.3017  0.3139 -0.6913
13612TIP3    H162251   4.787   5.582   5.710 -0.3303 -0.2385 -1.5832
13612TIP3    H262252   4.824   5.437   5.691 -0.7078 -0.5795  0.1709
13613TIP3   OH262253   0.448   0.104  14.669  0.3323  0.0758  0.2718
13613TIP3    H162254   0.467   0.017  14.705  3.0220  0.0705 -1.0373
13613TIP3    H262255   0.415   0.087  14.581 -0.8289  0.3324  0.6470
13614TIP3   OH262256   5.219   6.267   0.483  0.2555  0.1052  0.4565
13614TIP3    H162257   5.143   6.287   0.430 -0.0934 -0.9082  0.5680
13614TIP3    H262258   5.227   6.341   0.543  1.1795  1.7031 -1.5609
13615TIP3   OH262259   5.282   0.213  14.360  0.0544  0.6900  0.0918
13615TIP3    H162260   5.277   0.296  14.406  0.8291 -0.2198  1.8692
13615TIP3    H262261   5.235   0.151  14.416 -0.8729  0.0109 -1.4082
13616TIP3   OH262262   3.424   0.168  12.542  0.0178 -0.3368 -0.1402
13616TIP3    H162263   3.495   0.104  12.535 -0.6920 -1.2833  1.1856
13616TIP3    H262264   3.355   0.123  12.591 -0.4266  1.4871  0.9570
13617TIP3   OH262265   0.710   3.483   0.967 -0.7296  0.0949 -0.0979
13617TIP3    H162266   0.746   3.462   1.054 -0.9403 -0.0616 -0.0502
13617TIP3    H262267   0.703   3.399   0.923  0.7612  0.3230 -0.8051
13618TIP3   OH262268   1.735   0.753   0.054  0.0846 -0.7071  0.4238
13618TIP3    H162269   1.798   0.702   0.002 -0.4354 -2.5883  1.5733
13618TIP3    H262270   1.706   0.822  -0.005  4.0738  0.9330  0.2036
13619TIP3   OH262271   1.099   1.490  15.032 -0.4740 -0.0969  0.3668
13619TIP3    H162272   1.163   1.557  15.053  0.5589 -0.5194 -1.3615
13619TIP3    H262273   1.080   1.448  15.116  1.5302  0.0172  0.8977
13620TIP3   OH262274   4.207   4.037  13.214 -0.1744  0.3693 -0.3357
13620TIP3    H162275   4.199   4.130  13.236 -1.4169  0.1889  0.0316
13620TIP3    H262276   4.272   4.003  13.275  1.3314  1.2794 -1.3879
13621TIP3   OH262277   3.760   5.633   0.228  0.1360  0.2475  0.0651
13621TIP3    H162278   3.706   5.565   0.269 -0.0796  1.0971  1.2338
13621TIP3    H262279   3.703   5.710   0.224 -0.0395  0.0118 -2.4332
13622TIP3   OH262280   6.499   5.992  13.001  0.1070  0.7540  0.0255
13622TIP3    H162281   6.551   6.002  12.921  0.0020  2.7611  0.1880
13622TIP3    H262282   6.555   5.940  13.059  1.9294  2.7842  0.1532
13623TIP3   OH262283   2.982   0.387  13.780  0.2592 -0.2181 -0.5376
13623TIP3    H162284   3.063   0.415  13.822  0.5192 -0.1696 -1.0676
13623TIP3    H262285   3.001   0.390  13.686 -0.3321 -0.2733 -0.6635
13624TIP3   OH262286   3.573   1.228  14.887 -0.1166 -0.3240  0.3294
13624TIP3    H162287   3.556   1.192  14.800  0.3450  0.2364  0.0031
13624TIP3    H262288   3.639   1.170  14.924 -1.0800 -1.1826  0.7219
13625TIP3   OH262289   4.978   2.036   4.371  0.1606  0.2288 -0.1315
13625TIP3    H162290   4.923   2.049   4.294  0.3251 -1.6842 -0.5962
13625TIP3    H262291   4.927   1.979   4.429  0.2131  1.2999  0.9840
13626TIP3   OH262292   3.422   5.473  11.863 -0.2908  0.5267 -0.9041
13626TIP3    H162293   3.441   5.565  11.845 -1.1001  0.3730 -2.6541
13626TIP3    H262294   3.441   5.428  11.781 -2.0397 -0.5330 -0.7506
13627TIP3   OH262295   5.932   3.021   4.577 -0.5337  0.5273  0.2033
13627TIP3    H162296   5.898   2.973   4.652  0.2025  0.0122  0.2087
13627TIP3    H262297   6.022   2.989   4.566 -1.5201 -1.4363 -2.6278
13628TIP3   OH262298   6.631   0.073  15.809 -0.3610 -0.3253  0.0462
13628TIP3    H162299   6.725   0.055  15.807 -0.2378  0.3964 -0.6505
13628TIP3    H262300   6.617   0.135  15.737 -1.2904 -0.0788  0.4394
13629TIP3   OH262301   6.352   1.950   4.464 -0.2124 -0.1881 -0.5201
13629TIP3    H162302   6.387   2.034   4.433  2.8316 -0.9222  0.7717
13629TIP3    H262303   6.424   1.889   4.453 -1.6787 -2.1816  0.6466
13630TIP3   OH262304   4.325   5.845  13.461  0.3984 -0.1314  0.1501
13630TIP3    H162305   4.407   5.836  13.510  0.4524 -1.3766 -0.1650
13630TIP3    H262306   4.350   5.833  13.370  0.0755  0.8681 -0.0811
13631TIP3   OH262307   2.934   1.933  14.839  0.0527  0.1838  0.0522
13631TIP3    H162308   3.003   1.916  14.776 -1.1721  0.2430 -1.3515
13631TIP3    H262309   2.935   2.028  14.851 -0.7208  0.3499 -1.0966
13632TIP3   OH262310   5.463   5.674   0.621 -0.7303 -0.1718 -0.1238
13632TIP3    H162311   5.492   5.671   0.529 -0.5506 -1.0674 -0.0396
13632TIP3    H262312   5.380   5.721   0.618 -0.4731  0.2594 -0.6808
13633TIP3   OH262313   1.841   4.487  14.680 -0.1127  0.2344 -0.4118
13633TIP3    H162314   1.933   4.496  14.706  0.1980  0.1770 -1.4636
13633TIP3    H262315   1.830   4.551  14.609 -0.9016  0.2905 -0.2435
13634TIP3   OH262316   3.630   1.398  13.038 -0.1630 -0.1928 -0.1806
13634TIP3    H162317   3.575   1.449  12.979  0.1599  1.2165  0.7201
13634TIP3    H262318   3.672   1.333  12.982 -1.2317 -0.0183 -1.1931
13635TIP3   OH262319   6.780   4.895   4.259  0.5901 -0.6604 -0.2586
13635TIP3    H162320   6.729   4.848   4.325  0.0224 -1.3872 -1.1946
13635TIP3    H262321   6.715   4.928   4.197  1.1175 -0.0053 -0.4748
13636TIP3   OH262322   4.258   1.699   5.889 -0.4294 -0.1538  0.2509
13636TIP3    H162323   4.194   1.681   5.820  0.4214 -1.1961 -0.2866
13636TIP3    H262324   4.205   1.725   5.965 -1.3561  1.4537 -0.9133
13637TIP3   OH262325   6.253   5.203   3.817 -0.4055 -0.0107 -0.2977
13637TIP3    H162326   6.259   5.120   3.768  1.0925 -0.8092  1.1680
13637TIP3    H262327   6.178   5.192   3.875 -0.4400 -0.2079 -0.3809
13638TIP3   OH262328   3.065   6.504   0.550 -0.2505 -0.3161  0.0481
13638TIP3    H162329   3.069   6.595   0.521  0.6561  0.3899  2.2922
13638TIP3    H262330   3.010   6.460   0.485 -0.5529  1.7973 -1.1474
13639TIP3   OH262331   5.471   4.282  14.239 -0.1196 -0.2561 -0.1000
13639TIP3    H162332   5.548   4.305  14.292  0.3564 -0.1948 -0.8091
13639TIP3    H262333   5.397   4.316  14.288  0.3310 -0.0887  0.4660
13640TIP3   OH262334   0.059   2.619  12.881  0.1041  0.9340 -0.5572
13640TIP3    H162335   0.056   2.640  12.788 -0.3472 -0.5067 -0.8680
13640TIP3    H262336  -0.010   2.673  12.920  0.0283  1.2431 -1.1193
13641TIP3   OH262337   0.998   2.159  11.476 -0.3347  0.0574 -0.3519
13641TIP3    H162338   1.021   2.139  11.385  1.2117  0.5480 -0.0817
13641TIP3    H262339   0.973   2.251  11.475 -3.5389 -0.7341 -0.8498
13642TIP3   OH262340   5.072   1.725  14.649 -0.4751  0.5937 -0.2981
13642TIP3    H162341   5.000   1.725  14.712 -0.5931 -2.6144 -0.3632
13642TIP3    H262342   5.140   1.778  14.690 -0.3788 -1.7861  2.8112
13643TIP3   OH262343   6.585   3.426   1.849  0.1874 -0.4753  0.0451
13643TIP3    H162344   6.584   3.522   1.849  0.7966 -0.4663 -0.4021
13643TIP3    H262345   6.669   3.403   1.809 -0.1171 -1.1970 -0.1795
13644TIP3   OH262346   2.885   3.598   5.470  0.0863 -0.1631 -0.2501
13644TIP3    H162347   2.874   3.645   5.387  0.9825 -2.1645 -1.5211
13644TIP3    H262348   2.853   3.510   5.453  0.9741 -0.8124  1.3374
13645TIP3   OH262349   0.646   0.399   3.560  0.0733 -1.2128 -0.0796
13645TIP3    H162350   0.564   0.352   3.546 -1.0267  0.8404 -0.6890
13645TIP3    H262351   0.696   0.384   3.480 -0.1915 -1.4626 -0.2029
13646TIP3   OH262352   2.005   0.872  12.587 -0.4989  0.5098  0.0396
13646TIP3    H162353   1.911   0.856  12.584 -0.5584  0.4583  1.7322
13646TIP3    H262354   2.039   0.809  12.650  0.9101 -0.4526 -1.6174
13647TIP3   OH262355   5.484   5.559  13.018 -0.2511  0.8332  0.4027
13647TIP3    H162356   5.509   5.587  12.929 -1.3259  1.2651  0.2374
13647TIP3    H262357   5.568   5.542  13.061  0.2630 -0.2782 -0.9776
13648TIP3   OH262358   6.389   5.341  16.085  0.3388  0.0900 -0.0774
13648TIP3    H162359   6.446   5.293  16.145 -0.8521  0.4517  1.3937
13648TIP3    H262360   6.359   5.416  16.136 -0.2566  0.7134 -1.3247
13649TIP3   OH262361   2.134   5.031   1.148  0.1139  0.5288 -0.2359
13649TIP3    H162362   2.169   5.014   1.236  0.7029  2.2069 -0.1230
13649TIP3    H262363   2.157   5.122   1.131 -2.3047  1.0101 -1.0766
13650TIP3   OH262364   1.978   6.292  15.218  0.0685 -0.2459 -0.2094
13650TIP3    H162365   2.044   6.253  15.161 -1.0873  0.0545 -1.8040
13650TIP3    H262366   1.996   6.386  15.217 -0.8944 -0.0604 -1.3595
13651TIP3   OH262367   1.208   5.846   3.149 -0.2401  0.2562  0.1846
13651TIP3    H162368   1.194   5.813   3.238  1.1748 -2.2758 -0.4857
13651TIP3    H262369   1.168   5.780   3.092 -0.0762  1.2516 -1.1015
13652TIP3   OH262370   5.474   3.072   5.187  0.9273 -0.4462  0.1366
13652TIP3    H162371   5.515   3.063   5.101  0.0449 -1.8669 -0.1429
13652TIP3    H262372   5.436   2.986   5.205 -0.4482  0.3641  1.1640
13653TIP3   OH262373   1.727   2.450  13.416 -0.3564 -0.3073 -0.2647
13653TIP3    H162374   1.772   2.523  13.375  0.5288  0.1577  1.5211
13653TIP3    H262375   1.665   2.420  13.349  1.3355  0.1690 -2.0888
13654TIP3   OH262376   4.508   0.290   1.529  0.3399  0.3273  0.1459
13654TIP3    H162377   4.522   0.195   1.533  3.0767  0.7237  1.0757
13654TIP3    H262378   4.595   0.327   1.512 -0.5356  2.7187  0.6203
13655TIP3   OH262379   1.321   3.721  14.396  0.3507 -0.1562  0.1660
13655TIP3    H162380   1.319   3.816  14.383  1.4763 -0.6037 -4.1822
13655TIP3    H262381   1.257   3.687  14.334  1.7075 -2.3868 -0.0667
13656TIP3   OH262382   6.326   0.030  11.382  0.3201  0.7194  0.0746
13656TIP3    H162383   6.266   0.024  11.456  1.0651 -3.1580  0.4762
13656TIP3    H262384   6.278  -0.009  11.309  1.5286 -0.4372 -0.1278
13657TIP3   OH262385   0.843   3.948   4.553 -0.3764  0.3925 -0.5435
13657TIP3    H162386   0.822   3.861   4.518  1.7985 -0.8760  1.2097
13657TIP3    H262387   0.758   3.989   4.568 -1.4173 -1.1901 -1.9588
13658TIP3   OH262388   3.220   2.244  16.047  0.3380 -0.1354 -0.0647
13658TIP3    H162389   3.147   2.281  16.096  0.8150 -1.3493  1.5869
13658TIP3    H262390   3.236   2.158  16.087  2.6710  0.1070 -0.3982
13659TIP3   OH262391   0.537   3.865   0.637  0.1081  0.5401  0.1582
13659TIP3    H162392   0.562   3.957   0.640 -2.1064  1.2212 -0.7125
13659TIP3    H262393   0.492   3.849   0.720 -0.4774  0.5507 -0.1546
13660TIP3   OH262394   3.273   4.665   4.486 -0.0302  0.4410 -0.0198
13660TIP3    H162395   3.183   4.681   4.514 -0.3953 -0.6969 -0.4846
13660TIP3    H262396   3.264   4.607   4.410  1.0553  1.1016 -0.6691
13661TIP3   OH262397   0.543   5.941   2.703 -0.1507 -0.1057 -0.0153
13661TIP3    H162398   0.579   5.904   2.784  0.6626  1.1750  0.2280
13661TIP3    H262399   0.618   5.985   2.661 -0.7789  0.0558 -0.9839
13662TIP3   OH262400   2.420   1.437   2.764 -0.1787  0.5729  0.2737
13662TIP3    H162401   2.493   1.384   2.732 -0.1803  0.9325 -0.3235
13662TIP3    H262402   2.462   1.512   2.807 -0.2131  1.8147 -1.8277
13663TIP3   OH262403   3.627   5.887  12.478 -0.1324  0.3401 -0.2046
13663TIP3    H162404   3.688   5.961  12.477 -0.2572  0.4382 -0.8959
13663TIP3    H262405   3.634   5.852  12.567 -1.4259  2.2888  0.7054
13664TIP3   OH262406   6.021   0.888   3.630 -0.7359 -0.4165  0.0405
13664TIP3    H162407   5.980   0.821   3.685 -0.1866 -1.7597 -1.1403
13664TIP3    H262408   6.115   0.881   3.650 -1.0012  2.4841  2.5583
13665TIP3   OH262409   5.392   2.226  16.131 -0.0255 -0.1421 -0.1415
13665TIP3    H162410   5.477   2.269  16.139  0.5602 -1.5480  1.4242
13665TIP3    H262411   5.385   2.171  16.209 -1.5755 -1.4656 -1.1782
13666TIP3   OH262412   3.747   2.913  12.473 -0.2593 -0.1265 -0.3870
13666TIP3    H162413   3.783   2.839  12.521 -1.9268 -0.0165  1.0695
13666TIP3    H262414   3.682   2.875  12.415  2.1917 -0.3405 -3.1207
13667TIP3   OH262415   5.677   3.435  10.762 -0.2998  0.4169 -0.0374
13667TIP3    H162416   5.756   3.429  10.707  1.3980  0.9697  2.2709
13667TIP3    H262417   5.685   3.361  10.822 -0.6315  1.5011  1.3571
13668TIP3   OH262418   6.186   6.122   2.832 -0.7285  0.1662  0.0953
13668TIP3    H162419   6.187   6.209   2.874 -1.8559 -0.2942  1.1168
13668TIP3    H262420   6.223   6.137   2.746 -0.8416  1.6671  0.2852
13669TIP3   OH262421   1.274   2.415   4.372 -1.1640 -0.0327 -0.7368
13669TIP3    H162422   1.317   2.479   4.429 -1.0281 -1.1402  0.4248
13669TIP3    H262423   1.205   2.465   4.327 -4.1573  0.0037  3.6026
13670TIP3   OH262424   5.285   3.955   6.124 -0.1186 -0.0577  0.6322
13670TIP3    H162425   5.344   4.026   6.151  0.3591  0.4826 -1.7855
13670TIP3    H262426   5.246   3.925   6.206  2.4941  0.4815  2.1483
13671TIP3   OH262427   4.156   4.752  16.051 -0.7329  0.6632  0.1528
13671TIP3    H162428   4.156   4.718  16.141 -0.9684  2.3378  0.7886
13671TIP3    H262429   4.234   4.806  16.046 -1.1563  1.2187 -0.4158
13672TIP3   OH262430   5.067   6.291   3.725  0.1878  0.0202  0.0183
13672TIP3    H162431   5.003   6.330   3.666 -0.0553  0.3016  0.4643
13672TIP3    H262432   5.065   6.346   3.803  0.5227 -0.3333  0.2829
13673TIP3   OH262433   1.616   4.700  11.371 -0.1501 -0.2335 -0.5290
13673TIP3    H162434   1.538   4.702  11.316 -0.5288 -1.7049 -0.0547
13673TIP3    H262435   1.681   4.652  11.319 -0.4809 -1.5469  0.2712
13674TIP3   OH262436   5.858   6.502   1.609 -0.3452 -0.7918  0.0548
13674TIP3    H162437   5.794   6.433   1.630  0.0949 -1.6242 -1.2552
13674TIP3    H262438   5.941   6.468   1.643 -0.2393 -0.6172 -0.0333
13675TIP3   OH262439   4.129   6.268   2.216  0.0658  0.5170  0.2371
13675TIP3    H162440   4.196   6.221   2.166  1.1198 -0.0271  2.0941
13675TIP3    H262441   4.046   6.236   2.181  0.7558  0.5577 -1.5110
13676TIP3   OH262442   4.058   6.731   3.279  0.4704  0.2868 -0.2713
13676TIP3    H162443   4.049   6.704   3.187  2.0899 -0.2633 -0.2868
13676TIP3    H262444   4.142   6.693   3.306 -0.0207  0.4286  1.4464
13677TIP3   OH262445   5.229   6.747  16.001 -0.0277 -0.5796 -0.4667
13677TIP3    H162446   5.283   6.805  16.054  0.7320  0.9475 -2.8359
13677TIP3    H262447   5.291   6.685  15.962 -0.0136  0.7396 -2.6297
13678TIP3   OH262448   6.239   1.803   2.911  0.3095 -0.6414 -0.0022
13678TIP3    H162449   6.259   1.812   2.818  0.5598  0.9329  0.1823
13678TIP3    H262450   6.144   1.812   2.916  0.4525  1.1447  0.0569
13679TIP3   OH262451   3.345   6.548   2.944 -0.1280  0.2103  0.1201
13679TIP3    H162452   3.372   6.506   2.863 -0.2367  1.2395 -0.4530
13679TIP3    H262453   3.250   6.560   2.936 -0.5194 -1.8517  1.4110
13680TIP3   OH262454   5.253   3.317  16.792  0.1019 -0.5134  0.6845
13680TIP3    H162455   5.300   3.398  16.772 -1.3867  0.3755  0.7197
13680TIP3    H262456   5.322   3.256  16.820  1.0682  1.1886  2.0911
13681TIP3   OH262457   6.227   5.921  13.891  0.6413 -0.6443 -0.7077
13681TIP3    H162458   6.154   5.865  13.867 -0.0322  0.0477 -0.2733
13681TIP3    H262459   6.252   5.892  13.979  0.6489 -0.6269 -0.7040
13682TIP3   OH262460   5.456   5.829  16.884  0.2596  0.0714 -0.1946
13682TIP3    H162461   5.387   5.765  16.900  0.1206  0.5675  1.2675
13682TIP3    H262462   5.537   5.778  16.885  0.1333 -0.1171  0.7714
13683TIP3   OH262463   0.939   2.130  15.536  0.0511  0.2769 -0.6121
13683TIP3    H162464   0.877   2.093  15.474 -0.2986 -1.5501  0.7958
13683TIP3    H262465   0.887   2.148  15.615  1.1611 -0.6536  0.3530
13684TIP3   OH262466   5.078   6.119   3.209  0.0777 -0.4837 -0.7737
13684TIP3    H162467   5.164   6.109   3.249  0.4459  1.5882 -0.9840
13684TIP3    H262468   5.073   6.211   3.184 -1.4392 -0.9901 -2.5265
13685TIP3   OH262469   6.150   2.291  14.453 -0.1197  0.6087  0.4892
13685TIP3    H162470   6.099   2.270  14.375  1.3822 -1.6301  0.0764
13685TIP3    H262471   6.085   2.303  14.522 -1.3257  0.0758 -0.5499
13686TIP3   OH262472   5.159   1.533  12.760  0.4974 -0.3770  0.0038
13686TIP3    H162473   5.221   1.604  12.775 -1.4074  1.3037 -0.0047
13686TIP3    H262474   5.173   1.506  12.670 -0.0977  1.3055 -0.6032
13687TIP3   OH262475   1.959   0.339  13.697 -0.0432  0.2318 -0.0793
13687TIP3    H162476   1.908   0.419  13.687 -0.1754  0.0878 -0.5788
13687TIP3    H262477   1.968   0.305  13.608 -1.6531 -1.3532  0.3415
13688TIP3   OH262478   5.966   2.512  14.862 -0.0951 -0.0429 -0.6751
13688TIP3    H162479   5.943   2.603  14.881 -1.0546 -0.2643 -0.7572
13688TIP3    H262480   5.930   2.462  14.936 -0.7291 -0.5022 -1.2914
13689TIP3   OH262481   1.106   0.310   2.663  0.1526  0.1648 -0.0455
13689TIP3    H162482   1.163   0.352   2.727  2.4964 -0.5226 -1.5989
13689TIP3    H262483   1.060   0.383   2.620 -1.1974  0.6366  2.1665
13690TIP3   OH262484   1.649   4.951  15.512  0.5514 -0.0628 -0.1298
13690TIP3    H162485   1.714   4.971  15.444  0.4745  0.0643 -0.1653
13690TIP3    H262486   1.671   4.862  15.540 -0.5757 -0.8241 -1.6307
13691TIP3   OH262487   2.273   5.041  12.399  0.5163 -0.1370  0.1540
13691TIP3    H162488   2.295   5.017  12.309 -0.9615  0.9468 -0.5228
13691TIP3    H262489   2.295   4.964  12.451 -1.4673 -1.8898 -1.5532
13692TIP3   OH262490   0.224   3.510  15.617 -0.0868 -0.0279  0.0778
13692TIP3    H162491   0.311   3.548  15.622 -0.6961  1.1606  2.3732
13692TIP3    H262492   0.168   3.583  15.589 -0.6736 -0.2279  0.7311
13693TIP3   OH262493   2.113   1.534   5.910  0.2164  0.3418 -0.3788
13693TIP3    H162494   2.164   1.474   5.855  2.3250  2.9862 -1.3958
13693TIP3    H262495   2.178   1.583   5.960 -1.4908  1.3632  0.8880
13694TIP3   OH262496   0.717   1.125  12.053  0.7077 -0.4566 -0.1843
13694TIP3    H162497   0.780   1.146  11.984  1.1034  1.5772  0.7464
13694TIP3    H262498   0.633   1.156  12.018  0.9566  0.8611  0.3287
13695TIP3   OH262499   4.987   3.991  14.200  0.2819 -0.0647 -0.0499
13695TIP3    H162500   4.977   3.928  14.129 -1.5884 -1.3599  1.2856
13695TIP3    H262501   5.038   3.944  14.266  0.4925  0.4901  0.1789
13696TIP3   OH262502   4.647   3.545  10.361 -0.5373 -0.3021 -0.5090
13696TIP3    H162503   4.680   3.505  10.280 -0.3931 -1.4783  0.1134
13696TIP3    H262504   4.639   3.472  10.422 -2.2016  0.3122  0.0423
13697TIP3   OH262505   3.066   0.848  16.758 -0.1994 -0.0258 -0.1122
13697TIP3    H162506   3.099   0.820  16.672  0.4495 -1.7115  0.6560
13697TIP3    H262507   3.112   0.791  16.820 -0.5016  1.3336  1.3737
13698TIP3   OH262508   6.420   5.530   3.184  0.1197 -0.1383 -0.3188
13698TIP3    H162509   6.443   5.517   3.276 -1.6244 -0.7293  0.0413
13698TIP3    H262510   6.327   5.549   3.184  0.3226  1.0294 -1.8788
13699TIP3   OH262511   1.979   3.868  13.505  0.0353 -0.0848  0.8191
13699TIP3    H162512   1.986   3.773  13.518 -0.7005 -0.3388 -0.4894
13699TIP3    H262513   2.068   3.897  13.489  0.2274 -0.5969  0.9368
13700TIP3   OH262514   6.594   5.100   2.920 -0.8083  0.5132 -0.6398
13700TIP3    H162515   6.682   5.088   2.954 -0.3840  0.5191 -1.7220
13700TIP3    H262516   6.537   5.088   2.996  0.0566 -0.5882 -0.1562
13701TIP3   OH262517   3.659   2.692  14.220  0.5551 -0.3117 -0.2654
13701TIP3    H162518   3.628   2.769  14.172  0.1410 -0.6882 -0.6046
13701TIP3    H262519   3.589   2.628  14.209  1.4714 -1.1838 -1.0518
13702TIP3   OH262520   4.254   2.777  14.815 -0.2605  0.5818 -0.1311
13702TIP3    H162521   4.250   2.781  14.719 -0.8968  0.6917 -0.1026
13702TIP3    H262522   4.188   2.840  14.844 -0.4308  0.1660  0.3783
13703TIP3   OH262523   5.571   2.158   5.231 -0.0754  0.0874 -0.0959
13703TIP3    H162524   5.548   2.070   5.202  2.1175 -0.0017 -1.7090
13703TIP3    H262525   5.593   2.147   5.324 -0.3765 -0.9468 -0.1386
13704TIP3   OH262526   5.847   2.623   2.441 -0.6471  0.1574 -0.0265
13704TIP3    H162527   5.928   2.675   2.447 -1.3836  1.4563 -1.1670
13704TIP3    H262528   5.856   2.574   2.359 -1.7236  1.5209 -0.9626
13705TIP3   OH262529   3.608   1.955  10.673  0.3602 -0.5337 -0.5398
13705TIP3    H162530   3.623   2.048  10.659 -0.8617 -0.1258  0.7509
13705TIP3    H262531   3.678   1.911  10.624  0.7871  1.0472 -1.3462
13706TIP3   OH262532   6.533   1.667   1.373  0.1019 -0.1871  0.0905
13706TIP3    H162533   6.453   1.689   1.422  0.6660 -0.1419  1.0172
13706TIP3    H262534   6.532   1.726   1.298 -0.7777 -0.2467  0.0430
13707TIP3   OH262535   2.779   0.430   1.990  0.4549  0.1431  0.1958
13707TIP3    H162536   2.731   0.381   2.056  0.2747 -0.1062 -0.1167
13707TIP3    H262537   2.826   0.363   1.940  0.9744  0.3711  0.3795
13708TIP3   OH262538   2.199   4.335  12.484 -0.3756  0.1501 -0.0070
13708TIP3    H162539   2.259   4.261  12.490 -0.8667 -0.3375 -1.0174
13708TIP3    H262540   2.192   4.353  12.390  0.7455  2.3257  0.2920
13709TIP3   OH262541   0.064   5.254  15.510  0.9713  0.2050 -0.3459
13709TIP3    H162542   0.026   5.341  15.495  0.5603 -0.1915 -1.7108
13709TIP3    H262543  -0.010   5.194  15.498  1.6046 -0.4398 -1.0705
13710TIP3   OH262544   4.349   1.537  11.583  0.9023 -0.0549  0.4403
13710TIP3    H162545   4.258   1.562  11.597  0.1190 -1.7677 -1.3020
13710TIP3    H262546   4.379   1.506  11.669 -0.3907 -0.1477  0.8691
13711TIP3   OH262547   3.411   3.633  12.182  0.2339  0.7666  0.0331
13711TIP3    H162548   3.367   3.691  12.245  0.2057  0.5763  0.1886
13711TIP3    H262549   3.475   3.690  12.139 -0.9401  1.3257 -1.0031
13712TIP3   OH262550   6.475   2.231   0.285  0.0381 -0.0465 -0.0813
13712TIP3    H162551   6.559   2.246   0.330 -1.0017 -1.5718  2.4476
13712TIP3    H262552   6.459   2.138   0.294 -1.2720 -0.0169 -1.8414
13713TIP3   OH262553   6.506   5.609   5.744  0.3669  0.0009  0.2347
13713TIP3    H162554   6.427   5.620   5.691  0.4316  0.0633  0.1505
13713TIP3    H262555   6.519   5.695   5.785 -0.5927 -0.5046  1.6202
13714TIP3   OH262556   1.378   6.509  14.430  0.4599 -0.3832  0.0570
13714TIP3    H162557   1.452   6.509  14.491 -1.8677  0.5902  3.0014
13714TIP3    H262558   1.357   6.417  14.418 -0.7876 -0.5511  3.0350
13715TIP3   OH262559   1.394   1.151  12.158 -0.2181 -0.0201 -0.2354
13715TIP3    H162560   1.463   1.191  12.211  0.6918 -1.5893 -0.2075
13715TIP3    H262561   1.420   1.169  12.068 -0.4770  0.5422 -0.1990
13716TIP3   OH262562   5.242   5.072   0.009  0.4802 -0.0652 -0.5349
13716TIP3    H162563   5.152   5.091  -0.020  0.9893  0.1766 -1.9904
13716TIP3    H262564   5.255   5.128   0.086 -0.8903 -0.6960  0.1689
13717TIP3   OH262565   5.478   3.158  15.543  0.0227  0.2239 -0.1679
13717TIP3    H162566   5.479   3.234  15.602 -0.0159  0.5703 -0.6105
13717TIP3    H262567   5.427   3.187  15.468  0.6663  0.0090 -0.6884
13718TIP3   OH262568   5.765   2.079   3.655  0.0634  0.0284  0.1354
13718TIP3    H162569   5.681   2.035   3.644  0.6864 -0.8981 -1.1432
13718TIP3    H262570   5.814   2.025   3.717 -0.0696  0.2601  0.4450
13719TIP3   OH262571   4.073   5.903  16.434  0.0210  0.4611  0.3787
13719TIP3    H162572   4.118   5.871  16.512  1.2192 -0.7603 -0.7718
13719TIP3    H262573   3.997   5.846  16.426  0.4332 -0.0656  0.1229
13720TIP3   OH262574   3.845   1.925   2.621 -0.3218  0.2744 -0.3448
13720TIP3    H162575   3.888   1.868   2.685 -4.5191 -2.4249  0.2714
13720TIP3    H262576   3.814   2.000   2.672 -1.4380 -0.6480  0.3670
13721TIP3   OH262577   2.548   3.326   0.298  0.4581  0.4513 -0.4108
13721TIP3    H162578   2.575   3.241   0.263 -0.1648  0.3541 -0.6481
13721TIP3    H262579   2.460   3.340   0.264 -0.1458  0.3780  1.0594
13722TIP3   OH262580   6.565   3.813  11.893 -0.1055  0.2046  0.0006
13722TIP3    H162581   6.640   3.826  11.952  0.0662  1.1908 -0.4251
13722TIP3    H262582   6.521   3.898  11.892 -1.4425 -0.4637  0.5211
13723TIP3   OH262583   5.091   2.459   3.700  0.1814 -0.4798 -0.0239
13723TIP3    H162584   5.184   2.435   3.700  0.2555 -0.1963  0.4679
13723TIP3    H262585   5.070   2.471   3.793 -0.8872 -2.6519  0.0547
13724TIP3   OH262586   3.691   3.073   0.931 -0.0235  0.2125  0.1575
13724TIP3    H162587   3.732   2.992   0.902 -1.2403 -0.6052  0.6567
13724TIP3    H262588   3.764   3.129   0.957  0.7702 -1.5022  1.8002
13725TIP3   OH262589   2.484   3.484   5.406 -0.4924 -1.2273  0.7805
13725TIP3    H162590   2.436   3.406   5.435 -0.1508 -1.3692  0.9690
13725TIP3    H262591   2.576   3.459   5.414 -0.3751 -1.6017 -1.3184
13726TIP3   OH262592   5.754   1.748  17.100  0.3126  1.0234 -0.1092
13726TIP3    H162593   5.666   1.776  17.072 -0.8582 -2.1476  0.1799
13726TIP3    H262594   5.795   1.715  17.020 -0.2492 -1.1293  0.4685
13727TIP3   OH262595   5.361   4.007  13.473  0.0274  0.0358 -0.4084
13727TIP3    H162596   5.274   3.969  13.484  0.5315 -0.6852  1.2675
13727TIP3    H262597   5.385   3.988  13.383 -1.2853 -0.3293 -0.6892
13728TIP3   OH262598   2.361   5.740  16.953  0.2614 -0.0719 -0.2658
13728TIP3    H162599   2.433   5.677  16.953  1.1759  0.9413  1.2223
13728TIP3    H262600   2.283   5.686  16.968  0.7759 -1.0875 -1.1361
13729TIP3   OH262601   3.081   2.268   2.518  0.3431  0.4697  0.2711
13729TIP3    H162602   3.062   2.252   2.425  1.1780  0.5793  0.0775
13729TIP3    H262603   3.155   2.329   2.517  1.7185 -1.1556  1.0121
13730TIP3   OH262604   0.689   4.744  15.311  0.3333  0.5201 -0.0859
13730TIP3    H162605   0.763   4.764  15.368  1.0185  0.0240 -0.7856
13730TIP3    H262606   0.719   4.668  15.260 -1.4050 -0.9727  1.0444
13731TIP3   OH262607   2.270   4.823  12.561  0.5905  0.1279  0.5945
13731TIP3    H162608   2.228   4.744  12.524 -1.5758  0.8550  1.4525
13731TIP3    H262609   2.350   4.790  12.601  1.1767 -1.2225 -1.5963
13732TIP3   OH262610   5.752   3.107  10.596 -0.0124 -0.3736  0.1330
13732TIP3    H162611   5.730   3.020  10.630 -1.3162 -0.6792 -1.4249
13732TIP3    H262612   5.667   3.147  10.577  0.6418  0.3993 -1.1840
13733TIP3   OH262613   3.059   6.687  12.987 -0.2333  0.2676  0.1611
13733TIP3    H162614   3.053   6.663  13.080 -0.9446 -0.2352 -0.0160
13733TIP3    H262615   3.029   6.778  12.985  2.7203  1.2900  0.8638
13734TIP3   OH262616   5.530   3.976  15.396 -0.2309 -0.1162  0.0106
13734TIP3    H162617   5.444   3.933  15.398 -0.4426  0.3579  2.5991
13734TIP3    H262618   5.590   3.910  15.432 -0.0801  0.6723  1.2516
13735TIP3   OH262619   1.173   1.688   2.466 -0.6001 -0.3442 -0.3405
13735TIP3    H162620   1.239   1.757   2.458 -0.8729  0.1475  1.4021
13735TIP3    H262621   1.150   1.667   2.375  0.3609  1.0157 -0.9287
13736TIP3   OH262622   3.905   2.484  11.156 -0.2966 -0.5388 -0.5371
13736TIP3    H162623   3.861   2.519  11.233 -0.9562  0.5239 -1.3752
13736TIP3    H262624   3.863   2.400  11.140 -1.0884 -0.1562 -0.5164
13737TIP3   OH262625   2.495   0.342  15.518  0.0347  0.2081 -0.0560
13737TIP3    H162626   2.505   0.424  15.470 -1.2484  0.6947  0.4913
13737TIP3    H262627   2.405   0.343  15.549  0.5621 -0.5331  1.5670
13738TIP3   OH262628   3.800   6.651   5.521  0.5592  0.3550  0.1202
13738TIP3    H162629   3.850   6.593   5.579 -0.9348 -0.9952  0.1074
13738TIP3    H262630   3.834   6.633   5.434  1.2891  0.7719  0.3146
13739TIP3   OH262631   3.399   3.655   3.448 -0.6910  0.1745  0.1669
13739TIP3    H162632   3.479   3.643   3.397 -0.4514 -1.7488  0.9714
13739TIP3    H262633   3.429   3.689   3.532 -0.8341  0.5106  0.0854
13740TIP3   OH262634   2.141   5.012   5.397 -0.0774 -0.0256  0.3637
13740TIP3    H162635   2.223   4.963   5.405 -0.0390  0.5397  4.0634
13740TIP3    H262636   2.168   5.099   5.367  0.4869 -0.3242 -0.0033
13741TIP3   OH262637   5.263   4.363   5.339 -0.4954 -0.5112  0.2062
13741TIP3    H162638   5.331   4.428   5.320 -1.4444  0.7263  0.9153
13741TIP3    H262639   5.194   4.414   5.381 -2.1171 -1.6320 -1.0545
13742TIP3   OH262640   3.736   6.634  15.760  0.0978  0.3855 -0.5222
13742TIP3    H162641   3.816   6.624  15.708  0.4449  2.5194 -0.4475
13742TIP3    H262642   3.711   6.726  15.748 -1.2717  0.2357  1.0089
13743TIP3   OH262643   4.266   0.464   4.870 -0.3760  0.1518 -0.6327
13743TIP3    H162644   4.304   0.461   4.782  0.1448 -0.7157 -0.3867
13743TIP3    H262645   4.253   0.372   4.893 -1.4355  0.4069 -0.1940
13744TIP3   OH262646   0.358   2.979   1.065  0.5489 -0.5555  0.3317
13744TIP3    H162647   0.388   2.940   1.147  1.5963 -1.8768 -0.6641
13744TIP3    H262648   0.299   2.914   1.027  0.0306  0.0666  0.0593
13745TIP3   OH262649   3.910   3.991  12.718 -0.1075  0.4163 -0.0290
13745TIP3    H162650   3.839   3.928  12.726  1.2392 -1.4098 -2.0232
13745TIP3    H262651   3.967   3.974  12.793  0.0594 -0.5007 -0.3602
13746TIP3   OH262652   2.664   5.085  11.425 -0.2557 -0.0111 -0.3735
13746TIP3    H162653   2.640   4.993  11.438  0.2121 -0.2775 -1.3729
13746TIP3    H262654   2.595   5.133  11.470 -0.4697 -0.8530  0.2178
13747TIP3   OH262655   6.729   2.216   1.853 -0.6286  0.3125 -0.0296
13747TIP3    H162656   6.804   2.191   1.798 -1.1226 -1.0945 -0.0670
13747TIP3    H262657   6.673   2.266   1.794 -0.3749  0.2029 -0.3680
13748TIP3   OH262658   4.282   0.805   2.607 -0.0423 -0.3509 -0.7995
13748TIP3    H162659   4.197   0.771   2.577 -0.8378  1.4176 -0.5678
13748TIP3    H262660   4.335   0.811   2.527 -0.3674 -0.7789 -1.0489
13749TIP3   OH262661   0.141   3.909  12.758 -0.0834 -1.0251  0.3131
13749TIP3    H162662   0.164   3.827  12.801  0.6550 -1.8764 -1.6676
13749TIP3    H262663   0.068   3.944  12.809  0.3399 -2.3249  1.8446
13750TIP3   OH262664   3.513   2.892  13.564 -0.2802  0.1663 -0.4834
13750TIP3    H162665   3.585   2.938  13.608  0.5132 -1.7693  0.2674
13750TIP3    H262666   3.440   2.954  13.567  1.6199  2.6123 -2.2267
13751TIP3   OH262667   5.491   4.611  13.736 -0.3965  0.7091  0.4167
13751TIP3    H162668   5.583   4.609  13.708 -0.4768 -1.4152  0.1702
13751TIP3    H262669   5.476   4.701  13.765  1.8757  0.9970  0.8118
13752TIP3   OH262670   1.314   3.802  13.309  0.1003 -0.5940  0.2444
13752TIP3    H162671   1.309   3.886  13.264 -1.9261 -1.8834 -2.0512
13752TIP3    H262672   1.226   3.788  13.344  0.4790 -1.6879  0.7910
13753TIP3   OH262673   0.043   0.859   1.572 -0.2169 -0.1712  0.1587
13753TIP3    H162674   0.132   0.893   1.582 -0.2432 -0.0445 -0.0369
13753TIP3    H262675   0.050   0.795   1.501 -0.5331  0.7587 -0.7240
13754TIP3   OH262676   5.596   1.127  12.623 -0.0544 -0.0089 -0.2097
13754TIP3    H162677   5.516   1.173  12.597 -1.4305 -1.9337  0.4077
13754TIP3    H262678   5.599   1.137  12.718 -0.6261 -1.5572 -0.0185
13755TIP3   OH262679   5.162   0.243  14.113  0.4084  0.2035 -0.9724
13755TIP3    H162680   5.216   0.226  14.190  1.6600 -0.2515 -1.9511
13755TIP3    H262681   5.097   0.308  14.143 -0.3799 -1.4651  1.0028
13756TIP3   OH262682   5.301   4.932   2.817 -0.1565  0.4294 -0.1635
13756TIP3    H162683   5.358   4.941   2.893 -3.6319  0.2408  2.5553
13756TIP3    H262684   5.287   4.838   2.809 -0.4757  0.5114 -0.5838
13757TIP3   OH262685   3.045   5.033   2.399  0.1117  0.2774 -0.2965
13757TIP3    H162686   3.035   5.093   2.324  0.8167  0.1006 -0.5406
13757TIP3    H262687   2.959   4.992   2.409  0.6084 -1.3834 -2.4634
13758TIP3   OH262688   0.727   5.140   4.261 -0.2049 -0.1325 -0.0797
13758TIP3    H162689   0.762   5.061   4.221  0.3089  0.5967 -1.1020
13758TIP3    H262690   0.632   5.134   4.248 -0.1707 -0.5831 -0.1335
13759TIP3   OH262691   5.574   1.758  10.343  0.1525  0.2389  0.1861
13759TIP3    H162692   5.667   1.779  10.336  0.5254 -0.3201  2.9609
13759TIP3    H262693   5.533   1.839  10.376  0.0106 -0.2317  1.1642
13760TIP3   OH262694   5.335   1.804   1.838  0.0167 -0.1419 -0.5780
13760TIP3    H162695   5.346   1.880   1.895 -0.0736  0.1125 -0.8983
13760TIP3    H262696   5.409   1.747   1.859  0.0182 -0.0187 -0.2541
13761TIP3   OH262697   1.890   4.861  17.115 -0.7668  0.5664  0.0005
13761TIP3    H162698   1.814   4.804  17.104 -0.1423 -0.2726 -0.0164
13761TIP3    H262699   1.855   4.949  17.105 -1.4203  0.1316 -1.9530
13762TIP3   OH262700   1.961   3.452   6.190 -0.3138 -0.1046 -0.2964
13762TIP3    H162701   1.953   3.375   6.246  0.6591 -0.0850 -0.1206
13762TIP3    H262702   1.935   3.525   6.246 -1.3602 -0.3098 -0.5005
13763TIP3   OH262703   3.799   3.625  15.374 -0.5517 -0.6440 -0.3622
13763TIP3    H162704   3.794   3.718  15.356 -0.2452 -1.2849 -4.2698
13763TIP3    H262705   3.893   3.608  15.385 -0.4631 -0.7305 -1.2202
13764TIP3   OH262706   4.154   2.649  12.984  0.1629 -0.0479  0.1378
13764TIP3    H162707   4.115   2.698  13.056  1.1353 -0.5210  1.0035
13764TIP3    H262708   4.180   2.715  12.920 -0.6768  0.3747  0.2281
13765TIP3   OH262709   5.859   0.314   1.238  0.5125 -0.6289 -0.0015
13765TIP3    H162710   5.850   0.245   1.172  0.5966  1.3171 -2.1108
13765TIP3    H262711   5.803   0.384   1.207  2.7750  1.4538  0.4558
13766TIP3   OH262712   1.932   1.868   6.405  0.0255  0.4568 -0.2943
13766TIP3    H162713   1.934   1.789   6.459  0.7857 -1.1750 -2.6215
13766TIP3    H262714   1.844   1.904   6.419 -0.5555 -1.1555  0.3125
13767TIP3   OH262715   5.779   4.938   0.663 -0.3853 -0.0364  0.2470
13767TIP3    H162716   5.767   4.996   0.738 -1.0620 -0.7063  0.6643
13767TIP3    H262717   5.707   4.874   0.670  0.5228 -1.1096 -0.0293
13768TIP3   OH262718   6.644   3.722  16.979  0.1478  0.4924 -0.1608
13768TIP3    H162719   6.667   3.795  16.920  0.5744  0.5930  0.1313
13768TIP3    H262720   6.588   3.666  16.926 -0.8792  1.4739 -0.1226
13769TIP3   OH262721   6.723   2.948   4.953 -0.2383  0.2400 -0.5527
13769TIP3    H162722   6.710   2.854   4.940  0.0357  0.2966 -1.2387
13769TIP3    H262723   6.667   2.989   4.887 -0.0067  0.5518 -0.5529
13770TIP3   OH262724   1.773   4.565  15.419 -0.0663  0.5365  0.0085
13770TIP3    H162725   1.814   4.629  15.478 -0.1080  0.4495  0.1328
13770TIP3    H262726   1.685   4.599  15.404  0.4766  1.3779 -1.2791
13771TIP3   OH262727   3.774   5.674  12.904 -0.4716 -0.1831  0.5275
13771TIP3    H162728   3.836   5.715  12.844 -1.5600 -0.5775 -0.9042
13771TIP3    H262729   3.812   5.588  12.923 -0.3660 -0.2515  0.0095
13772TIP3   OH262730   4.656   2.493  15.097 -0.5142  0.6347 -0.6562
13772TIP3    H162731   4.703   2.540  15.166 -0.8913  0.3392 -0.1927
13772TIP3    H262732   4.589   2.554  15.067 -0.8904  0.4591 -0.1767
13773TIP3   OH262733   0.480   5.063  14.618  0.3306  0.1338  0.1959
13773TIP3    H162734   0.540   5.086  14.547 -0.6581  1.1758 -0.3155
13773TIP3    H262735   0.451   4.974  14.598 -0.4373  0.6558 -1.0551
13774TIP3   OH262736   0.266   0.656  13.890 -0.5280  0.3615  0.1891
13774TIP3    H162737   0.329   0.723  13.863 -0.5264  1.1877  2.1591
13774TIP3    H262738   0.248   0.676  13.982  0.0026 -2.7385  1.0147
13775TIP3   OH262739   4.912   1.317   2.173  0.6148  0.0390  0.2251
13775TIP3    H162740   4.851   1.245   2.189  0.0445  0.2397 -0.9521
13775TIP3    H262741   4.977   1.310   2.242 -0.9522  0.0296  1.7274
13776TIP3   OH262742   1.294   5.904   0.163  0.2669 -0.4942 -0.3584
13776TIP3    H162743   1.259   5.969   0.102  0.0533 -1.1082 -0.8830
13776TIP3    H262744   1.252   5.925   0.246  0.9582  0.6817 -0.2840
13777TIP3   OH262745   6.179   1.585  12.668 -0.0266 -0.4952 -0.5422
13777TIP3    H162746   6.108   1.594  12.605  0.9796 -2.1071 -1.9587
13777TIP3    H262747   6.139   1.607  12.752 -2.2942 -1.6776 -1.2525
13778TIP3   OH262748   2.050   5.328  12.096  0.0879  0.3590 -0.0504
13778TIP3    H162749   2.084   5.393  12.157  1.1980  1.3317 -1.6404
13778TIP3    H262750   2.046   5.247  12.147  0.8151  1.1784  1.3459
13779TIP3   OH262751   3.023   4.052   2.950  0.1584 -0.3882 -0.1978
13779TIP3    H162752   3.053   4.101   3.027 -1.6530  5.6886 -3.0559
13779TIP3    H262753   3.094   4.062   2.887  0.2605 -2.5497 -0.4422
13780TIP3   OH262754   3.219   4.385   3.365  0.3381 -0.7804 -0.4266
13780TIP3    H162755   3.312   4.380   3.390 -0.0961 -2.0929  1.0162
13780TIP3    H262756   3.206   4.476   3.338  1.9250 -0.4561 -0.1579
13781TIP3   OH262757   1.604   6.207   2.958  0.0956  0.2273 -0.3175
13781TIP3    H162758   1.579   6.115   2.959  0.3724  0.1476 -0.8104
13781TIP3    H262759   1.525   6.253   2.929 -1.0653  0.4679  3.0021
13782TIP3   OH262760   3.238   4.854  12.492  0.4323  0.0063  0.1132
13782TIP3    H162761   3.189   4.927  12.455  2.2160  0.1368 -2.0829
13782TIP3    H262762   3.171   4.795  12.527 -1.1034  1.7854  0.2008
13783TIP3   OH262763   6.491   2.538  15.309  0.2116  0.4030 -0.0646
13783TIP3    H162764   6.405   2.574  15.287 -0.8044 -1.5207  0.7074
13783TIP3    H262765   6.494   2.454  15.264  0.4689 -0.9259  2.4004
13784TIP3   OH262766   1.963   4.387  11.271  0.0027  0.4780 -0.0191
13784TIP3    H162767   2.050   4.426  11.282 -0.1551  0.3945  1.6704
13784TIP3    H262768   1.906   4.461  11.248  0.6877  0.3733 -2.1959
13785TIP3   OH262769   5.529   0.388   4.451 -0.1007 -0.3526  0.1255
13785TIP3    H162770   5.557   0.300   4.426 -1.2859 -1.1354  1.4534
13785TIP3    H262771   5.434   0.387   4.439 -0.1923  0.5606  0.6898
13786TIP3   OH262772   1.996   2.457   3.859 -0.6443  0.1798 -0.2612
13786TIP3    H162773   2.063   2.489   3.918  0.1159  0.1718 -1.1085
13786TIP3    H262774   1.913   2.476   3.903 -0.0777 -0.0097  0.8777
13787TIP3   OH262775   5.002   2.437  14.359 -0.2934 -0.9998  0.2000
13787TIP3    H162776   4.950   2.359  14.378  0.8946 -1.7340  0.4930
13787TIP3    H262777   5.088   2.403  14.335  0.4636  0.2485  1.0985
13788TIP3   OH262778   0.602   4.558   1.418  0.0964 -0.2473  0.2791
13788TIP3    H162779   0.644   4.639   1.446  0.6469 -0.9524  1.5045
13788TIP3    H262780   0.659   4.489   1.450  0.7281 -1.1081 -2.5204
13789TIP3   OH262781   0.873   2.874  13.877  0.0994 -0.5262  0.5122
13789TIP3    H162782   0.891   2.823  13.798 -0.6048 -0.0583  0.0355
13789TIP3    H262783   0.959   2.897  13.911  0.4161 -0.2586 -0.4429
13790TIP3   OH262784   5.560   1.227   4.724 -0.6222 -0.0089 -0.6034
13790TIP3    H162785   5.618   1.195   4.793  1.2394 -0.4148 -2.3111
13790TIP3    H262786   5.545   1.319   4.745 -0.6829 -0.3164  0.7319
13791TIP3   OH262787   3.418   6.070  13.244  0.6133  0.1828 -0.0752
13791TIP3    H162788   3.341   6.117  13.275  0.4684 -0.1895  0.1283
13791TIP3    H262789   3.476   6.065  13.320  0.7804  0.3443 -0.1905
13792TIP3   OH262790   3.316   0.309   1.022 -0.3496  0.6465  0.2725
13792TIP3    H162791   3.234   0.335   0.979 -1.6155 -1.8394  1.0960
13792TIP3    H262792   3.357   0.248   0.960  0.1756  0.7567  0.5096
13793TIP3   OH262793   1.567   6.231  16.264  0.6489 -0.2904  0.6892
13793TIP3    H162794   1.570   6.137  16.285 -0.3631  0.0710  2.5711
13793TIP3    H262795   1.474   6.248  16.249  0.9128  0.2905 -0.3034
13794TIP3   OH262796   5.378   1.638   1.482  0.2783  0.2455  0.6404
13794TIP3    H162797   5.410   1.574   1.418 -1.1692  0.2591 -0.1188
13794TIP3    H262798   5.458   1.674   1.522  1.1584 -0.7225 -0.2108
13795TIP3   OH262799   3.686   3.609   5.352  0.2533  0.1315 -0.3574
13795TIP3    H162800   3.730   3.694   5.356 -1.9743  1.2918  0.7589
13795TIP3    H262801   3.601   3.628   5.314  0.0412 -1.7636 -0.8792
13796TIP3   OH262802   0.690   1.398  12.726  0.0411 -0.1284 -0.0316
13796TIP3    H162803   0.683   1.480  12.775 -0.9532  0.1807 -0.6759
13796TIP3    H262804   0.662   1.420  12.637  0.9781 -0.8830 -0.5207
13797TIP3   OH262805   0.350   2.818   0.084 -0.8335 -0.1359  0.1925
13797TIP3    H162806   0.314   2.884   0.025  0.2780  0.0915 -0.2517
13797TIP3    H262807   0.282   2.804   0.149 -1.8246  0.0854 -0.7770
13798TIP3   OH262808   2.272   5.831  16.003  0.0537 -0.2044  0.0983
13798TIP3    H162809   2.206   5.855  16.068  0.5647 -1.0214  0.9180
13798TIP3    H262810   2.226   5.837  15.919 -0.2197  2.3064  0.3796
13799TIP3   OH262811   6.204   6.393   6.354  0.5476 -0.4504 -0.0700
13799TIP3    H162812   6.285   6.378   6.304 -0.7648 -1.4597 -1.9394
13799TIP3    H262813   6.142   6.429   6.291 -0.1018  1.5186  1.6536
13800TIP3   OH262814   2.651   5.964  16.741  0.5821  0.1269 -0.4897
13800TIP3    H162815   2.684   5.960  16.651 -0.2892 -1.5252 -0.7630
13800TIP3    H262816   2.727   5.987  16.794  1.3149  0.1499 -1.5420
13801TIP3   OH262817   3.008   4.413   2.515 -0.3737  0.1298  0.1526
13801TIP3    H162818   3.039   4.409   2.606  0.8798  0.0239 -0.2754
13801TIP3    H262819   3.004   4.506   2.495 -0.3306  0.1415  0.1997
13802TIP3   OH262820   0.846   4.762   1.280 -0.2514  0.4279  0.4587
13802TIP3    H162821   0.862   4.771   1.186  0.7395  0.0885  0.5976
13802TIP3    H262822   0.802   4.844   1.304 -1.6908 -0.0291 -0.5478
13803TIP3   OH262823   6.568   5.463  10.820  0.4701 -0.2711 -0.4516
13803TIP3    H162824   6.650   5.427  10.786  1.5139  1.3778  0.2440
13803TIP3    H262825   6.560   5.549  10.778  1.8862  1.9122  3.4500
13804TIP3   OH262826   6.676   1.835   3.787  0.1879 -0.3366 -0.1294
13804TIP3    H162827   6.725   1.902   3.834 -1.9522  0.2708  1.3572
13804TIP3    H262828   6.738   1.764   3.774  0.9427 -0.3973  3.4009
13805TIP3   OH262829   5.416   6.033   1.711 -0.7656  0.0158 -0.0452
13805TIP3    H162830   5.369   5.977   1.649  0.2487 -0.6702 -0.1975
13805TIP3    H262831   5.416   6.119   1.671  2.0247 -0.9195 -2.1913
13806TIP3   OH262832   2.657   0.029  14.855 -0.3419  0.1335 -0.0267
13806TIP3    H162833   2.680   0.096  14.791 -0.4337 -0.0971 -0.3043
13806TIP3    H262834   2.674  -0.054  14.810 -0.3986 -0.0301  0.2502
13807TIP3   OH262835   0.545   1.292  11.496 -0.0552  0.0017 -0.2596
13807TIP3    H162836   0.471   1.266  11.441  0.7238 -0.0137 -1.3184
13807TIP3    H262837   0.555   1.219  11.558 -0.3519 -0.4150 -0.6961
13808TIP3   OH262838   6.000   6.629   5.276 -0.0561 -0.5868  0.2110
13808TIP3    H162839   5.971   6.601   5.190 -0.7183 -1.0684  0.5919
13808TIP3    H262840   5.927   6.609   5.334  0.5453 -0.6565  0.9539
13809TIP3   OH262841   0.497   0.710  12.733 -0.3670 -0.2816 -0.5202
13809TIP3    H162842   0.548   0.638  12.770 -0.1107 -0.3782 -1.0531
13809TIP3    H262843   0.432   0.667  12.677 -2.3566 -0.2689  1.7234
13810TIP3   OH262844   3.065   0.086   2.673 -0.2833  0.1596  0.3570
13810TIP3    H162845   3.147   0.042   2.696 -0.0198  0.8644  0.7852
13810TIP3    H262846   3.005   0.015   2.651  0.4400 -0.3627  0.0583
13811TIP3   OH262847   1.293   5.079  15.592  0.3613 -0.1123 -0.0320
13811TIP3    H162848   1.210   5.125  15.600  0.9123  0.5909  2.1892
13811TIP3    H262849   1.314   5.082  15.499 -0.7246  2.1779 -0.2322
13812TIP3   OH262850   0.648   5.102  13.721  0.1908  0.0601  0.4614
13812TIP3    H162851   0.602   5.165  13.776 -1.6497  0.2205 -1.2123
13812TIP3    H262852   0.599   5.020  13.733  0.2657 -0.0996 -0.3277
13813TIP3   OH262853   4.767   1.852   5.025  0.2030  0.0391 -0.3459
13813TIP3    H162854   4.690   1.808   5.061  1.2701 -0.7921  0.9774
13813TIP3    H262855   4.751   1.945   5.041 -0.0850 -0.2019  0.8183
13814TIP3   OH262856   2.959   2.856  12.365 -0.2794 -0.1803 -0.2626
13814TIP3    H162857   2.890   2.855  12.431  0.5417  1.6778  0.6545
13814TIP3    H262858   2.913   2.859  12.281 -1.3401  1.5169  0.3531
13815TIP3   OH262859   2.365   2.069   2.899 -0.3754 -0.0374  0.0010
13815TIP3    H162860   2.280   2.054   2.940 -0.0256 -2.6452 -0.1226
13815TIP3    H262861   2.425   2.014   2.949  0.5801 -1.0342 -2.1822
13816TIP3   OH262862   3.942   3.144   0.281 -0.4642  0.0781 -0.1914
13816TIP3    H162863   3.997   3.078   0.323 -1.9911 -0.8558  0.3963
13816TIP3    H262864   3.946   3.122   0.187 -0.3888 -0.4185 -0.0756
13817TIP3   OH262865   5.343   2.203  13.654 -0.3204 -0.1982  0.6936
13817TIP3    H162866   5.405   2.241  13.717  1.3743 -0.7505 -0.5834
13817TIP3    H262867   5.267   2.261  13.656  1.2267  1.8868  0.5612
13818TIP3   OH262868   5.239   3.243  11.661  0.1196  0.5100  0.0255
13818TIP3    H162869   5.163   3.301  11.666  0.2382  0.6416  0.3265
13818TIP3    H262870   5.265   3.230  11.752  0.3256  0.2892 -0.0652
13819TIP3   OH262871   2.458   5.195   2.758 -0.1357 -0.0908  0.3956
13819TIP3    H162872   2.478   5.148   2.839  0.9917 -1.4890 -0.6766
13819TIP3    H262873   2.362   5.193   2.753 -0.2172 -0.0355  1.6557
13820TIP3   OH262874   0.760   2.811   4.183  0.2922 -0.2662 -0.3356
13820TIP3    H162875   0.682   2.864   4.200  0.1021 -0.1381 -1.5723
13820TIP3    H262876   0.819   2.869   4.135  1.9340  0.2345  2.1466
13821TIP3   OH262877   4.368   1.491  16.100  0.3019 -0.1742 -0.6579
13821TIP3    H162878   4.367   1.469  16.006  1.2012  0.2296 -0.7610
13821TIP3    H262879   4.311   1.568  16.107 -2.6234 -2.2708 -0.3485
13822TIP3   OH262880   3.883   4.580   4.365  0.1204  0.5114  0.0346
13822TIP3    H162881   3.789   4.586   4.381  0.0974 -0.3625  0.2447
13822TIP3    H262882   3.916   4.523   4.434  0.4211 -1.1490 -1.4401
13823TIP3   OH262883   1.644   5.009   2.149  0.1938  0.1204 -0.0352
13823TIP3    H162884   1.711   5.062   2.105 -1.8823  1.5378 -1.6426
13823TIP3    H262885   1.614   4.948   2.082  0.8226 -1.4502  1.0855
13824TIP3   OH262886   4.810   5.644  13.372 -0.1996 -0.5652  0.0669
13824TIP3    H162887   4.855   5.728  13.384 -1.7000  0.2246  0.2970
13824TIP3    H262888   4.875   5.588  13.330  1.4124  0.1487  1.5627
13825TIP3   OH262889   1.862   3.543   3.507  0.5365  0.6573  0.3141
13825TIP3    H162890   1.801   3.561   3.436  1.8554 -1.1380 -1.3236
13825TIP3    H262891   1.943   3.586   3.481  1.4804 -1.2839 -0.0333
13826TIP3   OH262892   6.724   0.680  12.245  0.4424  0.2629  0.0142
13826TIP3    H162893   6.747   0.755  12.301  0.4788  1.5313 -1.6519
13826TIP3    H262894   6.808   0.644  12.218  0.5710  2.8185 -3.3293
13827TIP3   OH262895   6.044   4.956  14.992 -0.4189  0.3529 -0.0358
13827TIP3    H162896   6.061   5.021  14.923 -0.1756 -0.0577 -0.3673
13827TIP3    H262897   6.072   4.999  15.073 -0.8924  0.9134 -0.1693
13828TIP3   OH262898   5.153   5.402   1.837  0.0835  1.0467  0.0632
13828TIP3    H162899   5.209   5.327   1.853  2.1624  2.2780 -1.2580
13828TIP3    H262900   5.089   5.371   1.773  0.7750  0.3423 -0.2830
13829TIP3   OH262901   1.587   5.211  15.469 -0.0617  0.3413  0.2728
13829TIP3    H162902   1.611   5.140  15.529  1.2015  0.2829 -0.2913
13829TIP3    H262903   1.579   5.288  15.525 -1.7417 -0.2851  0.9430
13830TIP3   OH262904   0.884   6.168   6.136  0.0993 -0.1861 -0.6015
13830TIP3    H162905   0.856   6.141   6.049  1.3798 -1.2140 -0.7106
13830TIP3    H262906   0.833   6.113   6.196 -2.2756  1.9204 -0.6069
13831TIP3   OH262907   6.077   2.910  16.795  0.3407  0.0299 -0.3472
13831TIP3    H162908   6.144   2.978  16.801  0.7417 -0.3477 -0.5536
13831TIP3    H262909   6.071   2.890  16.702 -1.5139  1.5101 -0.5785
13832TIP3   OH262910   0.453   0.630   0.316 -0.1890  0.5245  0.3489
13832TIP3    H162911   0.509   0.566   0.273  0.2024  0.4566  0.9688
13832TIP3    H262912   0.366   0.615   0.278 -0.2217 -0.7544  0.9131
13833TIP3   OH262913   6.077   2.848   3.050 -0.0548  0.0810  0.5513
13833TIP3    H162914   6.134   2.810   2.984  0.8394  0.1149  1.2920
13833TIP3    H262915   6.075   2.941   3.030 -0.1825  0.0193  0.2764
13834TIP3   OH262916   5.383   3.872  15.622 -0.4983 -0.5420  0.2427
13834TIP3    H162917   5.371   3.797  15.679  2.0145 -1.8060 -0.7850
13834TIP3    H262918   5.461   3.916  15.656 -1.0867  0.7598 -0.0547
13835TIP3   OH262919   5.015   2.419   3.246 -0.5230  0.0567 -0.0190
13835TIP3    H162920   5.016   2.514   3.252 -3.3009  0.0936  0.4194
13835TIP3    H262921   4.997   2.389   3.335  0.7639 -0.9170 -0.0686
13836TIP3   OH262922   0.500   5.444  11.078 -0.0429 -0.8467 -0.0549
13836TIP3    H162923   0.419   5.427  11.127 -0.8653  0.8479 -0.7796
13836TIP3    H262924   0.566   5.462  11.145 -0.6508 -0.6230  0.4887
13837TIP3   OH262925   5.355   2.465  11.039 -0.4861 -0.2835  0.0964
13837TIP3    H162926   5.325   2.532  10.977 -1.1771 -0.1984  0.5259
13837TIP3    H262927   5.449   2.458  11.021 -0.2899  1.2190  0.4437
13838TIP3   OH262928   1.838   0.688  15.059  0.2710 -0.0721 -0.3230
13838TIP3    H162929   1.752   0.684  15.100  0.0225  0.3108 -0.7955
13838TIP3    H262930   1.887   0.751  15.111 -0.0917  0.5248 -0.7045
13839TIP3   OH262931   0.050   3.293  15.954  0.5760  0.2579  0.1119
13839TIP3    H162932   0.104   3.295  16.034  1.5756  0.8972 -0.5657
13839TIP3    H262933  -0.024   3.350  15.974 -1.2756 -2.6970  2.0146
13840TIP3   OH262934   3.782   0.437  13.715  0.1142 -0.2008  0.1592
13840TIP3    H162935   3.817   0.392  13.639  0.0600  0.9808 -0.5718
13840TIP3    H262936   3.858   0.478  13.756 -0.1401  0.8261 -0.3892
13841TIP3   OH262937   4.123   6.106   4.770  0.4834  0.2667 -0.1939
13841TIP3    H162938   4.071   6.120   4.691  1.2269  0.7359 -0.6150
13841TIP3    H262939   4.175   6.027   4.750 -0.0092 -0.1537  0.1911
13842TIP3   OH262940   1.153   2.357   5.025  0.0364  0.2612  0.0354
13842TIP3    H162941   1.084   2.406   4.978  0.3719 -0.1055 -0.8504
13842TIP3    H262942   1.233   2.405   5.006 -0.0437  1.0106  1.5325
13843TIP3   OH262943   4.532   6.273   0.925  0.3618 -0.8195 -1.0239
13843TIP3    H162944   4.482   6.312   0.997 -0.7234  1.0094 -2.6859
13843TIP3    H262945   4.598   6.219   0.967 -0.3075  0.1437  1.3358
13844TIP3   OH262946   5.078   6.523  15.714 -0.0220  0.3813 -0.4151
13844TIP3    H162947   5.075   6.566  15.629  1.9496 -0.0709 -0.7377
13844TIP3    H262948   5.151   6.564  15.759 -1.2428  0.8319  1.1979
13845TIP3   OH262949   0.229   2.014  14.354 -0.0321  0.0436 -0.5489
13845TIP3    H162950   0.154   2.036  14.409  0.1964  0.3376 -0.3518
13845TIP3    H262951   0.298   2.073  14.383  1.1430 -2.0980  1.2035
13846TIP3   OH262952   6.553   2.615  13.149 -0.0046  0.1287 -0.2957
13846TIP3    H162953   6.571   2.703  13.117  1.8089 -0.7932 -1.9415
13846TIP3    H262954   6.497   2.576  13.082 -1.1939  0.1557  0.6552
13847TIP3   OH262955   3.015   3.668   0.930  0.0473  0.6707 -0.2526
13847TIP3    H162956   3.085   3.677   0.995 -1.1966  1.5797  1.0184
13847TIP3    H262957   2.942   3.720   0.967 -1.1158  0.1435 -1.7634
13848TIP3   OH262958   1.879   2.148  12.857  0.2440 -0.4606 -0.1287
13848TIP3    H162959   1.892   2.054  12.842 -0.2356 -0.6575  0.6985
13848TIP3    H262960   1.941   2.170  12.926 -0.1016 -0.2986  0.1309
13849TIP3   OH262961   1.242   1.808   3.056  0.2353  0.2697 -0.2362
13849TIP3    H162962   1.243   1.834   2.964 -1.0089  1.9058  0.2024
13849TIP3    H262963   1.256   1.713   3.054  1.2263  0.4301 -2.0414
13850TIP3   OH262964   6.546   2.073  15.854  0.3102  0.0858  1.0162
13850TIP3    H162965   6.511   2.162  15.855 -0.0498 -0.0043 -1.4780
13850TIP3    H262966   6.641   2.084  15.847  0.2950  0.2746  1.1011
13851TIP3   OH262967   1.628   4.057  16.035 -0.0275 -0.0395 -0.0630
13851TIP3    H162968   1.649   4.141  16.077  1.7707  0.1761 -1.3329
13851TIP3    H262969   1.543   4.071  15.994 -0.3314  0.7432  0.8102
13852TIP3   OH262970   1.932   6.758  15.197  0.1468  0.3860 -0.2845
13852TIP3    H162971   1.978   6.837  15.169 -0.1690  1.2764  1.6268
13852TIP3    H262972   1.842   6.786  15.211 -0.2063 -0.5573 -0.6560
13853TIP3   OH262973   2.448   5.726   1.091  0.0438 -0.1568  0.1210
13853TIP3    H162974   2.525   5.756   1.042 -0.8425 -1.7225 -2.3496
13853TIP3    H262975   2.414   5.805   1.133  2.0783  0.8414 -0.0103
13854TIP3   OH262976   2.522   2.784   3.982 -0.2436 -0.6112  0.3326
13854TIP3    H162977   2.600   2.749   3.939  1.1088 -0.2409  2.4119
13854TIP3    H262978   2.470   2.707   4.004 -0.0225 -0.9136 -0.1915
13855TIP3   OH262979   0.743   6.548  14.674  0.1095  0.4491 -0.0161
13855TIP3    H162980   0.647   6.552  14.673  0.1060  1.3691  1.2347
13855TIP3    H262981   0.767   6.510  14.590 -1.3623  0.1358 -0.3102
13856TIP3   OH262982   2.610   3.795   2.292  0.2269  0.4138  0.0381
13856TIP3    H162983   2.632   3.853   2.220 -1.4895 -0.8521 -1.5729
13856TIP3    H262984   2.540   3.841   2.340  0.5859  0.7517  0.2430
13857TIP3   OH262985   5.589   6.215   0.007  0.0586 -0.0182 -0.6941
13857TIP3    H162986   5.593   6.310   0.014  1.0921 -0.0649 -0.6494
13857TIP3    H262987   5.529   6.199  -0.066 -0.7683  0.6497 -0.1687
13858TIP3   OH262988   1.605   4.356   0.757 -0.0531  0.0424 -0.2194
13858TIP3    H162989   1.648   4.408   0.825 -2.3163  0.8227  0.6798
13858TIP3    H262990   1.628   4.266   0.777 -1.7116  0.1357  2.4073
13859TIP3   OH262991   3.143   1.503   1.477 -0.1407 -0.5194 -0.3375
13859TIP3    H162992   3.196   1.441   1.526  0.4293  0.2739  0.0575
13859TIP3    H262993   3.192   1.517   1.396  0.5497  0.6365  0.2638
13860TIP3   OH262994   5.725   6.515   1.316  0.4867  0.3418  0.2345
13860TIP3    H162995   5.684   6.559   1.391  1.8210 -0.0956  1.2448
13860TIP3    H262996   5.730   6.423   1.343 -1.9577 -0.4334 -1.7106
13861TIP3   OH262997   6.359   2.814   2.045  0.1223 -0.3324 -0.1077
13861TIP3    H162998   6.289   2.764   2.004  1.9074 -1.7583 -1.5578
13861TIP3    H262999   6.366   2.894   1.993 -1.5604  0.6080  1.1077
13862TIP3   OH263000   1.259   4.681  16.575  0.1849  0.1001  0.1019
13862TIP3    H163001   1.270   4.586  16.579  0.1062  0.1173  0.6619
13862TIP3    H263002   1.331   4.711  16.519  0.7002 -0.1977  0.6092
13863TIP3   OH263003   3.949   4.811  11.948  0.0203 -1.1186 -0.4528
13863TIP3    H163004   4.032   4.765  11.936  0.8594  0.5662 -1.1832
13863TIP3    H263005   3.914   4.822  11.860  0.4747  0.8179 -0.4166
13864TIP3   OH263006   5.247   3.368   5.934 -0.0060 -0.5501  0.1147
13864TIP3    H163007   5.184   3.439   5.920 -0.4342 -0.8956  0.2739
13864TIP3    H263008   5.202   3.307   5.992  2.0529  1.3020  3.8871
13865TIP3   OH263009   0.095   4.430   4.570  0.2604 -0.5323  0.2100
13865TIP3    H163010   0.042   4.377   4.629 -0.7432  1.3807  1.0874
13865TIP3    H263011   0.058   4.518   4.578  3.3146  0.7865  0.5687
13866TIP3   OH263012   3.772   4.649  13.802 -0.0182 -0.5279 -0.4646
13866TIP3    H163013   3.697   4.627  13.747  0.4514 -2.3396 -0.4263
13866TIP3    H263014   3.736   4.653  13.890 -0.6677  1.8324 -0.8142
13867TIP3   OH263015   4.031   3.046  13.140  0.0323  0.3605  0.3609
13867TIP3    H163016   4.053   3.138  13.121  2.8691 -0.5744 -1.1788
13867TIP3    H263017   3.996   3.012  13.058 -0.1631 -0.1712  0.6643
13868TIP3   OH263018   6.246   0.969  11.232 -0.5973 -0.2037 -0.3140
13868TIP3    H163019   6.188   0.900  11.265  0.2277 -0.8327 -0.1598
13868TIP3    H263020   6.190   1.047  11.227 -1.1541 -0.4974  1.0023
13869TIP3   OH263021   3.224   0.513   4.881 -0.2334  0.5289 -0.1225
13869TIP3    H163022   3.238   0.579   4.950 -2.8419 -1.1696  2.1662
13869TIP3    H263023   3.310   0.475   4.867  0.6856  2.1259  0.9553
13870TIP3   OH263024   3.750   0.533   3.190 -0.3516  0.4705  0.1995
13870TIP3    H163025   3.656   0.524   3.174 -0.5708  2.6199  0.1429
13870TIP3    H263026   3.791   0.490   3.115 -1.2848 -0.0742 -0.0124
13871TIP3   OH263027   5.761   5.146  16.829  0.8202 -0.0317 -0.0698
13871TIP3    H163028   5.674   5.161  16.793  0.7411 -1.5152 -0.5357
13871TIP3    H263029   5.754   5.061  16.873  1.4655  0.8057  1.7013
13872TIP3   OH263030   2.680   4.011  12.793 -0.2398 -0.5833 -0.4333
13872TIP3    H163031   2.709   3.970  12.875 -1.5443 -1.3046 -0.3181
13872TIP3    H263032   2.746   3.985  12.729  0.6853 -0.1795  0.3408
13873TIP3   OH263033   1.483   2.000  16.466  0.1480 -0.3840 -0.1813
13873TIP3    H163034   1.397   2.023  16.500  0.4460  0.4911 -0.0219
13873TIP3    H263035   1.470   1.915  16.423 -0.7520 -0.3316 -0.0163
13874TIP3   OH263036   3.829   3.717  11.942  0.3278  0.3255 -0.2456
13874TIP3    H163037   3.796   3.633  11.975 -0.2860  1.0641  1.0385
13874TIP3    H263038   3.854   3.765  12.020  3.2343  0.3150 -1.1333
13875TIP3   OH263039   3.448   3.768  12.561 -0.1263 -0.6869 -0.1411
13875TIP3    H163040   3.487   3.684  12.537 -0.7898 -0.8075 -0.7919
13875TIP3    H263041   3.446   3.818  12.479  1.2369  0.3604  0.4409
13876TIP3   OH263042   3.923   5.629   1.181 -0.3893  0.7341 -0.1415
13876TIP3    H163043   3.850   5.654   1.238 -1.8979 -1.0914 -1.2261
13876TIP3    H263044   3.881   5.589   1.105  1.7467 -0.4542 -0.7187
13877TIP3   OH263045   2.002   2.363  12.475  0.5442 -0.1300  0.2034
13877TIP3    H163046   1.909   2.347  12.462  0.2527  0.0985  1.9266
13877TIP3    H263047   2.043   2.332  12.394 -1.0168 -0.2302 -0.5667
13878TIP3   OH263048   5.562   6.648   4.049  0.4858  0.6646 -0.0853
13878TIP3    H163049   5.540   6.611   3.963  1.2956 -1.2903  0.5310
13878TIP3    H263050   5.567   6.573   4.107 -0.5797  2.0225  1.8288
13879TIP3   OH263051   1.570   2.577   4.381 -0.0622  0.8638 -0.0303
13879TIP3    H163052   1.652   2.564   4.429  0.0610  2.9707  0.3620
13879TIP3    H263053   1.596   2.626   4.303 -0.9775  1.6828  0.1724
13880TIP3   OH263054   6.048   1.826   1.767  0.1145  0.2446 -0.2093
13880TIP3    H163055   6.109   1.879   1.716  1.9509  1.2222  2.8409
13880TIP3    H263056   5.965   1.874   1.763  0.1667  0.1717 -2.4134
13881TIP3   OH263057   2.663   0.818  14.251  0.5437 -0.3628  0.6468
13881TIP3    H163058   2.720   0.895  14.253  0.1611 -0.0805  0.7865
13881TIP3    H263059   2.655   0.797  14.158  0.4556 -0.0811  0.5873
13882TIP3   OH263060   2.475   5.803  13.153 -0.0770 -0.8273 -0.0688
13882TIP3    H163061   2.391   5.849  13.147 -0.7896 -1.9034  1.2703
13882TIP3    H263062   2.531   5.845  13.089 -0.2122  2.9473  2.1556
13883TIP3   OH263063   5.873   1.520   2.445 -0.5941  0.2360 -0.0645
13883TIP3    H163064   5.949   1.546   2.498 -0.4561  0.3105 -0.2968
13883TIP3    H263065   5.818   1.469   2.505 -0.1433 -0.2024 -0.0198
13884TIP3   OH263066   0.281   0.915   0.834 -0.5695 -0.0818 -0.0028
13884TIP3    H163067   0.310   0.890   0.921 -0.7359 -0.7591 -0.1359
13884TIP3    H263068   0.238   0.999   0.845  1.0198  0.7011  0.2755
13885TIP3   OH263069   5.715   2.560  15.648 -0.8839  0.5800 -0.0553
13885TIP3    H163070   5.810   2.570  15.651 -0.7625 -0.2979 -0.6772
13885TIP3    H263071   5.694   2.506  15.724 -0.6923 -0.5663 -0.8000
13886TIP3   OH263072   6.658   5.445   2.390  0.2810  0.5851 -0.4616
13886TIP3    H163073   6.663   5.523   2.444  1.7292  0.1012  0.1127
13886TIP3    H263074   6.596   5.468   2.320 -0.2134  1.8197  0.3692
13887TIP3   OH263075   2.184   1.605  15.378 -0.2313  0.4205  0.1536
13887TIP3    H163076   2.100   1.560  15.366  0.2214 -0.6964  1.0439
13887TIP3    H263077   2.192   1.662  15.302 -2.5393  1.7217  0.8193
13888TIP3   OH263078   3.762   1.540   5.642 -0.0226  0.1245 -0.1872
13888TIP3    H163079   3.760   1.621   5.691  0.3590  0.4219 -0.6562
13888TIP3    H263080   3.695   1.550   5.575  1.1594  0.7516 -1.3153
13889TIP3   OH263081   1.700   5.493   1.946  0.0955  0.0498 -0.4024
13889TIP3    H163082   1.674   5.452   1.863  0.5020 -0.6704 -0.1788
13889TIP3    H263083   1.653   5.576   1.947 -0.9634 -0.5338 -0.7399
13890TIP3   OH263084   6.192   5.014   3.323  0.3354  0.2945 -0.0403
13890TIP3    H163085   6.108   5.038   3.284 -0.2490  0.8699  1.5552
13890TIP3    H263086   6.242   5.095   3.324 -0.2982  0.6878  1.9894
13891TIP3   OH263087   4.039   0.691  12.137  0.3905  0.6753 -0.3567
13891TIP3    H163088   4.122   0.645  12.129  1.6373  2.8748 -0.5935
13891TIP3    H263089   4.040   0.726  12.226 -1.0800 -0.7224  0.2284
13892TIP3   OH263090   0.373   4.358   3.202 -0.0534  0.2335 -0.1925
13892TIP3    H163091   0.411   4.368   3.115 -0.8187  0.1538 -0.5400
13892TIP3    H263092   0.448   4.362   3.262  0.4901  0.1271 -0.8619
13893TIP3   OH263093   4.999   0.895   6.183 -0.6300 -0.0606 -1.1051
13893TIP3    H163094   5.005   0.800   6.177  1.3846  0.0379 -0.9948
13893TIP3    H263095   5.081   0.921   6.227 -2.1626  1.5243  0.9248
13894TIP3   OH263096   1.495   0.985  13.732  0.0657 -0.3159 -0.2344
13894TIP3    H163097   1.402   1.009  13.728 -0.1445 -0.8077  1.2746
13894TIP3    H263098   1.541   1.067  13.749 -0.3774 -0.4995  1.9585
13895TIP3   OH263099   6.315   4.630  12.892  0.1180  0.8297 -0.3107
13895TIP3    H163100   6.231   4.634  12.847  0.2898 -1.3820 -0.8690
13895TIP3    H263101   6.309   4.698  12.960 -2.1429  0.6566 -0.2967
13896TIP3   OH263102   2.911   5.055   1.812  0.0441 -0.1729 -0.1085
13896TIP3    H163103   2.913   5.138   1.859 -2.1019  0.1436 -0.5034
13896TIP3    H263104   2.889   5.079   1.722  1.2512 -1.0188 -0.6391
13897TIP3   OH263105   1.695   1.592  14.313  1.0075 -0.6953  0.3639
13897TIP3    H163106   1.679   1.521  14.251  1.6861 -0.9780  0.4968
13897TIP3    H263107   1.718   1.667  14.259 -2.4749  0.2305  0.0827
13898TIP3   OH263108   2.292   6.768  11.012 -0.0922 -0.1345  0.0886
13898TIP3    H163109   2.339   6.737  11.090  1.8023 -0.0151 -1.0013
13898TIP3    H263110   2.359   6.805  10.956 -1.6945  1.4483 -0.8392
13899TIP3   OH263111   6.513   4.780  13.954  0.0788 -0.1673  0.2188
13899TIP3    H163112   6.600   4.757  13.987 -0.3996 -1.3743  0.6597
13899TIP3    H263113   6.528   4.801  13.861  0.7426 -0.9340  0.1465
13900TIP3   OH263114   3.593   5.402   1.642  0.2034 -0.3376  0.0105
13900TIP3    H163115   3.537   5.476   1.619  1.2740  0.3033 -0.6285
13900TIP3    H263116   3.682   5.434   1.625  0.7912 -1.1753  1.4351
13901TIP3   OH263117   0.795   5.001  15.049 -0.8212 -0.4985  0.1346
13901TIP3    H163118   0.786   4.972  14.958  0.5838  0.8034 -0.4406
13901TIP3    H263119   0.890   5.002  15.064 -0.8906  2.2568  0.6245
13902TIP3   OH263120   2.832   0.537   4.094 -0.4921 -0.2726 -0.0834
13902TIP3    H163121   2.797   0.524   4.182 -0.8886 -1.3686 -0.3956
13902TIP3    H263122   2.870   0.452   4.070  0.4404  0.2844 -0.6034
13903TIP3   OH263123   3.829   0.782  11.336 -0.1620 -0.7765 -0.3803
13903TIP3    H163124   3.845   0.710  11.275  0.8199 -0.2585 -0.7489
13903TIP3    H263125   3.881   0.855  11.300  0.3635 -0.4505  1.0323
13904TIP3   OH263126   1.576   2.154   3.829 -0.1787  0.3871  0.3749
13904TIP3    H163127   1.619   2.074   3.798 -2.4686 -1.2730  1.2872
13904TIP3    H263128   1.618   2.173   3.912  2.4947  1.9433 -1.2745
13905TIP3   OH263129   4.434   1.637   1.419  0.0859  0.5715  0.2829
13905TIP3    H163130   4.442   1.551   1.379  2.7211  2.0241 -2.5962
13905TIP3    H263131   4.346   1.667   1.397 -0.0195 -0.4490 -0.6688
13906TIP3   OH263132   2.540   6.106   4.256 -0.1018  0.6576 -0.5172
13906TIP3    H163133   2.572   6.160   4.327  1.7806 -1.6694  0.4622
13906TIP3    H263134   2.474   6.050   4.296 -0.9405  1.1654 -1.1829
13907TIP3   OH263135   1.478   0.445  14.886 -0.4998  0.0447  0.3063
13907TIP3    H163136   1.555   0.398  14.919 -0.7583  0.6434  1.7920
13907TIP3    H263137   1.412   0.435  14.955 -1.3871  0.4901 -0.4604
13908TIP3   OH263138   1.112   5.029   3.997  0.1518 -0.6265  0.1477
13908TIP3    H163139   1.026   5.050   3.960 -0.0979 -0.5816  0.7501
13908TIP3    H263140   1.117   4.934   3.994  0.3063 -0.6060 -0.3831
13909TIP3   OH263141   3.704   3.879  11.195 -0.0866  0.1640 -0.6159
13909TIP3    H163142   3.747   3.844  11.117 -0.4783  0.1259 -0.8166
13909TIP3    H263143   3.769   3.870  11.264 -0.9218 -2.9880 -0.1525
13910TIP3   OH263144   0.772   0.795  15.342 -0.7163 -0.4199 -0.1398
13910TIP3    H163145   0.830   0.869  15.327 -2.2644  0.7544 -0.5188
13910TIP3    H263146   0.771   0.784  15.437  2.4209 -2.3667 -0.2973
13911TIP3   OH263147   3.196   2.381  11.300 -0.1579 -0.6809  0.1800
13911TIP3    H163148   3.280   2.352  11.263  0.2999  0.0039  0.6539
13911TIP3    H263149   3.156   2.433  11.231  1.2146  1.5616  1.0080
13912TIP3   OH263150   3.800   4.667  15.265  0.6311 -0.2996 -0.0567
13912TIP3    H163151   3.764   4.656  15.178  0.5903 -1.2459  0.0794
13912TIP3    H263152   3.756   4.601  15.319  1.0705 -0.1070  0.5525
13913TIP3   OH263153   5.201   5.765   0.592  0.0369  0.4799  0.4561
13913TIP3    H163154   5.146   5.752   0.515 -2.6647  1.1463  2.2204
13913TIP3    H263155   5.159   5.836   0.640  2.9814  1.6506  1.3995
13914TIP3   OH263156   2.649   4.310   3.570 -0.5641  0.2095  0.3463
13914TIP3    H163157   2.607   4.248   3.510  0.2200 -0.8273  0.8461
13914TIP3    H263158   2.630   4.275   3.658  0.9304 -0.0161  0.5899
13915TIP3   OH263159   3.916   6.430  11.488 -0.3395 -0.9786 -0.1186
13915TIP3    H163160   3.829   6.455  11.520 -1.6404 -2.6054 -2.2323
13915TIP3    H263161   3.921   6.336  11.503  1.5207 -0.7320  0.9646
13916TIP3   OH263162   2.267   3.349   1.995  0.2031  0.0388  0.4803
13916TIP3    H163163   2.264   3.354   2.090  2.4610  1.5918  0.5185
13916TIP3    H263164   2.175   3.352   1.968 -0.7620 -4.6024  2.7132
13917TIP3   OH263165   3.731   2.889  16.509 -0.1926 -0.2212  0.0373
13917TIP3    H163166   3.674   2.927  16.576  1.8336 -1.1471  2.3399
13917TIP3    H263167   3.710   2.795  16.510 -0.9700 -0.0757 -1.4558
13918TIP3   OH263168   0.977   4.041   1.329 -0.2836  0.1251 -0.4552
13918TIP3    H163169   1.049   3.980   1.344 -0.8078 -0.5025 -0.4716
13918TIP3    H263170   0.906   4.007   1.384 -0.7321  0.4512 -0.8361
13919TIP3   OH263171   0.218   2.710   3.478  0.3374 -0.3635 -0.2609
13919TIP3    H163172   0.268   2.742   3.403  1.2578  0.8144  0.8270
13919TIP3    H263173   0.284   2.685   3.542 -0.4451 -1.1244  0.2672
13920TIP3   OH263174   2.600   6.096   3.587 -0.1208  0.3694  0.8153
13920TIP3    H163175   2.526   6.061   3.636 -0.6115  0.5012  0.1791
13920TIP3    H263176   2.563   6.168   3.536  0.9749  2.2426  2.5659
13921TIP3   OH263177   1.068   2.804   5.392 -0.0746  0.8149 -0.5913
13921TIP3    H163178   1.061   2.727   5.335  0.1961 -0.6892  1.3780
13921TIP3    H263179   1.146   2.850   5.361  1.3924 -1.2110  0.0096
13922TIP3   OH263180   2.167   4.100  11.784 -0.1177 -0.0120  0.2635
13922TIP3    H163181   2.094   4.040  11.767  0.4060 -0.6316  0.1948
13922TIP3    H263182   2.197   4.126  11.697 -1.6953  2.0142  0.2929
13923TIP3   OH263183   5.023   6.685  15.457 -0.0456 -0.0264  0.1755
13923TIP3    H163184   5.073   6.766  15.440  2.0631 -0.9510  1.7239
13923TIP3    H263185   5.048   6.627  15.385 -1.5250  0.6497 -0.9119
13924TIP3   OH263186   4.714   0.497  15.821 -0.2524 -0.0562  0.7432
13924TIP3    H163187   4.657   0.530  15.752 -1.9757 -1.3241  1.4986
13924TIP3    H263188   4.725   0.404  15.800  1.4265  0.1585  0.6830
13925TIP3   OH263189   6.713   6.442   0.905 -0.4270  0.6412  0.3291
13925TIP3    H163190   6.742   6.418   0.993  2.3273 -0.0221 -0.7203
13925TIP3    H263191   6.789   6.483   0.864 -1.1228 -0.5901 -2.3295
13926TIP3   OH263192   4.924   6.470   5.967  0.1310  0.4484 -0.4413
13926TIP3    H163193   4.879   6.404   5.915 -0.1907  0.0910  0.2785
13926TIP3    H263194   4.854   6.530   5.995  0.2970  0.6209 -0.3918
13927TIP3   OH263195   1.667   4.902   2.440  0.0423 -0.0017  0.0390
13927TIP3    H163196   1.659   4.992   2.408  0.9098 -0.0615 -0.3725
13927TIP3    H263197   1.761   4.883   2.434 -0.0539 -0.7130  0.7316
13928TIP3   OH263198   4.048   0.577  12.485  0.5890  0.4119 -0.2728
13928TIP3    H163199   4.070   0.527  12.564  1.4207  0.4954 -0.4507
13928TIP3    H263200   3.952   0.577  12.483  0.5729 -0.2410  0.3227
13929TIP3   OH263201   1.705   4.579  14.920  0.7132 -0.6601 -0.8242
13929TIP3    H163202   1.751   4.547  14.842  0.6383 -1.1004 -0.6881
13929TIP3    H263203   1.775   4.607  14.979  0.7479  0.3367 -1.3299
13930TIP3   OH263204   6.150   6.310   5.270 -0.0117  0.1986  0.0656
13930TIP3    H163205   6.061   6.296   5.240 -0.4520  0.9304  1.0099
13930TIP3    H263206   6.157   6.404   5.283  0.7182  0.0853  0.5635
13931TIP3   OH263207   1.521   6.288  13.407  0.2853  0.5128  0.3702
13931TIP3    H163208   1.581   6.313  13.337 -0.4926 -1.2706 -0.9838
13931TIP3    H263209   1.469   6.367  13.424  1.6290  1.4619  0.1376
13932TIP3   OH263210   4.060   2.553  15.736  0.3948  0.0398  0.9414
13932TIP3    H163211   4.126   2.484  15.745  0.5570  0.0130 -0.3394
13932TIP3    H263212   3.983   2.509  15.701  0.0816  0.2815  1.3193
13933TIP3   OH263213   4.661   2.466  13.799 -0.2450 -0.3126  0.1707
13933TIP3    H163214   4.608   2.387  13.795  1.7843 -1.7310  0.2160
13933TIP3    H263215   4.682   2.487  13.708  1.2027 -1.2695  0.2511
13934TIP3   OH263216   4.687   0.366  13.954  0.0516  0.2893 -0.6514
13934TIP3    H163217   4.601   0.358  13.995 -0.1598 -0.7432 -1.2743
13934TIP3    H263218   4.684   0.305  13.880  1.0598  0.7971 -1.1180
13935TIP3   OH263219   5.736   2.254   1.563  0.3686 -0.0797  0.2637
13935TIP3    H163220   5.663   2.261   1.501 -0.3875 -1.5772  0.9625
13935TIP3    H263221   5.812   2.233   1.509 -0.1247 -0.5406 -0.2585
13936TIP3   OH263222   5.811   1.857  13.280  0.3219  0.3909  0.2210
13936TIP3    H163223   5.832   1.871  13.188 -2.7665  0.6671 -0.5048
13936TIP3    H263224   5.895   1.837  13.322  2.0317  1.9878 -2.3139
13937TIP3   OH263225   4.802   1.497  14.275  0.2787  0.3012 -0.3764
13937TIP3    H163226   4.746   1.539  14.340 -0.2951  0.2900 -0.8594
13937TIP3    H263227   4.775   1.406  14.274 -0.4553  0.5298 -1.4096
13938TIP3   OH263228   1.580   0.060  13.702  0.0655  0.1151  0.7671
13938TIP3    H163229   1.631   0.035  13.779  0.0123  0.6232  0.9714
13938TIP3    H263230   1.646   0.071  13.633 -0.0068 -1.5389  0.4108
13939TIP3   OH263231   6.628   5.758   1.801 -0.4969  0.3248 -0.5336
13939TIP3    H163232   6.647   5.703   1.877 -1.5735  1.5872  0.7024
13939TIP3    H263233   6.604   5.697   1.732  2.1829 -0.9466 -0.3828
13940TIP3   OH263234   0.366   3.024  16.125 -0.0467 -0.1119 -0.0850
13940TIP3    H163235   0.426   3.060  16.191  0.6366 -0.7113 -0.3774
13940TIP3    H263236   0.423   2.991  16.056 -0.7574  0.3164 -0.8871
13941TIP3   OH263237   3.492   2.195  14.100  0.3284 -0.3292 -0.8526
13941TIP3    H163238   3.419   2.173  14.041 -0.3062 -0.8950  0.1245
13941TIP3    H263239   3.465   2.160  14.185  1.2710  0.4149 -0.2410
13942TIP3   OH263240   0.415   2.278  16.934 -0.1338 -0.3680  0.0848
13942TIP3    H163241   0.392   2.249  17.023  0.1441 -0.4311  0.1390
13942TIP3    H263242   0.365   2.220  16.877  0.4354 -0.9786  0.1884
13943TIP3   OH263243   6.441   4.588   1.502  0.3048  0.5540  0.0053
13943TIP3    H163244   6.514   4.649   1.518  1.7245 -0.4383 -2.3926
13943TIP3    H263245   6.374   4.643   1.461  0.6772  0.9771 -0.0525
13944TIP3   OH263246   5.229   4.978  12.390  0.1474  0.4147 -0.3506
13944TIP3    H163247   5.288   5.054  12.391  0.4344  0.1890  0.0826
13944TIP3    H263248   5.156   5.003  12.447  0.9925 -0.2215  1.0341
13945TIP3   OH263249   1.384   4.594  11.579  0.9820  0.0638  0.0985
13945TIP3    H163250   1.324   4.563  11.512  0.4491 -1.6827  1.3322
13945TIP3    H263251   1.454   4.639  11.531 -0.0650 -0.0099 -1.5102
13946TIP3   OH263252   2.125   2.560  15.262 -0.3491 -0.4333  0.9219
13946TIP3    H163253   2.099   2.505  15.188 -2.3035  0.5466  0.8723
13946TIP3    H263254   2.062   2.539  15.331 -0.9650  1.5772  0.9809
13947TIP3   OH263255   5.427   5.084  10.738 -0.0969  0.8105  0.7052
13947TIP3    H163256   5.391   5.145  10.803  2.9796 -0.4880  3.7620
13947TIP3    H263257   5.508   5.125  10.709 -0.0109  0.0124 -0.1909
13948TIP3   OH263258   1.990   4.579   3.058 -0.1223  0.0187 -0.2108
13948TIP3    H163259   1.996   4.515   2.987  1.3115 -1.3776  1.1449
13948TIP3    H263260   2.034   4.657   3.023 -0.9754 -0.0432 -1.4850
13949TIP3   OH263261   5.943   3.564   1.816 -0.0495 -0.1893 -0.0792
13949TIP3    H163262   5.996   3.508   1.872 -1.1657 -0.8978  0.2902
13949TIP3    H263263   6.004   3.596   1.749  1.2022  0.3622  1.2992
13950TIP3   OH263264   3.611   2.949   0.573 -0.3199 -0.1283  0.1707
13950TIP3    H163265   3.605   3.034   0.617 -2.3421 -1.2628  2.1709
13950TIP3    H263266   3.677   2.901   0.623  1.1120  0.3797 -1.1997
13951TIP3   OH263267   2.297   3.495  15.171  0.5878 -0.4132 -0.3480
13951TIP3    H163268   2.298   3.589  15.153 -0.0809 -0.6986 -1.9102
13951TIP3    H263269   2.281   3.489  15.266 -1.4018  1.0233 -0.5595
13952TIP3   OH263270   4.130   5.495   1.669 -0.0052 -0.0182 -0.0918
13952TIP3    H163271   4.111   5.568   1.728 -4.4139 -0.9272 -0.2117
13952TIP3    H263272   4.106   5.527   1.582 -0.9435 -1.2637 -0.2993
13953TIP3   OH263273   5.907   4.978   3.759  0.0491 -0.0720  0.5111
13953TIP3    H163274   5.814   4.983   3.737 -0.7981  0.4713  3.8422
13953TIP3    H263275   5.931   4.887   3.742 -1.0740 -0.2039 -0.4085
13954TIP3   OH263276   6.272   6.543  16.341 -0.2163 -0.4023  0.4352
13954TIP3    H163277   6.352   6.492  16.357  0.7135  0.4684 -1.3111
13954TIP3    H263278   6.289   6.628  16.381  1.1215  0.9302 -2.8109
13955TIP3   OH263279   3.452   1.427   4.047 -0.5380 -0.4288  0.0526
13955TIP3    H163280   3.540   1.389   4.043 -1.3903 -2.5271  0.1723
13955TIP3    H263281   3.441   1.470   3.963  0.3023 -0.8644 -0.2892
13956TIP3   OH263282   5.539   4.874   6.573  0.0807  0.0593  0.1748
13956TIP3    H163283   5.481   4.910   6.506  0.4475  1.8747  0.8035
13956TIP3    H263284   5.620   4.926   6.564  0.5576 -0.4982  1.2230
13957TIP3   OH263285   4.686   5.699   2.440  0.1597 -0.3801  0.0551
13957TIP3    H163286   4.776   5.706   2.471 -0.3003  1.9077  0.9902
13957TIP3    H263287   4.645   5.781   2.468 -1.7853 -0.6983 -1.7385
13958TIP3   OH263288   1.051   4.992   1.219  0.3130  0.4108  0.6132
13958TIP3    H163289   1.077   4.915   1.269  1.8616  2.0801  2.4669
13958TIP3    H263290   1.042   5.061   1.284 -0.6269  1.9095 -1.0658
13959TIP3   OH263291   0.605   2.538   0.894 -0.2106 -0.4007 -0.4508
13959TIP3    H163292   0.560   2.520   0.977  0.2131  0.1822 -0.0903
13959TIP3    H263293   0.697   2.549   0.918  0.1924 -1.8962 -1.2268
13960TIP3   OH263294   0.300   5.199   0.467 -0.2765  0.3077  0.7014
13960TIP3    H163295   0.216   5.203   0.421 -0.0720  1.5325  0.4237
13960TIP3    H263296   0.282   5.236   0.553  0.1525  1.2953  0.3710
13961TIP3   OH263297   4.345   1.203  14.092  0.0375 -0.2694  0.4897
13961TIP3    H163298   4.276   1.206  14.158 -0.7157 -0.1365 -0.2887
13961TIP3    H263299   4.402   1.276  14.112 -1.6049  1.3294 -0.5201
13962TIP3   OH263300   3.420   0.844  15.873 -0.8620 -0.3844  0.1569
13962TIP3    H163301   3.504   0.809  15.903 -2.0820 -3.0189  0.7091
13962TIP3    H263302   3.424   0.840  15.778 -0.5518 -1.0641  0.1934
13963TIP3   OH263303   4.805   5.003  14.939 -0.3511 -0.0431  0.5180
13963TIP3    H163304   4.835   4.941  14.873 -1.0517  0.9615 -0.7712
13963TIP3    H263305   4.879   5.013  14.999 -0.0677 -1.7240  0.4547
13964TIP3   OH263306   1.941   1.232  16.919 -0.2085 -0.3441  0.4445
13964TIP3    H163307   1.854   1.222  16.957  0.6431 -1.5044  2.1657
13964TIP3    H263308   2.000   1.229  16.994  1.4928 -2.1983 -0.8993
13965TIP3   OH263309   1.493   2.853   3.686  0.0896 -0.5049 -0.2839
13965TIP3    H163310   1.399   2.861   3.667  0.1682  1.2073 -0.0344
13965TIP3    H263311   1.521   2.776   3.636 -1.1581 -0.1806 -1.5071
13966TIP3   OH263312   5.378   6.558  15.347 -0.1973 -0.3762 -0.0632
13966TIP3    H163313   5.455   6.501  15.354 -0.6868 -1.0570 -0.2023
13966TIP3    H263314   5.307   6.500  15.322 -0.9449  0.1081  0.8796
13967TIP3   OH263315   3.253   4.635  16.733  0.1000  0.2084 -0.0404
13967TIP3    H163316   3.223   4.708  16.679  1.0766  0.2279 -0.5532
13967TIP3    H263317   3.176   4.579  16.741  1.0050 -1.9965 -5.0298
13968TIP3   OH263318   0.714   3.636   0.576  0.1630  0.1357  0.4091
13968TIP3    H163319   0.690   3.589   0.496  1.2930 -0.3425  0.3417
13968TIP3    H263320   0.638   3.692   0.595 -0.4457 -0.3612 -0.5298
13969TIP3   OH263321   2.871   0.986   2.423 -0.3709  0.2473 -0.0569
13969TIP3    H163322   2.903   1.059   2.475 -0.7512  0.8044 -0.6053
13969TIP3    H263323   2.911   0.998   2.337  0.4190 -0.7851  0.1532
13970TIP3   OH263324   3.335   5.871  16.500  0.2538  0.9386 -0.7313
13970TIP3    H163325   3.369   5.782  16.486 -1.4216  0.0716  0.4593
13970TIP3    H263326   3.407   5.928  16.474  1.8738 -0.7984 -0.2494
13971TIP3   OH263327   2.056   3.372   5.535  0.7658  0.1286 -0.9897
13971TIP3    H163328   2.057   3.464   5.509  0.6747 -0.2470 -2.3454
13971TIP3    H263329   2.031   3.325   5.456 -0.1367 -0.9932 -0.0583
13972TIP3   OH263330   2.579   3.478   5.027  0.1651  0.9527  0.4092
13972TIP3    H163331   2.518   3.408   5.051  1.8018 -0.0704  1.7382
13972TIP3    H263332   2.545   3.556   5.072 -0.3987  0.4853  0.8080
13973TIP3   OH263333   3.341   6.310   1.675  0.0216 -0.4938  0.1736
13973TIP3    H163334   3.276   6.356   1.622  1.6361  1.0210 -0.5412
13973TIP3    H263335   3.423   6.322   1.628  1.2323 -0.3483  2.2632
13974TIP3   OH263336   6.758   5.185  15.007 -0.2077  0.2341  0.1279
13974TIP3    H163337   6.803   5.180  14.922 -2.3213  1.0993 -1.0682
13974TIP3    H263338   6.737   5.095  15.029  3.5621 -0.4001  1.5511
13975TIP3   OH263339   6.378   1.511  10.839 -0.1928  0.3954  0.3059
13975TIP3    H163340   6.370   1.534  10.746  1.1155 -2.2477 -0.5189
13975TIP3    H263341   6.376   1.594  10.885 -2.5878  1.6510 -1.9571
13976TIP3   OH263342   3.868   4.601  11.096  0.1844 -0.4831 -0.3653
13976TIP3    H163343   3.868   4.579  11.189  0.0486  1.2657  0.0588
13976TIP3    H263344   3.960   4.602  11.071  0.2800  0.1874  0.0205
13977TIP3   OH263345   0.804   4.471   4.677  0.3220  0.5090 -0.3103
13977TIP3    H163346   0.749   4.395   4.691  2.4505 -0.9932  0.1703
13977TIP3    H263347   0.775   4.507   4.593 -1.2556 -0.3234 -0.1344
13978TIP3   OH263348   4.600   4.091   2.184  0.8281 -0.3958 -0.0794
13978TIP3    H163349   4.689   4.063   2.204  1.4858  1.3214 -0.5951
13978TIP3    H263350   4.563   4.018   2.134  2.5629 -0.3456 -1.5008
13979TIP3   OH263351   3.548   0.888  12.222 -0.3213  0.5775  0.1087
13979TIP3    H163352   3.470   0.833  12.234 -0.3284  0.2274 -1.4066
13979TIP3    H263353   3.605   0.836  12.166  0.9453  0.9085  1.0814
13980TIP3   OH263354   5.062   1.336   3.435  0.5454 -0.4504  0.1634
13980TIP3    H163355   5.151   1.366   3.451  0.8325 -1.3935  0.3398
13980TIP3    H263356   5.020   1.338   3.521  0.2929  0.3166  0.0256
13981TIP3   OH263357   2.066   6.118   3.378 -0.5028  0.2762 -0.0761
13981TIP3    H163358   2.131   6.081   3.318 -0.5469  0.4668 -0.2413
13981TIP3    H263359   1.982   6.098   3.338 -0.4940  1.8625 -0.9447
13982TIP3   OH263360   2.263   0.377  12.225  0.0522  0.0079 -0.1040
13982TIP3    H163361   2.168   0.371  12.224  0.1063 -1.9443  2.5351
13982TIP3    H263362   2.293   0.290  12.197  1.0492  0.1874  0.3858
13983TIP3   OH263363   2.290   2.737   1.459 -0.7255  0.0355  0.2496
13983TIP3    H163364   2.197   2.755   1.446 -0.8457  0.3274  1.3998
13983TIP3    H263365   2.320   2.809   1.515  0.0002 -0.5054  0.5556
13984TIP3   OH263366   0.582   1.291   3.185 -0.4094  0.3016  0.1217
13984TIP3    H163367   0.498   1.245   3.175 -0.3063  0.4266 -1.4212
13984TIP3    H263368   0.559   1.375   3.225 -1.7051  2.4126 -4.7037
13985TIP3   OH263369   5.956   0.206   6.208  0.0738 -0.0003  0.4634
13985TIP3    H163370   5.920   0.251   6.131  0.1034  0.9870  1.0137
13985TIP3    H263371   5.917   0.252   6.283  0.4010 -0.6550  1.0367
13986TIP3   OH263372   2.955   2.215   1.016  0.1981  0.1080 -0.4847
13986TIP3    H163373   3.022   2.283   1.020  0.1177  0.1797 -0.3587
13986TIP3    H263374   2.900   2.231   1.093 -0.7145  0.8205 -1.2748
13987TIP3   OH263375   1.734   6.064  14.619  0.4748  0.6576  0.0137
13987TIP3    H163376   1.774   6.053  14.533 -0.5542 -1.2020 -0.2540
13987TIP3    H263377   1.657   6.007  14.617  1.1367 -0.4119  2.6075
13988TIP3   OH263378   1.618   5.660   6.113 -0.1703  0.3485  0.0066
13988TIP3    H163379   1.670   5.619   6.044 -1.3521 -0.9474 -0.1433
13988TIP3    H263380   1.534   5.679   6.070 -0.7617 -0.0842  0.9595
13989TIP3   OH263381   5.196   0.988   1.767  0.0369  0.1156 -0.2910
13989TIP3    H163382   5.241   1.041   1.833  1.2797 -0.0806 -0.9697
13989TIP3    H263383   5.176   1.050   1.697 -1.0871  0.2779  0.1653
13990TIP3   OH263384   6.548   1.625  15.367  0.8661  0.0639 -0.2598
13990TIP3    H163385   6.611   1.558  15.395 -0.3965 -1.3849 -0.7877
13990TIP3    H263386   6.573   1.644  15.276  0.3206 -0.8163 -0.6091
13991TIP3   OH263387   6.100   4.326  13.558 -0.3139  0.2582 -0.3085
13991TIP3    H163388   6.143   4.410  13.571 -0.6050  0.4287 -0.4463
13991TIP3    H263389   6.043   4.339  13.482  0.6781 -0.4582 -1.1996
13992TIP3   OH263390   4.247   3.682  15.084 -0.7387 -0.0092 -0.0709
13992TIP3    H163391   4.256   3.734  15.004  0.1282 -0.3818 -0.2170
13992TIP3    H263392   4.166   3.632  15.071  0.8226 -2.1587 -1.9341
13993TIP3   OH263393   6.334   3.222  13.463 -0.4497 -0.1252  0.2578
13993TIP3    H163394   6.348   3.200  13.555  1.6972 -1.6632 -0.3733
13993TIP3    H263395   6.327   3.137  13.419 -2.0275  0.5999 -0.9254
13994TIP3   OH263396   3.063   5.998   1.016 -0.2625 -0.1501 -0.2389
13994TIP3    H163397   3.128   6.065   0.998 -1.2965  0.9317 -0.0487
13994TIP3    H263398   3.003   6.001   0.941 -2.0195  1.2643  1.1528
13995TIP3   OH263399   0.912   0.476  10.636 -0.0409  0.5922  0.0260
13995TIP3    H163400   0.985   0.533  10.657 -0.8130  2.0582 -1.1318
13995TIP3    H263401   0.836   0.534  10.635 -0.9783 -0.6137 -0.3213
13996TIP3   OH263402   6.751   2.884  11.087 -0.6281  0.3457 -0.0751
13996TIP3    H163403   6.825   2.842  11.044 -0.3453  0.8804 -0.1163
13996TIP3    H263404   6.750   2.973  11.050  0.1207  1.0760  1.6437
13997TIP3   OH263405   3.991   2.147  16.583 -0.3403 -0.3432 -0.3263
13997TIP3    H163406   3.932   2.085  16.625  0.8006 -1.9709 -1.0644
13997TIP3    H263407   3.986   2.125  16.490 -2.0641  2.5441 -0.9629
13998TIP3   OH263408   3.189   0.183  11.116 -0.4271  0.1321  0.2271
13998TIP3    H163409   3.132   0.108  11.103  0.3632 -0.1060 -2.0613
13998TIP3    H263410   3.148   0.255  11.067  0.7821  0.1644 -0.7794
13999TIP3   OH263411   4.300   0.208  14.590  0.0708 -0.1046  0.2628
13999TIP3    H163412   4.306   0.155  14.510 -0.4690  1.7958 -1.0818
13999TIP3    H263413   4.207   0.228  14.598  0.4764  2.1045 -0.2734
14000TIP3   OH263414   0.866   0.097  13.306  0.2882  0.1044 -0.1432
14000TIP3    H163415   0.941   0.075  13.250  1.8674 -1.5370  2.4803
14000TIP3    H263416   0.866   0.192  13.310  1.4838  0.1612 -1.1732
14001TIP3   OH263417   1.937   0.958   1.602 -0.1956  0.4368  0.3141
14001TIP3    H163418   1.970   1.046   1.584 -1.0451  0.4618 -1.2371
14001TIP3    H263419   1.883   0.969   1.681 -0.8194  1.4532 -0.2302
14002TIP3   OH263420   0.577   0.889  12.173  0.4878  0.3173  0.1529
14002TIP3    H163421   0.640   0.961  12.172 -0.1516  0.8775 -0.1586
14002TIP3    H263422   0.547   0.884  12.263  1.2699 -0.2075  0.3854
14003TIP3   OH263423   1.569   5.184  16.789 -0.5500  0.3382  0.2754
14003TIP3    H163424   1.620   5.176  16.708  0.3480  0.2301  0.8404
14003TIP3    H263425   1.568   5.095  16.825  0.2834  0.6624  1.1142
14004TIP3   OH263426   4.826   0.177  11.423 -0.1885  0.6628  0.4287
14004TIP3    H163427   4.838   0.099  11.477 -0.5333  0.2900 -0.0280
14004TIP3    H263428   4.915   0.203  11.400 -0.0730  0.3680  0.5337
14005TIP3   OH263429   5.717   3.930   1.517 -0.2500 -0.2895 -0.6731
14005TIP3    H163430   5.811   3.951   1.516 -0.3035  0.5241  3.1721
14005TIP3    H263431   5.682   3.983   1.588 -3.3936 -1.6306 -1.1673
14006TIP3   OH263432   4.450   2.826   5.754  0.3604  0.3832  0.7778
14006TIP3    H163433   4.481   2.766   5.686 -0.6291 -0.2975  0.9161
14006TIP3    H263434   4.441   2.770   5.832  0.3402  0.9082  1.1535
14007TIP3   OH263435   3.133   5.399   1.754  0.3238 -0.4922 -0.0767
14007TIP3    H163436   3.113   5.341   1.681  0.9874 -1.2077  0.3068
14007TIP3    H263437   3.066   5.379   1.820  0.7971 -1.1070  0.2156
14008TIP3   OH263438   1.571   6.246   3.282 -0.1421 -0.8127 -0.6844
14008TIP3    H163439   1.507   6.176   3.297  0.8669 -1.2262  1.9685
14008TIP3    H263440   1.587   6.244   3.187 -3.4487 -1.1853 -1.2915
14009TIP3   OH263441   6.212   5.252   6.392 -0.2720  0.1702 -0.4005
14009TIP3    H163442   6.161   5.217   6.464 -0.3137 -1.2846 -1.1227
14009TIP3    H263443   6.275   5.183   6.371  0.7086  1.1648 -0.7886
14010TIP3   OH263444   1.241   5.932  11.435  0.3393 -0.6498 -0.0886
14010TIP3    H163445   1.221   5.926  11.529 -0.2270 -1.4111 -0.2565
14010TIP3    H263446   1.171   5.985  11.399  2.3478  2.5201  0.4527
14011TIP3   OH263447   6.770   5.675  14.298 -0.6628  0.1917 -0.2564
14011TIP3    H163448   6.675   5.676  14.284 -1.0597  0.5929  2.1030
14011TIP3    H263449   6.791   5.766  14.321  0.4975  0.3535 -1.9382
14012TIP3   OH263450   6.515   0.041   1.823 -0.0438 -0.6340 -0.2793
14012TIP3    H163451   6.603   0.006   1.839  0.7688  1.5526  0.1373
14012TIP3    H263452   6.477  -0.020   1.760  1.8135 -1.5633 -0.5443
14013TIP3   OH263453   3.811   1.863  14.632  0.6734  0.0459 -0.0119
14013TIP3    H163454   3.812   1.801  14.559  3.5255 -0.2384  0.2091
14013TIP3    H263455   3.840   1.946  14.594 -1.8290  0.9358 -0.0279
14014TIP3   OH263456   5.863   0.548  16.320 -0.2042  0.0161  0.4703
14014TIP3    H163457   5.830   0.593  16.242  0.4970 -0.5616 -0.1746
14014TIP3    H263458   5.786   0.534  16.375 -0.7471  0.2066 -0.2410
14015TIP3   OH263459   4.912   6.151  13.097 -0.1226  0.7640  0.2915
14015TIP3    H163460   4.868   6.223  13.053  0.9366  0.2951 -1.5670
14015TIP3    H263461   4.961   6.106  13.028  2.3454  0.5678  2.0675
14016TIP3   OH263462   3.195   4.587   0.599 -0.1033 -0.4384  0.5909
14016TIP3    H163463   3.120   4.627   0.556 -0.5580  0.2986  2.0407
14016TIP3    H263464   3.169   4.496   0.612  0.5387 -0.9999 -1.8010
14017TIP3   OH263465   0.985   5.728   4.242 -0.3404 -0.0298 -0.1321
14017TIP3    H163466   0.953   5.753   4.329 -0.8208  1.4484 -0.7279
14017TIP3    H263467   1.050   5.660   4.260 -0.5453  0.1450  1.3743
14018TIP3   OH263468   1.718   4.897   5.343  0.2228 -0.2016  0.5960
14018TIP3    H163469   1.763   4.981   5.334  0.5087 -0.2409  1.6460
14018TIP3    H263470   1.752   4.859   5.424 -1.3881 -0.4230  1.1973
14019TIP3   OH263471   1.529   1.102   5.172  0.4837  0.3063  0.4210
14019TIP3    H163472   1.472   1.174   5.199 -2.3568 -1.2617 -1.1408
14019TIP3    H263473   1.504   1.084   5.081 -0.6018 -4.1691  1.4740
14020TIP3   OH263474   3.787   4.005  12.070  0.3272 -0.1778  0.4112
14020TIP3    H163475   3.751   4.040  12.152 -2.3887 -1.4205 -0.2165
14020TIP3    H263476   3.759   4.067  12.003  2.1004  0.5492  0.3135
14021TIP3   OH263477   3.135   2.787  15.655  0.5345 -0.3254  0.4630
14021TIP3    H163478   3.114   2.881  15.650 -2.5608 -0.9752 -0.1602
14021TIP3    H263479   3.162   2.764  15.567  1.9078  0.0880  0.7642
14022TIP3   OH263480   4.086   3.389  16.929  0.0071 -0.2581 -0.5751
14022TIP3    H163481   4.181   3.402  16.918 -0.0294 -0.3984 -1.0595
14022TIP3    H263482   4.063   3.447  17.002  0.5548 -0.6156 -0.1066
14023TIP3   OH263483   0.298   3.015  16.430  0.5112  0.4892 -0.0687
14023TIP3    H163484   0.295   3.059  16.345 -0.9607  0.1270 -0.2176
14023TIP3    H263485   0.206   3.004  16.455  0.9191  0.3059  1.4231
14024TIP3   OH263486   2.425   2.462  16.440 -0.2011 -0.1924 -0.4024
14024TIP3    H163487   2.364   2.448  16.367  1.7520 -1.3875 -1.8364
14024TIP3    H263488   2.510   2.438  16.405  0.6765 -1.4305  2.5088
14025TIP3   OH263489   0.210   3.636  11.459 -0.8229 -0.2259  0.1414
14025TIP3    H163490   0.195   3.719  11.503 -0.6990  1.1320 -2.2646
14025TIP3    H263491   0.160   3.572  11.510 -0.7463  1.2736  2.1460
14026TIP3   OH263492   0.889   0.527  16.834 -0.0253 -0.1029 -0.1667
14026TIP3    H163493   0.823   0.518  16.765  0.0792 -0.8992 -0.1702
14026TIP3    H263494   0.890   0.620  16.854 -0.2258  0.1015 -1.0784
14027TIP3   OH263495   4.079   4.447  12.986  0.2546 -0.3065 -0.0669
14027TIP3    H163496   4.137   4.377  12.954  0.3404  0.0043 -0.6007
14027TIP3    H263497   4.053   4.494  12.907 -0.0983  0.0409  0.2563
14028TIP3   OH263498   2.001   4.808   0.295 -0.3108  0.2890  0.0294
14028TIP3    H163499   2.007   4.796   0.389 -1.7072  1.3518  0.2714
14028TIP3    H263500   2.053   4.887   0.277 -1.2145  0.9134  0.1164
14029TIP3   OH263501   2.645   5.032   1.713  0.3940  0.1178 -0.7898
14029TIP3    H163502   2.682   4.947   1.740 -0.8993 -0.1912  0.0777
14029TIP3    H263503   2.588   5.011   1.639 -2.2586 -0.2822  1.2645
14030TIP3   OH263504   2.857   3.931   0.083 -0.1778  0.6102  0.8011
14030TIP3    H163505   2.931   3.871   0.087 -1.2582 -1.0634 -2.4514
14030TIP3    H263506   2.797   3.902   0.151 -0.9786 -2.5091 -1.1393
14031TIP3   OH263507   4.849   2.990  15.975 -0.4979 -0.2678  0.5266
14031TIP3    H163508   4.759   2.960  15.968  0.0616 -1.3539 -3.3626
14031TIP3    H263509   4.873   3.014  15.885  3.4517 -1.1144  1.2735
14032TIP3   OH263510   4.885   4.181   1.227  0.1071 -0.3262 -0.0267
14032TIP3    H163511   4.903   4.272   1.251 -1.2006 -0.0219 -0.1513
14032TIP3    H263512   4.847   4.143   1.306 -3.3737  0.4298 -1.2544
14033TIP3   OH263513   0.492   4.716  14.366  0.3920 -0.2941 -0.4517
14033TIP3    H163514   0.580   4.742  14.337  0.2650 -1.0961 -1.5717
14033TIP3    H263515   0.502   4.626  14.397  0.4552  0.4434  1.7438
14034TIP3   OH263516   1.418   6.428   5.144  0.5254  0.1129  0.4160
14034TIP3    H163517   1.376   6.508   5.112  0.9826  0.3671  0.4401
14034TIP3    H263518   1.400   6.428   5.238 -0.1207 -0.2086  0.2946
14035TIP3   OH263519   4.004   3.206  12.741  0.3219 -0.3421  0.0550
14035TIP3    H163520   4.077   3.145  12.733  0.4956 -0.0508 -0.6644
14035TIP3    H263521   3.927   3.149  12.748  0.5576 -0.6473  0.2156
14036TIP3   OH263522   5.976   1.363  11.786 -0.4101 -0.2654 -0.9820
14036TIP3    H163523   5.932   1.367  11.701  0.4970 -0.0102 -1.4460
14036TIP3    H263524   6.049   1.302  11.772 -0.8422 -0.9804 -0.1186
14037TIP3   OH263525   4.286   0.444   4.584  0.4320 -0.6793 -0.4901
14037TIP3    H163526   4.256   0.391   4.510  0.9490  0.8695 -1.8376
14037TIP3    H263527   4.372   0.476   4.557  0.9631 -0.7003  1.1103
14038TIP3   OH263528   3.078   2.093  14.387  0.0702  0.9280  0.3031
14038TIP3    H163529   3.034   2.133  14.463  0.0491 -0.9053  1.2806
14038TIP3    H263530   3.013   2.031  14.352  0.7095  0.5255 -0.1735
14039TIP3   OH263531   0.075   6.309   1.591 -0.0062 -0.2384 -0.2449
14039TIP3    H163532   0.011   6.248   1.555 -0.0024 -0.6760  0.4811
14039TIP3    H263533   0.109   6.266   1.669  1.2838 -0.0691 -0.6963
14040TIP3   OH263534   3.326   0.036  15.436 -0.2897  0.5427  0.2964
14040TIP3    H163535   3.366  -0.040  15.480  2.7992  1.5935 -0.5831
14040TIP3    H263536   3.346   0.109  15.494 -0.4983  1.1676 -0.4241
14041TIP3   OH263537   4.635   5.624   1.886 -0.6839  0.5235 -0.4219
14041TIP3    H163538   4.680   5.700   1.848  1.7555 -2.1718 -3.1744
14041TIP3    H263539   4.571   5.599   1.819  0.1620 -1.2385 -0.5878
14042TIP3   OH263540   0.396   5.379   6.323  0.6629  0.0045  0.2278
14042TIP3    H163541   0.408   5.409   6.233  2.5475  0.3151  0.5694
14042TIP3    H263542   0.305   5.401   6.343  0.3683  0.3766 -1.4298
14043TIP3   OH263543   1.768   0.034   3.129  0.0641  0.0567  0.5910
14043TIP3    H163544   1.858   0.006   3.110  0.0656  0.3269  0.2053
14043TIP3    H263545   1.760   0.120   3.087 -0.3047  0.1314  0.8120
14044TIP3   OH263546   2.458   0.051   4.543  0.6476 -0.1353 -0.7692
14044TIP3    H163547   2.394   0.064   4.613  1.1642  1.4931 -0.5726
14044TIP3    H263548   2.517  -0.016   4.577 -1.9512 -3.0194 -1.6823
14045TIP3   OH263549   6.308   5.300  11.787 -0.3496  0.9506 -0.5201
14045TIP3    H163550   6.249   5.250  11.730  0.7520  0.4817 -1.2589
14045TIP3    H263551   6.395   5.287  11.749  0.7451 -1.2893  2.6294
14046TIP3   OH263552   5.755   4.643   3.116  0.2825 -0.5658  0.6504
14046TIP3    H163553   5.742   4.548   3.117 -0.0710 -0.6063 -2.2088
14046TIP3    H263554   5.740   4.668   3.025  1.5464  2.0858  1.1133
14047TIP3   OH263555   2.346   1.579   1.054  0.3911 -0.3406 -0.0764
14047TIP3    H163556   2.285   1.602   0.985  1.1427  1.1932 -0.2420
14047TIP3    H263557   2.418   1.535   1.007  0.9624  0.8140 -0.3051
14048TIP3   OH263558   3.603   5.911   0.925  0.5126 -0.5066  0.2773
14048TIP3    H163559   3.611   5.995   0.970 -0.9152 -0.3735  0.3094
14048TIP3    H263560   3.568   5.852   0.991 -1.3243 -0.3797 -0.5615
14049TIP3   OH263561   0.277   2.420  16.643  0.0248 -0.0345 -0.0776
14049TIP3    H163562   0.314   2.506  16.663 -0.6234  0.2976 -0.2779
14049TIP3    H263563   0.344   2.358  16.672  0.0527  0.5021  1.0636
14050TIP3   OH263564   0.773   4.043   2.711 -0.1496 -0.1030 -0.0164
14050TIP3    H163565   0.700   4.095   2.745  1.4026  0.1391  3.1495
14050TIP3    H263566   0.749   3.953   2.732 -0.4257 -0.1927 -0.7231
14051TIP3   OH263567   0.779   0.321   2.189  0.1216  0.1640 -0.0687
14051TIP3    H163568   0.838   0.305   2.263  2.0453 -1.6592 -1.9463
14051TIP3    H263569   0.779   0.239   2.140 -3.6770  0.2575 -0.3862
14052TIP3   OH263570   0.355   1.962   3.593  0.1359  0.0696 -0.3667
14052TIP3    H163571   0.395   1.977   3.508 -1.7395  1.1539 -1.0700
14052TIP3    H263572   0.262   1.950   3.575 -0.6203  2.3695  1.7139
14053TIP3   OH263573   5.975   1.394   6.551 -0.0143 -0.1033  0.2019
14053TIP3    H163574   5.921   1.448   6.608  0.1227  0.2647 -0.0093
14053TIP3    H263575   5.950   1.421   6.462  0.8331  0.3886  0.1098
14054TIP3   OH263576   1.929   0.772  15.778  0.1501 -0.2263  0.1781
14054TIP3    H163577   1.853   0.805  15.730  0.1456  1.0436  1.0457
14054TIP3    H263578   1.967   0.850  15.819  2.0165 -0.8186 -0.3780
14055TIP3   OH263579   6.322   4.211  11.481  0.3580  0.4348  0.1228
14055TIP3    H163580   6.250   4.183  11.425  0.1413 -0.3665  0.8024
14055TIP3    H263581   6.363   4.130  11.510  0.6369  0.8549  0.9180
14056TIP3   OH263582   4.738   3.520  14.646  0.0761  0.0073 -0.2146
14056TIP3    H163583   4.677   3.531  14.719  0.0166  0.5519 -0.3451
14056TIP3    H263584   4.746   3.426  14.635 -0.6862 -0.0701 -0.1446
14057TIP3   OH263585   0.699   5.102  11.199  0.0074  0.1680 -0.4680
14057TIP3    H163586   0.614   5.108  11.156 -0.4470 -0.0435  0.3961
14057TIP3    H263587   0.755   5.163  11.149 -0.4066 -0.3358 -1.5699
14058TIP3   OH263588   6.747   6.619  12.106  0.1477 -0.0714 -0.1971
14058TIP3    H163589   6.723   6.712  12.107  2.5885  0.5988  0.9646
14058TIP3    H263590   6.717   6.587  12.021 -1.9195  1.4495 -0.0599
14059TIP3   OH263591   6.328   3.320  11.240  0.2710  0.5606  0.3858
14059TIP3    H163592   6.389   3.332  11.312  0.7987  0.5025 -0.0430
14059TIP3    H263593   6.363   3.246  11.191 -0.5424  0.0758  0.5369
14060TIP3   OH263594   5.486   6.340  13.329  0.1312 -0.0769  0.2547
14060TIP3    H163595   5.489   6.417  13.387 -1.3296  0.4414 -0.3441
14060TIP3    H263596   5.577   6.313  13.321  0.4415  0.3094  2.1891
14061TIP3   OH263597   4.840   6.354  12.611 -0.4326 -0.5300 -0.0594
14061TIP3    H163598   4.885   6.415  12.552  1.2884 -1.5280  0.1915
14061TIP3    H263599   4.859   6.267  12.575 -0.9128 -1.0549  0.9272
14062TIP3   OH263600   1.140   2.676  14.926 -0.1637 -0.0389  0.6092
14062TIP3    H163601   1.089   2.640  14.999 -0.1113 -0.5062  0.4103
14062TIP3    H263602   1.231   2.662  14.951 -0.1448 -0.1286  0.4875
14063TIP3   OH263603   4.917   0.214   2.943  0.6609 -0.2726  0.1222
14063TIP3    H163604   4.930   0.120   2.929 -1.2588 -0.1720 -2.8967
14063TIP3    H263605   4.960   0.255   2.868 -3.4869  0.8207 -1.8550
14064TIP3   OH263606   0.267   1.729  16.753 -0.2903  1.0898 -0.4409
14064TIP3    H163607   0.180   1.737  16.713 -0.4248 -2.4793 -1.0151
14064TIP3    H263608   0.325   1.704  16.681  0.7617  1.0996  0.3869
14065TIP3   OH263609   0.009   1.500  15.415  0.4201  0.3297  0.1550
14065TIP3    H163610   0.062   1.446  15.473 -1.4169 -2.2640 -0.5091
14065TIP3    H263611   0.042   1.481  15.327 -0.2118  0.2734 -0.0767
14066TIP3   OH263612   2.683   5.298  14.600 -0.5778  0.0269  0.8215
14066TIP3    H163613   2.622   5.225  14.609 -1.0755  0.1946 -0.9519
14066TIP3    H263614   2.649   5.365  14.660 -0.8112 -0.7394  1.5561
14067TIP3   OH263615   6.751   3.966  12.023  0.0059  0.0636  0.2158
14067TIP3    H163616   6.763   4.038  12.085 -0.9609 -1.8680  2.7335
14067TIP3    H263617   6.804   3.991  11.947  2.0672  2.0242  2.2119
14068TIP3   OH263618   2.739   2.332  17.039 -0.0967  0.3637  0.3718
14068TIP3    H163619   2.672   2.338  17.107  0.4982 -0.1666  1.0183
14068TIP3    H263620   2.713   2.257  16.986  0.4230 -0.3520  1.1180
14069TIP3   OH263621   5.449   4.993   3.874 -0.1834  0.5710  0.2792
14069TIP3    H163622   5.531   5.012   3.829  0.3175  1.1980  1.4289
14069TIP3    H263623   5.382   5.000   3.806  0.3299  3.4844 -0.0071
14070TIP3   OH263624   4.256   1.553   1.959 -0.3749 -0.1370 -0.1599
14070TIP3    H163625   4.330   1.566   1.900  0.4868  1.9268  1.3200
14070TIP3    H263626   4.189   1.615   1.928 -0.9593 -1.0170 -0.6595
14071TIP3   OH263627   1.336   5.249  10.846 -0.3687  0.1371 -0.3923
14071TIP3    H163628   1.275   5.230  10.775 -0.5587  0.4627 -0.3193
14071TIP3    H263629   1.420   5.214  10.817 -0.0369  1.8197 -1.5396
14072TIP3   OH263630   3.327   0.738  12.292  0.3243  0.0514  0.3357
14072TIP3    H163631   3.259   0.742  12.226  2.3353 -0.4006 -1.8396
14072TIP3    H263632   3.328   0.825  12.331 -1.4531  0.0677  0.3758
14073TIP3   OH263633   3.740   3.462  12.121 -0.0847 -0.0134  0.2149
14073TIP3    H163634   3.659   3.416  12.140 -0.8861  1.3945  0.2780
14073TIP3    H263635   3.793   3.400  12.071 -1.2597 -0.8730  0.0413
14074TIP3   OH263636   3.900   4.541  12.459  0.0582  0.5217  0.3048
14074TIP3    H163637   3.861   4.535  12.546  0.7403 -0.3898  0.5625
14074TIP3    H263638   3.829   4.520  12.399  0.3920 -2.3764  0.8265
14075TIP3   OH263639   2.099   0.379   5.465 -0.1784 -0.4840  0.4614
14075TIP3    H163640   2.005   0.377   5.479 -0.0783 -2.2005  1.0541
14075TIP3    H263641   2.110   0.360   5.372 -0.4000 -0.8504  0.5097
14076TIP3   OH263642   3.642   1.061   3.374  0.0602 -0.3620 -0.3441
14076TIP3    H163643   3.665   1.003   3.446 -0.3217  0.0385  0.0999
14076TIP3    H263644   3.593   1.132   3.414 -0.5952 -0.3902 -1.0661
14077TIP3   OH263645   2.401   3.792   5.645 -0.7245 -0.0321  0.0490
14077TIP3    H163646   2.428   3.855   5.579  0.2559  1.0683  1.4660
14077TIP3    H263647   2.482   3.751   5.674 -1.0406  0.0525  1.1017
14078TIP3   OH263648   6.012   0.703   1.337  0.5395 -0.0137 -0.1125
14078TIP3    H163649   6.078   0.772   1.343  0.8471 -0.4210  1.2625
14078TIP3    H263650   5.954   0.718   1.412 -1.2250  0.6274 -1.5541
14079TIP3   OH263651   4.013   5.250   0.386  0.4460 -0.2245 -0.1900
14079TIP3    H163652   3.996   5.279   0.297  1.6305 -0.2652 -0.4379
14079TIP3    H263653   4.005   5.330   0.439 -2.0552 -0.5256 -0.0659
14080TIP3   OH263654   1.535   0.484   4.840 -0.2880 -0.3555 -0.3598
14080TIP3    H163655   1.565   0.394   4.823 -0.7389 -0.8077  1.2317
14080TIP3    H263656   1.440   0.480   4.831 -0.3660 -0.1826  0.4070
14081TIP3   OH263657   0.036   2.900   5.614 -0.4847 -0.1025 -0.4263
14081TIP3    H163658   0.121   2.862   5.636 -0.6930 -0.5653 -0.3955
14081TIP3    H263659   0.024   2.971   5.676  0.6765  1.1191 -1.5749
14082TIP3   OH263660   3.026   3.865   3.562 -0.0512  0.3368  0.0294
14082TIP3    H163661   3.090   3.912   3.509  0.4673 -0.1175  0.2490
14082TIP3    H263662   3.053   3.880   3.653 -0.4642  0.4381  0.1402
14083TIP3   OH263663   1.469   5.227  16.069  0.0145  0.7962 -0.0549
14083TIP3    H163664   1.402   5.295  16.073 -0.3809  0.4314 -0.4301
14083TIP3    H263665   1.466   5.195  15.979 -2.2938 -2.1825  0.9901
14084TIP3   OH263666   5.163   0.758  16.294 -0.1450  0.4133  0.1117
14084TIP3    H163667   5.259   0.755  16.301 -0.2063 -1.2102  0.4734
14084TIP3    H263668   5.141   0.683  16.239 -1.2164  0.7520  0.0821
14085TIP3   OH263669   5.337   5.170   1.641  0.1727 -0.3255 -0.4798
14085TIP3    H163670   5.287   5.141   1.717 -0.1435 -0.5258 -0.7642
14085TIP3    H263671   5.312   5.110   1.571  0.7466 -0.3755 -0.6493
14086TIP3   OH263672   2.153   5.191   4.942  0.3706 -0.4523  0.2556
14086TIP3    H163673   2.217   5.143   4.996  0.2638  0.7672  1.4794
14086TIP3    H263674   2.177   5.168   4.852  0.2056 -2.9667  0.7952
14087TIP3   OH263675   1.760   0.433  11.934  0.4418  0.1486 -0.3108
14087TIP3    H163676   1.738   0.355  11.985  0.4607 -0.4448 -1.2081
14087TIP3    H263677   1.853   0.422  11.912  0.0489 -0.3365 -1.7592
14088TIP3   OH263678   1.770   2.499   4.048 -0.1644  0.4525 -0.1154
14088TIP3    H163679   1.763   2.591   4.073  0.5141  0.5093 -0.1220
14088TIP3    H263680   1.791   2.454   4.130  0.4024  0.4243 -0.2735
14089TIP3   OH263681   4.836   2.019   5.353 -0.9779 -0.3371 -0.0621
14089TIP3    H163682   4.897   1.952   5.383 -0.3887  0.2986  0.1622
14089TIP3    H263683   4.802   2.058   5.433 -1.9926 -0.9699 -0.1796
14090TIP3   OH263684   3.197   5.335  13.846  0.0329  0.0288 -0.3176
14090TIP3    H163685   3.101   5.338  13.854 -0.2519 -0.4432 -2.8651
14090TIP3    H263686   3.230   5.369  13.929 -2.3561  0.1521  0.6131
14091TIP3   OH263687   5.246   3.497  16.343 -0.3687 -0.1329 -0.4404
14091TIP3    H163688   5.231   3.563  16.274 -3.0845  0.0926  0.3157
14091TIP3    H263689   5.167   3.445  16.344  1.2414 -2.6448 -0.1172
14092TIP3   OH263690   6.722   5.623   1.378 -0.0941  0.0302 -0.3081
14092TIP3    H163691   6.678   5.593   1.457  0.5771 -0.6640 -0.1871
14092TIP3    H263692   6.674   5.580   1.307 -0.3468  0.2126 -0.2495
14093TIP3   OH263693   0.763   2.169   4.838  0.0282  0.3087 -0.2518
14093TIP3    H163694   0.718   2.201   4.760  0.5553  0.1465 -0.6239
14093TIP3    H263695   0.850   2.144   4.807  0.1411 -0.0289  0.3307
14094TIP3   OH263696   6.003   5.923   5.834  0.3338 -0.3669  0.4473
14094TIP3    H163697   5.962   6.007   5.815 -0.9981 -0.9510  0.6009
14094TIP3    H263698   6.096   5.935   5.815 -0.4068  0.0068 -3.2787
14095TIP3   OH263699   0.184   0.530  12.295 -0.0412 -0.4207 -0.4866
14095TIP3    H163700   0.265   0.568  12.264 -0.2696 -0.4790 -1.1485
14095TIP3    H263701   0.182   0.443  12.255 -0.4277 -0.4189 -0.4696
14096TIP3   OH263702   6.680   2.411   5.672  0.0771  0.1494 -0.1566
14096TIP3    H163703   6.669   2.503   5.649  0.7948  0.0262 -1.0279
14096TIP3    H263704   6.673   2.409   5.767 -0.4729  1.0263 -0.1731
14097TIP3   OH263705   4.246   6.436  13.481  0.1031 -0.8041  0.1912
14097TIP3    H163706   4.299   6.395  13.550  0.4393 -0.4285  0.1573
14097TIP3    H263707   4.264   6.529  13.489  0.3083 -0.7730 -0.5404
14098TIP3   OH263708   0.900   5.267   5.606 -0.6093 -0.0349  0.4046
14098TIP3    H163709   0.902   5.261   5.510 -1.1904  1.3510  0.2922
14098TIP3    H263710   0.961   5.338   5.627  0.2476 -0.9765  1.1278
14099TIP3   OH263711   0.829   0.665  12.028 -0.2233  0.0428  0.5774
14099TIP3    H163712   0.749   0.639  11.982  0.6700 -0.7918 -0.5431
14099TIP3    H263713   0.852   0.749  11.989  1.4751 -1.4498 -1.8169
14100TIP3   OH263714   2.456   3.625  15.737 -0.3243 -0.5137 -0.2861
14100TIP3    H163715   2.387   3.691  15.727 -0.1654 -0.3856 -0.5300
14100TIP3    H263716   2.410   3.549  15.773 -0.7944 -0.7640 -1.3864
14101TIP3   OH263717   4.395   0.929   5.441  0.1520 -0.2011  0.3592
14101TIP3    H163718   4.321   0.953   5.496 -0.6706  0.5181 -1.0407
14101TIP3    H263719   4.448   0.870   5.496 -2.3059 -2.0829  0.7964
14102TIP3   OH263720   2.449   0.316   4.851  0.0621  0.0831 -0.2008
14102TIP3    H163721   2.383   0.268   4.802  0.4607  0.1697 -0.8210
14102TIP3    H263722   2.418   0.313   4.942  0.0935 -1.3756 -0.2233
14103TIP3   OH263723   3.315   4.483  15.665  0.7060 -0.4140 -0.0157
14103TIP3    H163724   3.266   4.564  15.650  0.4073 -0.8247 -1.3762
14103TIP3    H263725   3.383   4.507  15.728 -0.5974  0.4142  1.1123
14104TIP3   OH263726   1.362   1.625  13.327  0.0815 -0.1333  0.5539
14104TIP3    H163727   1.282   1.606  13.376 -1.2123  2.8263 -0.2992
14104TIP3    H263728   1.332   1.636  13.237  1.5390  0.5639  0.1467
14105TIP3   OH263729   3.520   0.093   2.674  0.1011 -0.3124  0.1442
14105TIP3    H163730   3.564   0.153   2.734  0.8619 -3.0488  2.4204
14105TIP3    H263731   3.591   0.042   2.633 -0.6339 -1.0593 -0.2274
14106TIP3   OH263732   4.703   5.770  16.542  0.2422 -0.5337  0.2196
14106TIP3    H163733   4.693   5.818  16.624 -2.0465 -0.2586 -0.1844
14106TIP3    H263734   4.666   5.829  16.476  0.2394 -1.5920 -0.7296
14107TIP3   OH263735   1.254   6.069   4.405 -0.2276  0.7219 -0.2582
14107TIP3    H163736   1.309   6.148   4.407  2.2926 -0.9723  0.0676
14107TIP3    H263737   1.276   6.027   4.321 -1.2416  0.1495 -0.2414
14108TIP3   OH263738   0.161   2.075  16.320  0.3724 -0.3612 -0.0276
14108TIP3    H163739   0.124   1.988  16.329 -0.1013 -0.3995 -2.0634
14108TIP3    H263740   0.087   2.131  16.295  1.1020  0.1403 -1.1328
14109TIP3   OH263741   6.385   1.228   4.182  0.3348 -0.3540  0.0594
14109TIP3    H163742   6.370   1.287   4.255 -1.1743 -1.8143  0.9716
14109TIP3    H263743   6.377   1.284   4.104 -0.1539  0.8177  0.9324
14110TIP3   OH263744   4.962   5.090   1.317  0.3042  0.3040  0.3248
14110TIP3    H163745   4.905   5.166   1.307  0.1990  0.1659 -0.1892
14110TIP3    H263746   4.902   5.015   1.316  0.3934  0.2256  0.9959
14111TIP3   OH263747   0.363   3.959   5.785  0.1871 -0.4711  0.1632
14111TIP3    H163748   0.399   3.906   5.714  0.6006 -0.0553  0.0668
14111TIP3    H263749   0.370   3.903   5.862  0.8614 -0.4625  0.1103
14112TIP3   OH263750   0.747   5.566  14.592 -0.3057  0.1123  0.2571
14112TIP3    H163751   0.804   5.509  14.540 -0.2105 -0.4580  0.9729
14112TIP3    H263752   0.676   5.508  14.621  0.5593 -0.0221  2.2062
14113TIP3   OH263753   1.916   4.993  11.487 -0.2200  0.0242  0.2259
14113TIP3    H163754   1.901   5.054  11.559 -0.0424  0.2003  0.1118
14113TIP3    H263755   1.862   4.916  11.510 -0.0755  0.0336  0.6003
14114TIP3   OH263756   3.284   2.101  16.657 -0.4925 -0.2738 -0.2762
14114TIP3    H163757   3.248   2.026  16.610  0.8976 -0.9753 -0.2346
14114TIP3    H263758   3.241   2.099  16.742 -0.4401 -1.0404 -0.2653
14115TIP3   OH263759   0.398   3.299  12.253 -0.2093  0.1890  0.2408
14115TIP3    H163760   0.357   3.238  12.191  1.0166 -0.3014 -0.1073
14115TIP3    H263761   0.400   3.251  12.336  0.1592 -0.0082  0.1217
14116TIP3   OH263762   2.394   5.031  16.736  0.5289 -0.0681  0.2875
14116TIP3    H163763   2.420   4.974  16.663 -1.3519 -0.3313 -0.1947
14116TIP3    H263764   2.363   5.111  16.695  0.3427  0.1535  0.8537
14117TIP3   OH263765   2.770   6.542   5.249 -0.3859 -0.1661 -0.0747
14117TIP3    H163766   2.705   6.589   5.197 -0.6365 -0.4476 -0.0139
14117TIP3    H263767   2.830   6.610   5.279 -1.5787  0.3389  1.2380
14118TIP3   OH263768   1.956   2.576  14.787 -0.4494 -0.1197 -0.1066
14118TIP3    H163769   2.048   2.596  14.806 -0.6019 -0.2055  0.7541
14118TIP3    H263770   1.917   2.662  14.770 -0.7043  0.1760  1.8104
14119TIP3   OH263771   0.857   5.353  14.427  0.3671  0.2548  0.3697
14119TIP3    H163772   0.849   5.362  14.332  1.7502  1.9448  0.3928
14119TIP3    H263773   0.947   5.323  14.440  0.1961  0.0709  1.1508
14120TIP3   OH263774   0.475   1.769  11.431  0.1437  0.1402 -0.0682
14120TIP3    H163775   0.490   1.795  11.340 -1.0502 -0.2060 -0.3734
14120TIP3    H263776   0.390   1.725  11.429 -0.1739  0.6807  1.3258
14121TIP3   OH263777   0.658   3.997   5.830 -0.2476  0.3049 -0.5616
14121TIP3    H163778   0.646   3.906   5.855  1.4502  0.0356 -0.7012
14121TIP3    H263779   0.571   4.026   5.804 -0.9108 -1.1027  0.0298
14122TIP3   OH263780   3.505   3.171   0.725  1.0636 -0.6307 -0.0264
14122TIP3    H163781   3.414   3.150   0.748  0.7575 -1.0970 -1.5613
14122TIP3    H263782   3.553   3.161   0.807 -0.2192 -0.6630  0.7514
14123TIP3   OH263783   5.979   2.680  13.877  0.0593  0.9228 -0.0283
14123TIP3    H163784   6.050   2.617  13.880 -1.2512 -0.5956 -0.0133
14123TIP3    H263785   5.965   2.695  13.783 -1.8602 -1.4776 -0.1976
14124TIP3   OH263786   1.815   6.676   3.430  0.2064  0.5428  0.6412
14124TIP3    H163787   1.893   6.727   3.409  1.0479 -0.7944  0.4639
14124TIP3    H263788   1.825   6.595   3.379 -1.0830  0.1800  0.9493
14125TIP3   OH263789   3.404   3.194   5.189  0.7033 -0.4824 -0.5653
14125TIP3    H163790   3.340   3.146   5.242 -0.1995 -0.2788 -1.4637
14125TIP3    H263791   3.477   3.133   5.180  0.7670 -0.6043  0.7226
14126TIP3   OH263792   3.648   5.453   1.278  0.0084 -0.1688  0.5399
14126TIP3    H163793   3.702   5.496   1.345  0.6920 -0.6157  0.2798
14126TIP3    H263794   3.649   5.361   1.302  0.2659 -0.3342 -0.0955
14127TIP3   OH263795   5.806   0.007   4.693  0.0549 -0.2734 -0.1452
14127TIP3    H163796   5.727   0.006   4.746 -0.7146 -0.9513 -1.2877
14127TIP3    H263797   5.828   0.100   4.682 -0.0790 -0.1194  0.8997
14128TIP3   OH263798   5.923   5.079  14.533  0.0986 -0.1407  0.2710
14128TIP3    H163799   6.004   5.048  14.574  0.6608  1.1253  0.1343
14128TIP3    H263800   5.909   5.018  14.460  1.7944  0.5385 -0.6717
14129TIP3   OH263801   6.035   5.073   6.551  0.9574 -0.0227 -0.1369
14129TIP3    H163802   6.074   5.100   6.634 -0.4376 -0.5759  0.7053
14129TIP3    H263803   6.024   4.978   6.559 -0.7039  0.1484 -0.3045
14130TIP3   OH263804   5.880   0.136  16.614  0.4797 -0.3601  0.3776
14130TIP3    H163805   5.835   0.199  16.671  0.6507  0.9608 -0.9124
14130TIP3    H263806   5.821   0.123  16.541  1.4977  0.1680 -0.5530
14131TIP3   OH263807   2.543   4.569   3.526 -0.5277  0.1559 -0.2724
14131TIP3    H163808   2.590   4.604   3.602  0.9720  0.3127 -1.2383
14131TIP3    H263809   2.578   4.480   3.516 -0.5599  0.2131 -0.8932
14132TIP3   OH263810   5.062   1.358  13.348  0.3209 -0.0781  0.8329
14132TIP3    H163811   5.054   1.441  13.301  2.8745 -0.5643 -0.5631
14132TIP3    H263812   5.036   1.292  13.284  1.8054 -0.6048  0.7671
14133TIP3   OH263813   4.744   4.354   4.900 -0.5460 -0.0258  0.3436
14133TIP3    H163814   4.804   4.389   4.966  0.9841 -1.4232 -0.2770
14133TIP3    H263815   4.741   4.422   4.833  0.3306  0.0693  0.3939
14134TIP3   OH263816   3.934   2.264   5.943 -0.7739  0.0950 -0.0164
14134TIP3    H163817   3.898   2.340   5.897 -0.0748 -1.2212 -2.9077
14134TIP3    H263818   4.028   2.269   5.927 -0.6005 -0.8008  0.6838
14135TIP3   OH263819   4.091   5.176  12.518 -0.0261  0.6338  0.5451
14135TIP3    H163820   4.163   5.226  12.480  0.7813 -0.4859  0.5911
14135TIP3    H263821   4.056   5.125  12.444  0.7592 -0.6216  1.0345
14136TIP3   OH263822   4.260   3.307  14.973 -0.2135  0.7457 -0.2644
14136TIP3    H163823   4.284   3.361  14.897 -2.3438  0.5224 -1.1169
14136TIP3    H263824   4.202   3.363  15.025  1.0734  0.8269  1.1483
14137TIP3   OH263825   3.864   6.536  14.133  0.2369  0.3977  0.3818
14137TIP3    H163826   3.827   6.457  14.095 -1.2365  1.8231 -1.2619
14137TIP3    H263827   3.921   6.572  14.065  1.0667  0.6281  1.1911
14138TIP3   OH263828   0.583   1.389   0.050  0.0954 -0.2834 -0.4104
14138TIP3    H163829   0.584   1.297   0.027 -0.8412 -0.2433 -0.6150
14138TIP3    H263830   0.508   1.425   0.004  0.9236  0.7533 -0.9831
14139TIP3   OH263831   4.590   4.526   5.247 -0.5294  0.2195 -1.0083
14139TIP3    H163832   4.555   4.464   5.183  0.4167 -0.2714 -1.0618
14139TIP3    H263833   4.537   4.512   5.326 -2.5159  1.6846 -2.0268
14140TIP3   OH263834   2.779   2.609  16.281  0.2987  0.0097 -0.5470
14140TIP3    H163835   2.701   2.615  16.225  1.5457 -3.2001 -2.7862
14140TIP3    H263836   2.835   2.681  16.252 -0.4416  0.3625 -1.1373
14141TIP3   OH263837   4.514   3.144   2.926  0.0571  0.1170  0.9246
14141TIP3    H163838   4.466   3.070   2.889  0.9071 -1.0047  2.0178
14141TIP3    H263839   4.529   3.203   2.851 -3.8433  1.0050  0.7520
14142TIP3   OH263840   1.362   5.379   3.663 -0.1150 -0.4682 -0.2015
14142TIP3    H163841   1.446   5.356   3.702 -0.8612  3.1154  3.9236
14142TIP3    H263842   1.297   5.329   3.713 -0.7298 -0.2671 -0.7812
14143TIP3   OH263843   0.058   5.179  13.361  0.1919  0.0126  0.2273
14143TIP3    H163844   0.065   5.254  13.303  1.5103  0.4355  0.9231
14143TIP3    H263845   0.053   5.216  13.449  1.3886 -0.7293  0.6134
14144TIP3   OH263846   2.755   6.294  13.573 -0.1454 -0.6023 -0.6488
14144TIP3    H163847   2.806   6.374  13.584  0.8886 -0.9380 -2.8411
14144TIP3    H263848   2.793   6.233  13.636  1.9560 -0.7204 -1.9825
14145TIP3   OH263849   6.645   1.107  13.814  0.1798 -0.2401 -0.9101
14145TIP3    H163850   6.720   1.049  13.817  0.1879 -0.1692  0.5931
14145TIP3    H263851   6.577   1.057  13.770  0.3067 -1.2374  0.0270
14146TIP3   OH263852   3.890   3.135  16.687 -0.4938 -0.1266 -0.6030
14146TIP3    H163853   3.872   3.044  16.663 -1.4520  0.3595 -1.7753
14146TIP3    H263854   3.977   3.153  16.652 -0.7641 -0.2529 -1.3475
14147TIP3   OH263855   3.487   3.973   5.430 -0.0364  0.4677 -0.5564
14147TIP3    H163856   3.526   3.995   5.345 -1.3447 -0.1570 -1.3350
14147TIP3    H263857   3.400   4.013   5.427  0.3117  1.3559  0.9303
14148TIP3   OH263858   6.587   5.909  14.079 -0.1668 -0.1142 -0.2080
14148TIP3    H163859   6.553   5.888  13.992 -3.9529 -0.4866  1.2616
14148TIP3    H263860   6.533   5.982  14.108  1.8077  0.7484  1.4289
14149TIP3   OH263861   5.454   4.896   1.874 -0.3074  0.4859  0.5598
14149TIP3    H163862   5.487   4.832   1.937 -0.5580  0.2940  0.4990
14149TIP3    H263863   5.365   4.866   1.855 -1.7718  2.8771  3.2818
14150TIP3   OH263864   3.099   4.898   1.011 -0.1994  0.1460 -0.7897
14150TIP3    H163865   3.116   4.876   1.103  0.3187  2.6577 -0.2432
14150TIP3    H263866   3.004   4.896   1.004 -0.2021 -1.7338 -0.6739
14151TIP3   OH263867   5.837   1.213   0.607 -0.2914 -0.3897  0.1910
14151TIP3    H163868   5.768   1.149   0.622 -0.9797  0.0979 -0.8173
14151TIP3    H263869   5.893   1.173   0.540 -0.5401 -0.0890 -0.2027
14152TIP3   OH263870   3.716   1.891  16.376  1.1241 -0.0901  0.5360
14152TIP3    H163871   3.637   1.844  16.403  1.8498 -1.2736  0.6708
14152TIP3    H263872   3.743   1.847  16.295  0.5044  1.6404 -0.6444
14153TIP3   OH263873   5.425   2.164   1.124  0.2191 -0.2763  0.4134
14153TIP3    H163874   5.359   2.095   1.118  0.1584 -0.3171  1.3622
14153TIP3    H263875   5.409   2.221   1.049  1.7013 -2.5205 -1.7067
14154TIP3   OH263876   2.706   0.460   6.078  0.4207 -0.1201  0.0985
14154TIP3    H163877   2.699   0.551   6.107  0.7130 -0.1415  0.2373
14154TIP3    H263878   2.800   0.444   6.070  0.3328  0.2656 -2.0912
14155TIP3   OH263879   2.435   6.700  15.539 -0.3354  0.0178 -0.8638
14155TIP3    H163880   2.429   6.769  15.473 -1.2378  0.7541 -0.0183
14155TIP3    H263881   2.480   6.741  15.613 -0.5093 -0.4224 -0.5153
14156TIP3   OH263882   0.842   6.040   0.398  0.3595 -0.1529 -0.5225
14156TIP3    H163883   0.825   6.104   0.467 -0.1400  0.2515 -1.0142
14156TIP3    H263884   0.912   6.080   0.346  1.4707 -0.9311  0.3549
14157TIP3   OH263885   6.085   3.540   0.149  0.7742  0.3526  0.1436
14157TIP3    H163886   6.104   3.629   0.121  0.7058  0.3970  0.2379
14157TIP3    H263887   6.163   3.511   0.195  0.5783  0.5681  0.6171
14158TIP3   OH263888   0.715   3.240  16.393  0.2214 -0.0724  0.2076
14158TIP3    H163889   0.799   3.245  16.347  0.6506  0.7843  1.0498
14158TIP3    H263890   0.739   3.237  16.486 -0.6863  0.2829  0.4598
14159TIP3   OH263891   3.474   2.942  11.839 -0.2315 -0.5204  0.1313
14159TIP3    H163892   3.567   2.923  11.847 -0.0735  0.2603  0.1598
14159TIP3    H263893   3.449   2.908  11.753  0.4581  0.8090 -0.6033
14160TIP3   OH263894   0.519   2.283   5.871  0.2746  0.6039 -0.0894
14160TIP3    H163895   0.457   2.212   5.853  0.9311  0.3520 -1.4228
14160TIP3    H263896   0.587   2.272   5.804  1.5112  1.1634  1.0749
14161TIP3   OH263897   5.653   3.018   1.073 -0.2704  0.3870 -0.0866
14161TIP3    H163898   5.564   3.038   1.103  0.4513 -0.2552  2.6115
14161TIP3    H263899   5.659   2.923   1.080 -0.2745  0.1432 -2.9776
14162TIP3   OH263900   1.235   2.818   3.491 -0.5316 -0.1725 -0.0145
14162TIP3    H163901   1.263   2.734   3.528 -1.2243 -0.1941  0.4789
14162TIP3    H263902   1.286   2.827   3.411  0.8782 -0.2055  0.8535
14163TIP3   OH263903   2.758   5.698   1.347  0.6114  0.0908 -0.7540
14163TIP3    H163904   2.714   5.623   1.308 -0.0082  1.8991 -3.6515
14163TIP3    H263905   2.851   5.677   1.343  0.5571  0.1535 -3.1435
14164TIP3   OH263906   2.891   6.686  15.864 -0.1780 -0.4968  0.2884
14164TIP3    H163907   2.984   6.663  15.853 -0.2132 -0.8069  0.6490
14164TIP3    H263908   2.889   6.781  15.853  0.3081 -0.3902  1.1331
14165TIP3   OH263909   3.557   5.928   6.015  0.2535 -0.5095 -0.1923
14165TIP3    H163910   3.501   5.856   6.044 -2.6373  2.1167  1.1279
14165TIP3    H263911   3.546   5.930   5.920 -3.5841  1.0953  0.1677
14166TIP3   OH263912   3.697   1.054   1.261 -0.4939 -0.2162  0.1735
14166TIP3    H163913   3.738   1.138   1.283 -0.8668  0.0621 -0.1987
14166TIP3    H263914   3.674   1.062   1.169 -0.5279 -0.7308  0.1380
14167TIP3   OH263915   1.232   0.863  15.819 -0.7257 -0.0653 -0.0028
14167TIP3    H163916   1.217   0.887  15.727  0.2189 -0.6943 -0.3349
14167TIP3    H263917   1.247   0.768  15.816  0.9892  0.1870  0.5919
14168TIP3   OH263918   6.362   2.254  11.755 -0.4410 -0.2329  0.2223
14168TIP3    H163919   6.310   2.200  11.814 -0.3660  0.7816  1.2296
14168TIP3    H263920   6.328   2.343  11.767 -1.0231 -0.1290 -1.9148
14169TIP3   OH263921   0.079   3.513  15.245 -0.9671 -0.0422  0.4061
14169TIP3    H163922   0.135   3.497  15.170 -0.5066 -0.6691  0.8859
14169TIP3    H263923   0.088   3.435  15.300 -2.5608 -0.2950  0.3282
14170TIP3   OH263924   4.795   2.027  12.170 -0.5738  0.2948 -0.2843
14170TIP3    H163925   4.757   2.006  12.255 -1.3895 -0.5767 -0.8473
14170TIP3    H263926   4.828   2.116  12.179  1.2065 -0.5158  1.5817
14171TIP3   OH263927   2.149   2.022  11.303  0.0042 -0.4194 -0.5585
14171TIP3    H163928   2.114   2.105  11.337  0.9070 -0.7632  1.2678
14171TIP3    H263929   2.215   2.049  11.239  0.3865  0.2976  0.1167
14172TIP3   OH263930   6.572   5.809  12.373 -0.0718  1.2515  0.1762
14172TIP3    H163931   6.506   5.783  12.309  0.9965  2.1362 -1.3367
14172TIP3    H263932   6.655   5.784  12.333  0.7758  4.0665  0.0583
14173TIP3   OH263933   6.711   1.051   0.129 -0.3076 -0.0322 -0.0389
14173TIP3    H163934   6.622   1.082   0.140 -0.1047  0.2617  0.8268
14173TIP3    H263935   6.763   1.130   0.115 -0.3043 -0.2667 -1.4323
14174TIP3   OH263936   3.430   5.535  12.327  0.4109  0.4281  0.6348
14174TIP3    H163937   3.366   5.561  12.261  0.9914 -1.2055 -0.6062
14174TIP3    H263938   3.395   5.570  12.409 -0.5747  2.0574 -0.4502
14175TIP3   OH263939   0.021   0.374  15.405 -0.2019  0.0080  1.0174
14175TIP3    H163940  -0.055   0.432  15.398 -0.8410 -1.0171 -0.9159
14175TIP3    H263941   0.091   0.431  15.438 -1.0197  1.7063 -0.0577
14176TIP3   OH263942   1.318   6.769   3.039 -0.4188 -0.4325 -0.5545
14176TIP3    H163943   1.223   6.763   3.044 -0.3147 -0.1990  2.8285
14176TIP3    H263944   1.350   6.697   3.094  1.4092 -1.3059 -2.6765
14177TIP3   OH263945   0.737   6.736  16.463 -0.0333 -0.0759  0.0829
14177TIP3    H163946   0.780   6.671  16.518  0.1825  0.3069  0.3634
14177TIP3    H263947   0.649   6.744  16.499  0.6967  1.5975  1.6024
14178TIP3   OH263948   2.738   1.360  16.884 -0.1519 -0.1257 -0.1833
14178TIP3    H163949   2.820   1.406  16.863  0.5379 -2.2939 -2.5928
14178TIP3    H263950   2.761   1.268  16.878 -3.0762 -0.7915 -2.2614
14179TIP3   OH263951   0.218   4.048  12.529  0.1422  0.3221 -0.0863
14179TIP3    H163952   0.239   4.137  12.560 -0.5987  0.2046  0.7784
14179TIP3    H263953   0.196   4.000  12.609  0.0986 -0.5238 -0.6053
14180TIP3   OH263954   0.359   4.933  15.358  0.0756  0.0685 -0.6844
14180TIP3    H163955   0.372   5.028  15.359  0.2869  0.1012 -2.8695
14180TIP3    H263956   0.306   4.918  15.280 -0.9039 -1.5163  0.2737
14181TIP3   OH263957   1.745   0.594  14.490 -0.0682 -0.1096  0.3605
14181TIP3    H163958   1.755   0.684  14.460 -1.1776  0.3677  1.3399
14181TIP3    H263959   1.660   0.594  14.535  0.3119 -1.4354  1.1008
14182TIP3   OH263960   0.933   2.245  14.097  0.5794 -0.0847  0.2034
14182TIP3    H163961   0.957   2.333  14.067 -2.0220  0.7808  0.5376
14182TIP3    H263962   0.899   2.201  14.020  2.1818 -0.9584 -0.0373
14183TIP3   OH263963   0.784   3.964   5.439  0.0202 -0.1361 -0.5357
14183TIP3    H163964   0.723   4.013   5.384 -1.3394  0.3940  1.4300
14183TIP3    H263965   0.743   3.878   5.450 -0.3821  0.2165  0.7798
14184TIP3   OH263966   3.386   0.849  15.584  0.2111  0.1818 -0.2747
14184TIP3    H163967   3.427   0.820  15.502 -0.8976 -0.0169 -0.7716
14184TIP3    H263968   3.293   0.860  15.561  0.0259  0.8178  0.7762
14185TIP3   OH263969   2.657   1.466   0.463 -0.4011  0.6700  0.2655
14185TIP3    H163970   2.676   1.417   0.543  1.2406 -0.1687 -0.5938
14185TIP3    H263971   2.730   1.445   0.404 -0.4241  3.0000 -0.6684
14186TIP3   OH263972   5.272   4.806   4.302  0.1752  0.0984  0.2344
14186TIP3    H163973   5.184   4.835   4.327 -0.0209  0.3596 -0.7505
14186TIP3    H263974   5.259   4.752   4.225  0.9338  0.6292 -0.2770
14187TIP3   OH263975   1.996   1.147  11.845 -0.4231 -0.2932  0.1513
14187TIP3    H163976   1.915   1.197  11.857 -0.4759 -0.6716  1.4547
14187TIP3    H263977   2.011   1.105  11.930  0.9684 -0.4776 -0.1736
14188TIP3   OH263978   1.095   1.314  16.450  0.0255  0.0106 -0.6165
14188TIP3    H163979   1.137   1.229  16.455  0.3005  0.2140  0.8048
14188TIP3    H263980   1.049   1.323  16.534 -1.2678  0.6046 -1.3812
14189TIP3   OH263981   5.531   6.056   3.932  0.2192  0.4805 -0.0209
14189TIP3    H163982   5.576   6.022   4.009  1.8013  0.5414 -0.8988
14189TIP3    H263983   5.510   5.978   3.880 -0.3290  0.4866  0.1864
14190TIP3   OH263984   3.883   5.201   2.223  0.2536 -0.1773 -0.4671
14190TIP3    H163985   3.967   5.245   2.210 -0.4576  1.1005 -0.8634
14190TIP3    H263986   3.882   5.177   2.316  0.7173  0.5447 -0.2685
14191TIP3   OH263987   6.761   3.372  15.641  0.5969 -0.1425 -0.0819
14191TIP3    H163988   6.849   3.379  15.603  1.0001 -1.7454  0.5502
14191TIP3    H263989   6.770   3.408  15.729  0.8330 -1.1117  0.2972
14192TIP3   OH263990   6.135   2.367  15.678  0.7521 -0.3635  0.3093
14192TIP3    H163991   6.223   2.361  15.714  0.7893  1.3293  0.5410
14192TIP3    H263992   6.127   2.291  15.620  2.2301 -0.7087  0.5461
14193TIP3   OH263993   5.385   0.136   3.085  0.6731  0.1019 -0.1247
14193TIP3    H163994   5.353   0.058   3.039 -1.4279  0.4177  0.7783
14193TIP3    H263995   5.307   0.184   3.110  1.8300  0.8731  2.1874
14194TIP3   OH263996   6.035   2.667  14.148 -0.8495  0.5204 -0.4536
14194TIP3    H163997   6.129   2.679  14.160 -0.5540 -2.6755  0.8695
14194TIP3    H263998   6.025   2.651  14.055  0.2073 -1.1475 -0.3068
14195TIP3   OH263999   5.827   2.461  10.548 -0.3648 -0.3145  0.4313
14195TIP3    H164000   5.742   2.423  10.570  0.4945 -0.7733  3.1149
14195TIP3    H264001   5.821   2.552  10.574 -0.4977  0.0169 -0.7175
14196TIP3   OH264002   4.453   4.489   0.863  0.7197 -0.4722  0.4549
14196TIP3    H164003   4.470   4.486   0.769  0.7529  0.4205  0.4343
14196TIP3    H264004   4.416   4.575   0.879  2.4481  0.1140  1.5316
14197TIP3   OH264005   5.391   2.701  11.299 -0.0605  0.6430  0.1307
14197TIP3    H164006   5.466   2.733  11.350  0.9099  1.9405 -2.0471
14197TIP3    H264007   5.407   2.607  11.291  0.4443  0.6321  1.1324
14198TIP3   OH264008   0.373   3.394   0.151  0.1459 -0.6843  0.9722
14198TIP3    H164009   0.404   3.304   0.161  1.1317 -0.4581  0.0829
14198TIP3    H264010   0.410   3.423   0.067  0.8395  0.9574  1.8119
14199TIP3   OH264011   6.369   0.071  15.587  0.1835 -0.4578 -0.6851
14199TIP3    H164012   6.318   0.081  15.668  1.8946 -0.3456  0.4108
14199TIP3    H264013   6.441   0.133  15.596  0.8162 -0.9845 -1.9597
14200TIP3   OH264014   0.746   1.952  15.193  0.3963 -0.6083  0.2539
14200TIP3    H164015   0.652   1.933  15.196  0.2587 -0.2389 -1.2555
14200TIP3    H264016   0.787   1.871  15.222 -0.3948 -0.5938  1.4752
14201TIP3   OH264017   1.599   2.377  11.764 -0.1059 -0.2627  0.2408
14201TIP3    H164018   1.506   2.391  11.745 -0.2120  0.7123  1.4613
14201TIP3    H264019   1.623   2.449  11.822  0.9071 -1.6637  1.5810
14202TIP3   OH264020   2.332   5.806   2.876 -0.2151 -0.6797  0.1986
14202TIP3    H164021   2.336   5.717   2.841  1.7707 -0.4364 -0.2489
14202TIP3    H264022   2.285   5.856   2.810 -2.1945 -1.5733  0.8874
14203TIP3   OH264023   6.472   2.991   0.918 -0.2988 -0.2334 -0.0894
14203TIP3    H164024   6.462   3.086   0.923 -1.3235 -0.3247 -0.2248
14203TIP3    H264025   6.567   2.976   0.919 -0.1414  0.7644  0.3057
14204TIP3   OH264026   5.304   1.818  16.978 -0.1224 -0.6696 -0.1501
14204TIP3    H164027   5.301   1.794  16.886  0.1565  2.8193 -1.1487
14204TIP3    H264028   5.381   1.874  16.986 -1.9870  1.8171  1.4301
14205TIP3   OH264029   0.958   3.419   0.305  0.5824  0.4638 -0.4143
14205TIP3    H164030   0.916   3.495   0.264 -0.1564 -0.9028 -2.2637
14205TIP3    H264031   1.049   3.446   0.318 -0.0866  2.2915  0.6156
14206TIP3   OH264032   3.847   3.672  12.735 -0.5399  0.1048 -0.2122
14206TIP3    H164033   3.794   3.597  12.763 -0.6351 -1.1543 -3.5243
14206TIP3    H264034   3.794   3.713  12.666  0.1509  2.4211  0.5912
14207TIP3   OH264035   5.321   4.328   1.990 -0.3617 -0.1101 -0.0252
14207TIP3    H164036   5.310   4.252   1.933 -3.7736  1.5275 -1.7054
14207TIP3    H264037   5.364   4.393   1.936 -0.0211  0.1260  0.5226
14208TIP3   OH264038   1.114   6.676  15.838  0.5188  0.4463  0.0252
14208TIP3    H164039   1.128   6.597  15.786 -0.5044 -0.1596  0.6441
14208TIP3    H264040   1.195   6.726  15.829  1.6073 -1.1953  0.5410
14209TIP3   OH264041   2.141   3.547  11.116 -0.4219 -0.5972 -0.7446
14209TIP3    H164042   2.103   3.552  11.204 -3.0270  1.6538 -1.8896
14209TIP3    H264043   2.103   3.468  11.079 -0.5138 -0.7462 -0.3415
14210TIP3   OH264044   3.681   3.277  17.111  0.4092  0.1400  0.1294
14210TIP3    H164045   3.624   3.334  17.058 -0.0990 -0.6976 -0.2240
14210TIP3    H264046   3.737   3.233  17.046  1.0012  0.4412  0.4260
14211TIP3   OH264047   1.197   0.734   0.316 -0.1466 -0.5464  0.4075
14211TIP3    H164048   1.197   0.666   0.248  2.8055 -0.8266  0.5981
14211TIP3    H264049   1.208   0.816   0.269  0.2219 -0.5789  0.4373
14212TIP3   OH264050   1.919   2.764  13.685  0.0572  0.4249 -0.4126
14212TIP3    H164051   1.981   2.732  13.621  0.2762  0.0897 -0.0345
14212TIP3    H264052   1.833   2.757  13.643  0.3431  1.5152 -1.1828
14213TIP3   OH264053   3.354   2.505  11.080 -0.0912 -0.7608  0.3313
14213TIP3    H164054   3.379   2.563  11.009 -0.8572 -1.8491 -0.8673
14213TIP3    H264055   3.276   2.460  11.047  0.3544 -2.2920  1.3015
14214TIP3   OH264056   0.140   6.256   2.433 -0.2251 -0.0767 -0.2918
14214TIP3    H164057   0.115   6.324   2.372 -0.5981 -0.1246 -0.1908
14214TIP3    H264058   0.116   6.174   2.389 -0.3283 -0.1182 -0.1572
14215TIP3   OH264059   1.645   6.401  13.188  0.2560 -0.6124 -0.0255
14215TIP3    H164060   1.706   6.349  13.136  1.9240  0.5233  0.7496
14215TIP3    H264061   1.638   6.484  13.142  0.7572 -0.0626  0.8766
14216TIP3   OH264062   4.652   2.764  10.836 -0.3256 -0.4788 -0.3062
14216TIP3    H164063   4.606   2.712  10.901  0.1508 -1.1268 -0.4806
14216TIP3    H264064   4.743   2.736  10.843 -0.0351  0.4540 -0.2857
14217TIP3   OH264065   6.647   1.935  17.124 -0.3669  0.0446  0.3758
14217TIP3    H164066   6.727   1.986  17.120  0.3621 -1.2147 -2.1737
14217TIP3    H264067   6.658   1.878  17.200  0.5167  0.8690  0.8741
14218TIP3   OH264068   0.535   5.799  16.778  0.3413 -0.2258  0.3415
14218TIP3    H164069   0.594   5.778  16.850 -0.7353  1.6540  1.8325
14218TIP3    H264070   0.563   5.885  16.747  0.0147 -0.4701 -0.6823
14219TIP3   OH264071   0.122   2.387   4.742  0.0703 -0.0996  0.3895
14219TIP3    H164072   0.105   2.431   4.658 -1.2959 -1.2123  0.0710
14219TIP3    H264073   0.035   2.358   4.772  0.5682  0.1065  2.0929
14220TIP3   OH264074   4.143   4.471   1.011  0.1328 -0.3505 -1.0490
14220TIP3    H164075   4.185   4.386   1.022 -0.1666 -0.2016  1.6791
14220TIP3    H264076   4.050   4.453   1.014  0.0513  0.2183  1.4932
14221TIP3   OH264077   6.132   3.899  10.673  0.1448 -0.4961  0.4617
14221TIP3    H164078   6.149   3.898  10.767  0.0807 -0.2781  0.4755
14221TIP3    H264079   6.219   3.891  10.633  0.2736  0.4609  0.5347
14222TIP3   OH264080   3.108   3.196   1.470 -1.0865  0.6804  0.1694
14222TIP3    H164081   3.121   3.251   1.393  2.8904 -1.1058 -0.5246
14222TIP3    H264082   3.046   3.129   1.441  1.1303 -0.5619 -1.8617
14223TIP3   OH264083   4.477   2.140   2.291 -0.5238 -0.3632  0.0275
14223TIP3    H164084   4.438   2.092   2.364 -0.8786  0.1575  0.1850
14223TIP3    H264085   4.456   2.232   2.309 -0.7009 -0.2404 -0.7790
14224TIP3   OH264086   0.873   4.409  14.413 -0.1348  0.1935 -0.2246
14224TIP3    H164087   0.811   4.374  14.476  0.5752 -1.3512 -0.3499
14224TIP3    H264088   0.896   4.496  14.446 -0.4812 -0.2295  1.1338
14225TIP3   OH264089   4.670   1.470  12.093 -0.2101 -0.1451 -0.3291
14225TIP3    H164090   4.605   1.400  12.085 -0.8816  0.4385 -0.0733
14225TIP3    H264091   4.618   1.548  12.111  0.5367  0.4157 -0.6028
14226TIP3   OH264092   5.953   0.686  13.328 -0.8789  0.0279  0.2425
14226TIP3    H164093   5.945   0.718  13.238  0.0156  1.0234  0.5083
14226TIP3    H264094   5.984   0.596  13.319 -2.1809 -0.3483 -0.4818
14227TIP3   OH264095   3.999   3.165  15.246 -0.7572 -0.1597 -0.3063
14227TIP3    H164096   3.989   3.259  15.229 -1.4594 -0.4009 -1.2819
14227TIP3    H264097   4.022   3.128  15.160 -0.6395 -0.8984  0.0391
14228TIP3   OH264098   5.351   1.199  14.726 -0.2246 -0.2362 -0.1002
14228TIP3    H164099   5.408   1.145  14.781 -1.6728 -0.2072  1.4601
14228TIP3    H264100   5.359   1.160  14.639 -0.8331 -2.6741  0.8707
14229TIP3   OH264101   1.328   4.153   2.524  0.2534 -0.1138  0.1942
14229TIP3    H164102   1.417   4.187   2.523 -0.6116  2.2988  0.8010
14229TIP3    H264103   1.285   4.196   2.450 -0.0637 -2.3446 -0.9696
14230TIP3   OH264104   5.414   4.646   5.605  0.0307  0.2564  0.4830
14230TIP3    H164105   5.496   4.662   5.559  0.3315 -1.3142  0.4693
14230TIP3    H264106   5.438   4.642   5.698 -0.1311  0.4544  0.5353
14231TIP3   OH264107   4.572   3.688  12.968  0.2045  0.3677 -0.2361
14231TIP3    H164108   4.492   3.724  13.006 -0.0956 -0.4986 -0.0386
14231TIP3    H264109   4.617   3.764  12.931 -0.7539  0.8461 -0.4355
14232TIP3   OH264110   5.565   4.089   3.772 -0.0306  0.0632  0.4733
14232TIP3    H164111   5.647   4.139   3.775 -0.1704  0.2248  1.6186
14232TIP3    H264112   5.496   4.155   3.783 -0.2757 -0.1977  0.5152
14233TIP3   OH264113   0.394   4.778   1.648  0.3430 -0.1472  0.0306
14233TIP3    H164114   0.313   4.795   1.696 -0.1842 -2.0624 -0.1285
14233TIP3    H264115   0.365   4.736   1.567  1.3766  0.8576 -0.8748
14234TIP3   OH264116   5.174   0.683   0.942  0.0881 -0.5891 -0.3252
14234TIP3    H164117   5.114   0.622   0.899 -0.5150  0.1650 -0.5690
14234TIP3    H264118   5.235   0.709   0.873 -0.2500 -0.1722 -0.4695
14235TIP3   OH264119   2.283   2.813  11.630  0.1384  0.6333  0.1340
14235TIP3    H164120   2.283   2.736  11.574 -0.4789 -0.2080  1.2716
14235TIP3    H264121   2.375   2.834  11.643  0.3823 -1.4120  1.8409
14236TIP3   OH264122   2.041   0.465  12.499  0.4619  0.2589 -0.2126
14236TIP3    H164123   2.020   0.381  12.540  1.6726  0.2808  0.4725
14236TIP3    H264124   2.127   0.488  12.534 -0.0594  2.0074 -0.0207
14237TIP3   OH264125   1.116   2.879  10.305 -0.3592 -0.4920 -0.0815
14237TIP3    H164126   1.134   2.918  10.220 -0.1881  0.4571  0.3861
14237TIP3    H264127   1.021   2.865  10.305 -0.2963 -0.9380 -0.6100
14238TIP3   OH264128   4.243   1.186  11.868 -0.5024  0.0024 -0.2545
14238TIP3    H164129   4.320   1.192  11.811 -1.3312 -0.0057 -1.3908
14238TIP3    H264130   4.245   1.097  11.903 -0.1300 -0.0681 -0.4605
14239TIP3   OH264131   4.318   0.354   1.732 -0.9581  0.3261 -0.1028
14239TIP3    H164132   4.381   0.348   1.661 -0.0061 -0.3778  0.7891
14239TIP3    H264133   4.272   0.270   1.731 -2.2988  1.0460 -1.1147
14240TIP3   OH264134   4.531   1.667  17.087 -0.4640  0.3165 -0.5802
14240TIP3    H164135   4.586   1.746  17.082 -2.7669  1.9214 -1.6154
14240TIP3    H264136   4.441   1.701  17.087 -1.4991 -2.3369 -1.0732
14241TIP3   OH264137   0.942   5.203   3.354 -0.6509 -0.5782  0.3607
14241TIP3    H164138   0.957   5.194   3.260  0.7493 -0.0144  0.5163
14241TIP3    H264139   0.849   5.224   3.362 -0.7082 -0.3207 -0.9055
14242TIP3   OH264140   4.134   1.532  13.217 -0.2007  0.2541  0.0301
14242TIP3    H164141   4.044   1.521  13.247 -0.2729  1.8992  0.4543
14242TIP3    H264142   4.142   1.626  13.199  1.5877  0.2105  0.5207
14243TIP3   OH264143   1.607   6.527  14.595  0.2509  0.3518 -0.5498
14243TIP3    H164144   1.557   6.557  14.671 -2.1700 -1.2141 -1.4280
14243TIP3    H264145   1.671   6.466  14.631  0.1394  0.7871  0.3959
14244TIP3   OH264146   5.436   3.051  14.885 -0.1070 -0.0304  0.3231
14244TIP3    H164147   5.442   2.984  14.953  0.6863  0.1088  0.3902
14244TIP3    H264148   5.526   3.080  14.872 -0.2428 -0.1050 -0.8301
14245TIP3   OH264149   3.500   4.551  16.135 -0.1407 -0.1740 -0.1844
14245TIP3    H164150   3.467   4.620  16.193  0.0655  0.3996 -0.7484
14245TIP3    H264151   3.492   4.471  16.187 -0.6570  0.2304  0.3707
14246TIP3   OH264152   5.869   5.063   5.880 -0.4874 -0.0868  0.6127
14246TIP3    H164153   5.945   5.049   5.823 -2.7185 -3.7184 -1.6002
14246TIP3    H264154   5.806   5.110   5.825 -1.0209  0.2334  1.4853
14247TIP3   OH264155   4.734   0.343  16.774 -0.0651  0.1490 -0.1333
14247TIP3    H164156   4.690   0.350  16.690  2.2286  0.2835 -1.3618
14247TIP3    H264157   4.721   0.252  16.801 -0.3196 -0.0456 -0.9051
14248TIP3   OH264158   2.896   6.410  16.466  0.2571  0.1842 -0.3764
14248TIP3    H164159   2.828   6.390  16.530 -0.4884  1.0561 -0.8798
14248TIP3    H264160   2.978   6.388  16.510 -0.1993  1.4667  1.1487
14249TIP3   OH264161   1.441   4.116  16.536  0.0882 -0.6940 -0.0438
14249TIP3    H164162   1.478   4.028  16.549 -2.3671 -1.4321  2.5473
14249TIP3    H264163   1.357   4.100  16.493 -0.6729  0.3279  1.0523
14250TIP3   OH264164   1.416   6.772  15.276 -0.0168  0.0687  0.0960
14250TIP3    H164165   1.323   6.756  15.260 -0.1097 -0.5825  1.2611
14250TIP3    H264166   1.461   6.715  15.215 -0.3680  1.1557 -1.2160
14251TIP3   OH264167   1.633   6.100  11.901  0.5499 -0.1476  0.0092
14251TIP3    H164168   1.723   6.104  11.870  0.7844  0.0897  0.7266
14251TIP3    H264169   1.598   6.188  11.886  0.7468  0.0429  0.6777
14252TIP3   OH264170   4.707   2.531  12.508 -0.2475 -0.0262  0.4089
14252TIP3    H164171   4.635   2.517  12.570 -1.1966  1.9186 -0.1879
14252TIP3    H264172   4.747   2.613  12.537  1.0008 -0.4881  0.0192
14253TIP3   OH264173   4.035   0.533  14.221 -0.1064 -0.3361  0.1139
14253TIP3    H164174   4.090   0.477  14.276 -0.4609 -2.4534 -1.6102
14253TIP3    H264175   4.097   0.591  14.177  0.4105 -0.4070  0.7285
14254TIP3   OH264176   1.311   5.226  11.805  0.4173 -0.8786  0.4706
14254TIP3    H164177   1.300   5.178  11.723  1.5358  0.2377 -0.3690
14254TIP3    H264178   1.232   5.208  11.856 -1.5595  0.5527 -1.9661
14255TIP3   OH264179   5.852   2.114   3.353  0.0222  0.0429 -0.5774
14255TIP3    H164180   5.918   2.175   3.386 -1.1913  0.7749  0.5207
14255TIP3    H264181   5.792   2.101   3.426  0.5630 -2.9417 -0.5712
14256TIP3   OH264182   2.599   2.407   3.544 -0.0365 -0.2793  0.5059
14256TIP3    H164183   2.508   2.430   3.523  0.3001  0.1243 -0.5294
14256TIP3    H264184   2.612   2.320   3.505 -0.0408 -0.4406  0.8553
14257TIP3   OH264185   4.542   4.931  12.578  0.1967 -0.1769  0.2231
14257TIP3    H164186   4.538   4.899  12.668 -3.7276  1.2300  0.6542
14257TIP3    H264187   4.501   5.018  12.582  1.7534  0.7601 -2.6048
14258TIP3   OH264188   1.410   3.455   4.326 -0.2502 -0.1706 -0.0474
14258TIP3    H164189   1.469   3.472   4.253 -0.5864  0.0483 -0.2659
14258TIP3    H264190   1.372   3.540   4.348  1.0189  0.0536  1.3994
14259TIP3   OH264191   1.724   1.033   3.941  0.5354  0.0367 -0.1191
14259TIP3    H164192   1.666   0.984   3.999  0.8592 -1.4531 -1.0279
14259TIP3    H264193   1.790   0.969   3.914 -0.1487  0.4392 -2.8558
14260TIP3   OH264194   3.375   2.921   5.542  0.0740  0.3761 -0.4002
14260TIP3    H164195   3.349   2.910   5.634 -1.1138  0.8740 -0.6648
14260TIP3    H264196   3.451   2.979   5.545 -0.4920  1.0855  0.2105
14261TIP3   OH264197   5.139   0.663  14.407 -0.0681  0.0516 -0.2832
14261TIP3    H164198   5.150   0.758  14.408  1.2643 -0.0827 -0.6911
14261TIP3    H264199   5.093   0.643  14.488  0.1064  1.0010  0.0585
14262TIP3   OH264200   1.426   4.652   0.436  0.0040 -0.5269 -0.5544
14262TIP3    H164201   1.454   4.665   0.346  1.4457  0.7255  0.0481
14262TIP3    H264202   1.422   4.741   0.473  0.5925 -1.1017  0.9315
14263TIP3   OH264203   6.362   4.065  14.121  0.2199 -0.0358 -0.3233
14263TIP3    H164204   6.301   3.993  14.133 -0.2655  0.1799 -1.4680
14263TIP3    H264205   6.374   4.072  14.026  0.6036  1.0918 -0.2054
14264TIP3   OH264206   5.474   4.841  12.210  0.6188 -0.3553  0.0393
14264TIP3    H164207   5.419   4.811  12.138  1.6960 -0.9882 -0.5491
14264TIP3    H264208   5.543   4.774  12.217  0.5547 -0.2839  1.6308
14265TIP3   OH264209   2.930   2.888   2.284 -0.1521  0.0273 -0.2610
14265TIP3    H164210   2.946   2.794   2.277  1.6902  0.3230 -0.2004
14265TIP3    H264211   2.908   2.902   2.376  1.7746 -0.0341  0.2241
14266TIP3   OH264212   4.729   5.220   1.926 -0.5749  0.2591  0.3843
14266TIP3    H164213   4.634   5.230   1.929 -0.7515 -1.1174 -0.1291
14266TIP3    H264214   4.747   5.144   1.982  0.2265  0.5468  0.5215
14267TIP3   OH264215   2.719   3.285   5.962 -0.3657  0.6212 -0.3350
14267TIP3    H164216   2.734   3.297   5.868 -0.8470  2.5898 -0.1862
14267TIP3    H264217   2.785   3.220   5.988  0.6230  1.0089 -1.7788
14268TIP3   OH264218   6.471   0.046  14.488  0.2743  0.2041  0.1263
14268TIP3    H164219   6.397   0.098  14.520  0.4660 -0.3084  1.4265
14268TIP3    H264220   6.541   0.060  14.552  0.8637 -0.3511 -0.3838
14269TIP3   OH264221   5.009   2.429   5.250  0.2131 -0.4128 -0.3481
14269TIP3    H164222   4.932   2.445   5.196  0.5471 -0.1800 -0.7657
14269TIP3    H264223   5.013   2.333   5.257  0.4377 -0.4708 -1.1502
14270TIP3   OH264224   5.783   3.448  16.172 -0.4428 -0.2323 -0.2759
14270TIP3    H164225   5.737   3.516  16.221 -0.4077  0.5673 -1.3316
14270TIP3    H264226   5.741   3.449  16.085 -0.2451 -1.3574 -0.3851
14271TIP3   OH264227   5.090   5.440   4.181  0.5709  0.2424 -0.3849
14271TIP3    H164228   5.072   5.454   4.088  0.7300  0.4691 -0.3830
14271TIP3    H264229   5.157   5.373   4.183  0.5857  0.2556 -0.4341
14272TIP3   OH264230   4.929   0.722  12.600  0.2510  0.1860 -0.0150
14272TIP3    H164231   4.939   0.628  12.580  1.1471  0.5000 -1.1108
14272TIP3    H264232   5.014   0.748  12.635  0.8419  1.1531 -2.1222
14273TIP3   OH264233   3.353   1.417   4.607  0.4561 -0.3458 -0.5286
14273TIP3    H164234   3.300   1.339   4.623  0.4301 -0.5777 -1.7107
14273TIP3    H264235   3.341   1.471   4.685  1.8608 -2.3118  1.0915
14274TIP3   OH264236   5.420   4.359   4.498  0.3689  0.0834 -0.3197
14274TIP3    H164237   5.407   4.445   4.540 -1.6099 -1.1617  1.7444
14274TIP3    H264238   5.336   4.339   4.458  0.7138 -1.0512 -0.4898
14275TIP3   OH264239   0.571   3.749   3.147  0.3252  0.1982 -0.4723
14275TIP3    H164240   0.615   3.815   3.094  0.2964  0.8223  0.2752
14275TIP3    H264241   0.492   3.792   3.180  0.4170 -0.1238  0.1924
14276TIP3   OH264242   3.826   3.031   1.726  0.5151 -0.4714 -0.4452
14276TIP3    H164243   3.882   3.023   1.649 -0.0799 -1.3307 -0.7850
14276TIP3    H264244   3.737   3.024   1.693  0.0391  3.2672 -0.2503
14277TIP3   OH264245   2.723   6.366   0.491 -0.4476  0.6088 -0.0897
14277TIP3    H164246   2.757   6.296   0.435  1.2750  0.9234  0.5594
14277TIP3    H264247   2.702   6.437   0.430  0.0519  0.4146 -0.4842
14278TIP3   OH264248   6.691   1.157  12.765 -0.8557 -0.0345 -0.3852
14278TIP3    H164249   6.746   1.228  12.799 -1.8538  0.7455 -0.3936
14278TIP3    H264250   6.753   1.099  12.720  0.2162 -0.0838  1.1036
14279TIP3   OH264251   5.328   3.366  14.444  0.4997  0.4291  0.1091
14279TIP3    H164252   5.288   3.315  14.375 -1.7121  1.5458  0.5222
14279TIP3    H264253   5.376   3.303  14.498 -0.0859 -0.8097 -0.8316
14280TIP3   OH264254   4.601   1.350   0.806  0.2841  0.0887 -0.2329
14280TIP3    H164255   4.562   1.352   0.719 -0.3771 -0.3465  0.0488
14280TIP3    H264256   4.692   1.323   0.791  0.0241 -0.5156 -0.7380
14281TIP3   OH264257   1.829   4.202  14.030  0.0486 -0.7880  0.5097
14281TIP3    H164258   1.868   4.282  14.066 -1.8822 -0.3915  1.7843
14281TIP3    H264259   1.885   4.132  14.063  1.0741 -0.0689  0.3436
14282TIP3   OH264260   0.401   1.440   5.511 -0.0233 -0.4116 -0.0195
14282TIP3    H164261   0.424   1.491   5.589 -1.0268 -0.0148  0.0276
14282TIP3    H264262   0.308   1.421   5.522 -0.8095  1.7864 -2.3068
14283TIP3   OH264263   2.738   5.422  15.978  0.3631  0.1118 -0.4118
14283TIP3    H164264   2.799   5.364  15.933  0.6504  0.3759 -0.3643
14283TIP3    H264265   2.681   5.455  15.909 -0.0157 -0.4920 -0.3847
14284TIP3   OH264266   1.038   6.118   5.588  0.6025 -0.8648 -0.0329
14284TIP3    H164267   1.056   6.160   5.504  2.2127  0.9913  1.1959
14284TIP3    H264268   1.125   6.109   5.628 -0.3849  0.5658  2.4921
14285TIP3   OH264269   2.783   0.868  10.644  0.3920 -0.5279  0.0753
14285TIP3    H164270   2.714   0.849  10.708  3.1051 -2.4083  2.5609
14285TIP3    H264271   2.807   0.959  10.661 -0.2062 -0.4302  0.4163
14286TIP3   OH264272   4.779   4.285  14.722  0.0646  0.4321  0.1094
14286TIP3    H164273   4.826   4.237  14.654 -1.1533 -1.3317  0.4851
14286TIP3    H264274   4.804   4.241  14.804  1.9869  2.9021  0.9226
14287TIP3   OH264275   5.093   5.601   4.409  0.3398  0.2448  0.0645
14287TIP3    H164276   5.076   5.557   4.326 -0.8050 -0.5991  0.7336
14287TIP3    H264277   5.085   5.695   4.389  0.0332  0.0433 -0.7714
14288TIP3   OH264278   4.307   0.651   1.442  0.4857  0.1297  0.5635
14288TIP3    H164279   4.320   0.561   1.410  1.0862  0.4362 -0.0590
14288TIP3    H264280   4.286   0.640   1.535  0.5988 -0.6528  0.5020
14289TIP3   OH264281   1.286   1.274  13.065 -0.2435 -0.0598  0.6802
14289TIP3    H164282   1.224   1.282  12.993  1.1823 -0.3586 -0.6040
14289TIP3    H264283   1.298   1.180  13.076  0.2977  0.0026  0.6342
14290TIP3   OH264284   0.884   4.006   3.992 -0.6141 -0.2939 -0.2558
14290TIP3    H164285   0.834   4.045   3.921  2.2052  1.9121 -1.1224
14290TIP3    H264286   0.930   3.932   3.951  0.4436  0.5306 -0.5604
14291TIP3   OH264287   0.434   2.836  14.327  0.0712 -0.0039  0.6385
14291TIP3    H164288   0.411   2.746  14.306  0.4204 -0.7063  3.1466
14291TIP3    H264289   0.391   2.854  14.411  0.2912  2.0531  0.3524
14292TIP3   OH264290   3.424   1.673  11.851  0.2350 -0.7362  0.7670
14292TIP3    H164291   3.488   1.603  11.838  0.5496 -0.0524 -1.5898
14292TIP3    H264292   3.475   1.747  11.882  0.5085 -0.4002 -0.4539
14293TIP3   OH264293   3.914   1.720  11.373 -0.2304 -0.1398 -0.1984
14293TIP3    H164294   3.910   1.811  11.344  2.9574 -0.4424 -1.7632
14293TIP3    H264295   3.860   1.673  11.310  0.9207  0.2146 -1.4778
14294TIP3   OH264296   0.868   4.056  14.088  0.4652  0.7752  0.1894
14294TIP3    H164297   0.822   4.031  14.008  0.4566  0.3659  0.3255
14294TIP3    H264298   0.826   4.138  14.114  1.8638  2.0204 -1.3686
14295TIP3   OH264299   4.134   3.099   3.019 -0.3216 -0.0861  0.5966
14295TIP3    H164300   4.078   3.033   3.060  0.4019 -0.7605  0.5146
14295TIP3    H264301   4.144   3.069   2.928 -0.3371  0.3577  0.4475
14296TIP3   OH264302   1.808   1.339   5.080  0.0530  0.4567 -0.1541
14296TIP3    H164303   1.722   1.344   5.038  0.3059  0.2436 -0.7030
14296TIP3    H264304   1.793   1.287   5.159 -0.2389  0.0418 -0.4770
14297TIP3   OH264305   4.058   4.028   3.869  0.0399 -0.1408  0.2217
14297TIP3    H164306   4.044   3.935   3.887  0.7582 -0.2419  0.2418
14297TIP3    H264307   3.976   4.056   3.828 -0.2624 -0.7300  0.4131
14298TIP3   OH264308   0.235   6.686   1.086 -0.7062 -0.1767 -0.3725
14298TIP3    H164309   0.152   6.716   1.123  0.1054  0.7189  0.7720
14298TIP3    H264310   0.229   6.591   1.088 -1.9334 -0.1214 -0.8395
14299TIP3   OH264311   6.398   1.268  16.128 -0.2113  0.5910  0.1722
14299TIP3    H164312   6.415   1.307  16.214  0.2982  0.7267  0.0088
14299TIP3    H264313   6.448   1.187  16.128  1.1742  1.4319 -0.6564
14300TIP3   OH264314   6.521   5.206  14.662  0.5289 -0.3120  0.0032
14300TIP3    H164315   6.509   5.298  14.686  0.1543 -0.7646  1.5700
14300TIP3    H264316   6.576   5.170  14.732  0.6477 -1.2921 -0.5925
14301TIP3   OH264317   2.050   3.102  15.987 -0.1836 -0.0969  0.5230
14301TIP3    H164318   2.041   3.012  15.955 -3.3249  0.4715 -0.3925
14301TIP3    H264319   1.974   3.115  16.043  0.1195  2.0663  0.4751
14302TIP3   OH264320   4.816   5.309   4.992  0.1083  0.1620  0.9138
14302TIP3    H164321   4.770   5.355   5.061 -1.5494 -0.7407  0.4325
14302TIP3    H264322   4.750   5.252   4.952  1.5398 -0.8896 -0.0233
14303TIP3   OH264323   5.314   3.560  11.062  0.8702  0.3654  0.1988
14303TIP3    H164324   5.324   3.539  10.969  3.4828 -0.9854  0.7312
14303TIP3    H264325   5.280   3.480  11.102  0.1287  0.8139  0.4726
14304TIP3   OH264326   0.707   3.354  12.558  0.3228 -0.6585  0.5900
14304TIP3    H164327   0.786   3.394  12.522  1.0326  1.6246  4.3493
14304TIP3    H264328   0.635   3.408  12.525  0.5066 -1.3428 -0.9747
14305TIP3   OH264329   3.599   2.099   2.416 -0.5086  0.2200 -0.3581
14305TIP3    H164330   3.628   2.009   2.430  0.5440  0.5717 -0.2219
14305TIP3    H264331   3.522   2.109   2.473  1.0549  0.2616  1.8231
14306TIP3   OH264332   5.548   0.912   6.278  0.2903 -0.3179 -0.0604
14306TIP3    H164333   5.619   0.974   6.261  1.4201 -2.5350 -4.2617
14306TIP3    H264334   5.575   0.866   6.357  0.4654  2.9759  1.8895
14307TIP3   OH264335   0.113   5.616  15.542 -0.2843 -0.1617 -0.2005
14307TIP3    H164336   0.140   5.705  15.562  1.9286 -1.3811  2.6461
14307TIP3    H264337   0.131   5.605  15.449 -0.6362  2.3628 -0.5876
14308TIP3   OH264338   3.397   6.760   3.975  0.3254  0.3022  0.2555
14308TIP3    H164339   3.435   6.730   3.893 -1.2799  1.2498 -0.8777
14308TIP3    H264340   3.367   6.849   3.956  0.2175  0.6547  1.9697
14309TIP3   OH264341   2.829   2.645  14.689 -0.2296 -0.0813 -0.0465
14309TIP3    H164342   2.747   2.661  14.642 -1.5161 -0.7730  1.8974
14309TIP3    H264343   2.890   2.615  14.622 -1.2927  1.3067 -1.6810
14310TIP3   OH264344   3.323   5.849  17.013 -0.3548  0.1309  0.0482
14310TIP3    H164345   3.351   5.767  17.053  1.5953  0.8313  0.1806
14310TIP3    H264346   3.402   5.884  16.972 -0.9924  2.2650  0.5631
14311TIP3   OH264347   5.699   0.104   1.383  0.0155  0.4097  0.3345
14311TIP3    H164348   5.666   0.129   1.297 -0.3396  0.7993  0.5771
14311TIP3    H264349   5.648   0.027   1.408 -2.2432  2.2410  1.6180
14312TIP3   OH264350   0.199   0.684   6.325  0.5482  0.7236 -0.0258
14312TIP3    H164351   0.115   0.638   6.334  0.7779 -0.0510 -1.6914
14312TIP3    H264352   0.175   0.777   6.321 -0.3752  0.4348 -1.9163
14313TIP3   OH264353   1.557   0.349   5.642  0.1185  0.2097 -0.4588
14313TIP3    H164354   1.521   0.297   5.714  0.1262 -0.5946 -1.0301
14313TIP3    H264355   1.633   0.393   5.681 -0.3143  0.3557  0.2198
14314TIP3   OH264356   3.856   5.462  16.938  0.2958 -0.0497 -0.1440
14314TIP3    H164357   3.857   5.533  16.875 -2.9460 -0.8298 -1.1763
14314TIP3    H264358   3.852   5.505  17.024  1.6436  0.9952 -0.5978
14315TIP3   OH264359   4.845   5.002  12.940  0.1553 -0.4528  0.4472
14315TIP3    H164360   4.851   5.094  12.916 -1.0270 -0.2675  0.8655
14315TIP3    H264361   4.933   4.980  12.970  0.7915  0.1848 -0.9018
14316TIP3   OH264362   2.584   3.371  11.548  0.0255 -0.1715 -0.0419
14316TIP3    H164363   2.495   3.374  11.512 -0.6697  0.4828  1.7061
14316TIP3    H264364   2.608   3.463  11.562  0.4060 -0.4066  0.8795
14317TIP3   OH264365   2.270   5.684   5.804 -0.2262  0.0973 -0.3427
14317TIP3    H164366   2.314   5.755   5.850  0.6263  0.3998 -1.5881
14317TIP3    H264367   2.181   5.682   5.840  0.4582  0.2376  1.3816
14318TIP3   OH264368   4.347   3.969  13.947 -0.3754  0.9778 -0.1914
14318TIP3    H164369   4.342   3.979  14.042 -0.5100  1.7838 -0.2796
14318TIP3    H264370   4.340   4.058  13.913  0.1436  0.7408 -0.9372
14319TIP3   OH264371   4.133   3.632   2.740  0.4342  0.2983  0.1702
14319TIP3    H164372   4.085   3.685   2.804 -0.2178  0.8462 -0.7726
14319TIP3    H264373   4.225   3.651   2.759  0.2388  0.8139  0.6431
14320TIP3   OH264374   5.515   3.709  11.756  0.0673  0.2279  0.2631
14320TIP3    H164375   5.603   3.680  11.781 -0.4335 -0.3400  1.4543
14320TIP3    H264376   5.461   3.630  11.764 -0.6028  0.6368 -0.1715
14321TIP3   OH264377   3.561   5.927  16.875  0.1770  0.2871 -0.2270
14321TIP3    H164378   3.590   5.977  16.799  3.1924  0.9443  1.2765
14321TIP3    H264379   3.612   5.847  16.873 -1.8553 -1.0351 -0.4828
14322TIP3   OH264380   2.176   3.141  16.685 -0.3198 -0.0002 -0.2770
14322TIP3    H164381   2.229   3.204  16.734 -1.4128  0.4519  0.3464
14322TIP3    H264382   2.231   3.117  16.611  0.4775  1.0009 -0.0354
14323TIP3   OH264383   5.634   0.216   3.008 -0.3148  0.1365  0.1994
14323TIP3    H164384   5.555   0.174   3.043  0.0633  1.3628  2.5965
14323TIP3    H264385   5.651   0.289   3.067  2.2066  0.3447 -0.7199
14324TIP3   OH264386   3.534   1.450   3.683 -0.7983 -0.0652 -0.2342
14324TIP3    H164387   3.588   1.462   3.605 -0.3870 -3.2628 -0.5086
14324TIP3    H264388   3.594   1.416   3.749 -1.6786  0.1658  0.7034
14325TIP3   OH264389   1.862   5.698   5.009 -0.4391 -0.5624 -0.0480
14325TIP3    H164390   1.902   5.781   5.036 -3.6732  1.1075 -0.0505
14325TIP3    H264391   1.843   5.653   5.091 -0.7971 -0.2108  0.0661
14326TIP3   OH264392   1.011   6.208   3.756 -0.2506  0.1581  0.0642
14326TIP3    H164393   1.050   6.295   3.752 -0.2080  0.1394  0.0714
14326TIP3    H264394   0.949   6.212   3.828 -0.3639  0.2305 -0.0381
14327TIP3   OH264395   3.127   5.964  13.439 -0.3718 -0.4142 -0.8627
14327TIP3    H164396   3.053   5.965  13.500 -0.2796 -0.8071 -0.7454
14327TIP3    H264397   3.147   6.057  13.425 -1.0556 -0.2928 -1.0992
14328TIP3   OH264398   4.494   1.707  10.890 -0.1503 -0.1246  0.3395
14328TIP3    H164399   4.483   1.793  10.850 -0.5116 -0.4768 -0.3300
14328TIP3    H264400   4.405   1.674  10.900  0.0268 -0.7592 -0.1583
14329TIP3   OH264401   5.230   2.585   5.281  0.3676  0.0350  0.5745
14329TIP3    H164402   5.283   2.512   5.313  0.4881  0.3545  1.1062
14329TIP3    H264403   5.142   2.548   5.272  0.3052 -0.0311  1.3852
14330TIP3   OH264404   1.358   5.826  10.893  0.1103 -0.3012  0.2447
14330TIP3    H164405   1.287   5.783  10.844 -0.2812  0.3322  0.2507
14330TIP3    H264406   1.367   5.911  10.851 -1.2623  0.8572  2.2154
14331TIP3   OH264407   1.720   1.895   4.252  0.7084 -0.4129  0.8163
14331TIP3    H164408   1.712   1.953   4.176  0.1924 -0.8639  0.5204
14331TIP3    H264409   1.768   1.819   4.219 -0.2240 -0.9687  0.7352
14332TIP3   OH264410   6.493   4.106  15.894  0.0851 -0.1293  0.2021
14332TIP3    H164411   6.462   4.050  15.823  0.7891 -0.5396  0.2183
14332TIP3    H264412   6.556   4.052  15.942  1.2435  0.8751 -0.1524
14333TIP3   OH264413   5.532   6.272   3.750  0.1425  0.3342 -0.5157
14333TIP3    H164414   5.531   6.203   3.817  0.6130 -0.2127 -1.0598
14333TIP3    H264415   5.528   6.354   3.799 -0.4199 -0.0803  0.1431
14334TIP3   OH264416   1.455   2.543   5.870 -0.2177  0.0795 -0.1309
14334TIP3    H164417   1.465   2.590   5.787  1.8816 -0.2777 -0.1164
14334TIP3    H264418   1.397   2.470   5.850  0.6153 -0.2415 -1.3986
14335TIP3   OH264419   6.131   5.180   2.437 -0.8009  0.6441 -0.4878
14335TIP3    H164420   6.172   5.127   2.505 -0.8366 -0.8266 -1.6043
14335TIP3    H264421   6.043   5.199   2.471 -1.2572 -1.1198 -0.6355
14336TIP3   OH264422   1.057   1.355   2.921  0.0345 -0.1384 -0.2679
14336TIP3    H164423   1.142   1.359   2.965 -0.7474 -2.6579  1.6061
14336TIP3    H264424   0.994   1.380   2.988 -0.8650 -0.0648 -1.1287
14337TIP3   OH264425   6.675   2.741  14.612  0.9089 -0.3568 -0.5031
14337TIP3    H164426   6.708   2.721  14.524 -1.5886 -0.1148 -1.5289
14337TIP3    H264427   6.629   2.824  14.601  0.7824 -0.2091  1.1187
14338TIP3   OH264428   3.935   6.050  16.770 -0.1206 -1.0509  0.9554
14338TIP3    H164429   4.030   6.052  16.775  0.0390 -0.1416 -1.5892
14338TIP3    H264430   3.906   6.125  16.821  0.6217 -0.1455  0.0582
14339TIP3   OH264431   3.875   4.319  12.150 -0.5669 -0.4024 -0.0515
14339TIP3    H164432   3.930   4.278  12.217 -1.9594 -0.5615  1.0170
14339TIP3    H264433   3.934   4.375  12.102  0.8864 -1.8443  0.0085
14340TIP3   OH264434   5.867   1.260   4.714 -0.4594  0.4862 -0.0196
14340TIP3    H164435   5.959   1.261   4.686 -0.7594  0.9442 -1.0000
14340TIP3    H264436   5.871   1.268   4.810  0.5694 -0.9599  0.0734
14341TIP3   OH264437   3.938   2.194  13.300  0.2086 -1.0223  0.3634
14341TIP3    H164438   3.911   2.267  13.245 -0.1156  0.1782  2.0798
14341TIP3    H264439   4.033   2.194  13.294  0.1551 -1.1661 -0.5332
14342TIP3   OH264440   4.664   1.528  16.166 -0.3413 -0.3544  0.5409
14342TIP3    H164441   4.589   1.498  16.115 -0.8249  1.7193  0.0177
14342TIP3    H264442   4.640   1.510  16.257 -1.2702 -0.1238  0.3417
14343TIP3   OH264443   2.961   3.563  14.370 -0.1230 -0.2223  0.1990
14343TIP3    H164444   2.898   3.599  14.307  0.5205  1.0556  0.2787
14343TIP3    H264445   3.026   3.632  14.382  0.4833 -0.9603  1.2669
14344TIP3   OH264446   0.228   4.387  11.116 -0.0063 -0.3540  0.1624
14344TIP3    H164447   0.281   4.333  11.058  0.4997  2.4308 -2.0762
14344TIP3    H264448   0.138   4.363  11.095  0.2110 -0.3704 -0.7653
14345TIP3   OH264449   0.672   3.499   2.199 -0.5012 -0.3243 -0.2017
14345TIP3    H164450   0.581   3.516   2.225  0.1272  0.9436  1.1712
14345TIP3    H264451   0.664   3.454   2.114 -2.4366 -1.2919  0.4694
14346TIP3   OH264452   4.895   1.771  12.538  0.0046 -0.1516  0.0432
14346TIP3    H164453   4.960   1.818  12.485  0.1551 -1.5241 -1.0011
14346TIP3    H264454   4.812   1.793  12.496 -0.1466  0.9228  0.8745
14347TIP3   OH264455   1.716   0.832   3.364  0.0312  0.0202 -0.2403
14347TIP3    H164456   1.686   0.836   3.273  1.7132  0.6610 -0.7825
14347TIP3    H264457   1.726   0.738   3.381 -2.0177 -0.1993 -0.1134
14348TIP3   OH264458   4.593   3.525  16.076 -1.0560 -0.1237  0.0149
14348TIP3    H164459   4.587   3.618  16.101  1.9380 -0.3585  1.8974
14348TIP3    H264460   4.569   3.478  16.156  1.7104 -0.9325  0.4015
14349TIP3   OH264461   1.487   5.609  14.563 -0.3241  0.4676  0.2456
14349TIP3    H164462   1.461   5.678  14.502  0.8806  1.6597  1.0379
14349TIP3    H264463   1.524   5.540  14.507 -1.1993  0.6200 -0.5255
14350TIP3   OH264464   3.452   4.942  13.692  0.0109  0.0963  0.0290
14350TIP3    H164465   3.447   4.938  13.787  0.5318  1.9231  0.1509
14350TIP3    H264466   3.364   4.923  13.662 -0.5017  0.9747  0.9419
14351TIP3   OH264467   5.781   3.387   2.288  0.0379  0.0659  0.1289
14351TIP3    H164468   5.819   3.323   2.228 -0.9983 -0.2688 -0.1719
14351TIP3    H264469   5.797   3.351   2.375 -0.0511 -0.3294 -0.0184
14352TIP3   OH264470   2.125   2.453   4.089  0.1774 -0.7019 -0.4946
14352TIP3    H164471   2.221   2.460   4.087  0.3153 -1.7019  1.5133
14352TIP3    H264472   2.108   2.368   4.131 -1.6014  0.2801  0.8332
14353TIP3   OH264473   0.892   0.903  11.480 -0.4999 -0.5307  0.5094
14353TIP3    H164474   0.839   0.976  11.449 -0.7724 -1.0040 -0.1363
14353TIP3    H264475   0.873   0.831  11.420 -1.7645 -1.7586  2.3198
14354TIP3   OH264476   0.582   5.684   2.844 -0.1289  0.6434  0.0524
14354TIP3    H164477   0.547   5.645   2.924  1.8819 -1.4792 -0.0535
14354TIP3    H264478   0.516   5.666   2.777  0.0639 -1.1887  0.3548
14355TIP3   OH264479   4.599   6.658  16.022 -0.5656 -0.5533 -0.1450
14355TIP3    H164480   4.570   6.748  16.036  1.5692  0.0475  0.7063
14355TIP3    H264481   4.633   6.630  16.107  1.9681 -0.9234 -1.2206
14356TIP3   OH264482   0.322   5.629  10.616 -0.7501 -0.0999  0.3570
14356TIP3    H164483   0.329   5.639  10.711  0.4213  1.2203  0.1507
14356TIP3    H264484   0.231   5.650  10.596 -0.8144  0.3420  1.1092
14357TIP3   OH264485   1.009   0.814   3.133 -0.0929 -0.6301 -0.1956
14357TIP3    H164486   0.978   0.857   3.213  2.6019  0.2780  0.4187
14357TIP3    H264487   1.022   0.723   3.158 -0.6388 -0.6575 -0.0022
14358TIP3   OH264488   6.095   5.441   2.331  0.1127 -0.6234  0.0194
14358TIP3    H164489   6.064   5.352   2.314  1.6927 -1.2021  0.1518
14358TIP3    H264490   6.184   5.430   2.364 -0.1945  0.9239  1.4196
14359TIP3   OH264491   4.193   1.106   1.950  0.6763  0.3192 -0.1152
14359TIP3    H164492   4.102   1.076   1.959  0.6424  0.4540 -0.0098
14359TIP3    H264493   4.209   1.158   2.028  0.9859 -0.0742  0.0869
14360TIP3   OH264494   0.475   2.475  11.273  0.5092  0.1264  0.8281
14360TIP3    H164495   0.517   2.417  11.209  0.9824 -2.2548  3.1948
14360TIP3    H264496   0.509   2.562  11.252  4.3134 -1.2877  0.7150
14361TIP3   OH264497   1.954   0.961  13.137 -0.4921  0.3554 -0.3640
14361TIP3    H164498   1.958   0.994  13.227 -2.8209 -1.4746  0.4824
14361TIP3    H264499   1.943   1.039  13.083  0.0297  1.4111  1.0176
14362TIP3   OH264500   1.450   4.841  17.185  0.2987  0.5733 -0.0112
14362TIP3    H164501   1.361   4.809  17.172  0.2777  0.1392  1.1281
14362TIP3    H264502   1.481   4.861  17.097 -1.1752  1.4291 -0.3597
14363TIP3   OH264503   1.579   6.760  16.941 -0.2461  0.5089  0.0401
14363TIP3    H164504   1.532   6.840  16.966 -0.4523  0.8770 -1.4654
14363TIP3    H264505   1.606   6.775  16.850 -0.5823 -1.2755 -0.3819
14364TIP3   OH264506   0.897   0.756   1.484 -0.5780  0.1484  0.0317
14364TIP3    H164507   0.917   0.773   1.576 -1.4404 -1.8807  0.6194
14364TIP3    H264508   0.804   0.776   1.475 -0.9669 -1.5758  0.0931
14365TIP3   OH264509   4.242   6.689  17.064 -0.8583 -0.3892 -0.2444
14365TIP3    H164510   4.284   6.608  17.093  0.9181  0.0210 -1.5706
14365TIP3    H264511   4.192   6.719  17.140  0.8366 -1.1604  1.2042
14366TIP3   OH264512   2.624   0.630   5.192 -0.4836  0.1835  0.1546
14366TIP3    H164513   2.687   0.560   5.178 -0.6225 -0.4057  2.2896
14366TIP3    H264514   2.597   0.657   5.104 -0.8020 -2.7568 -0.6784
14367TIP3   OH264515   0.879   6.405  11.551 -0.3582  0.2706  0.2548
14367TIP3    H164516   0.798   6.405  11.500 -0.9309 -0.3579  1.1413
14367TIP3    H264517   0.863   6.342  11.621 -0.4238  2.7478  2.5536
14368TIP3   OH264518   6.142   0.628   0.218 -0.5374 -0.1449 -0.5686
14368TIP3    H164519   6.065   0.635   0.274 -0.9342 -1.0102 -1.0014
14368TIP3    H264520   6.126   0.693   0.149 -0.8625 -0.2829 -0.6273
14369TIP3   OH264521   0.447   3.818   1.125  0.1355  0.0918 -0.1301
14369TIP3    H164522   0.529   3.783   1.090 -0.8728 -0.2621 -2.2820
14369TIP3    H264523   0.466   3.909   1.147  1.1163  0.0017 -0.5864
14370TIP3   OH264524   3.810   6.320  13.155 -0.5802  0.3545  0.8459
14370TIP3    H164525   3.867   6.328  13.232 -0.0440  0.4587  0.4434
14370TIP3    H264526   3.775   6.408  13.141  0.7119  0.7354 -0.0790
14371TIP3   OH264527   0.751   1.029   0.900  0.2644 -0.2483  0.0621
14371TIP3    H164528   0.820   1.082   0.939  0.3462  0.6219 -1.2503
14371TIP3    H264529   0.680   1.090   0.880  1.0704 -0.2786 -3.1185
14372TIP3   OH264530   6.402   1.060   1.995  0.5126 -0.0644 -0.4127
14372TIP3    H164531   6.494   1.045   1.973  0.2849 -1.9294 -0.1887
14372TIP3    H264532   6.353   1.024   1.921 -0.0448  0.9228 -0.5333
14373TIP3   OH264533   3.761   2.021  15.517 -0.9293  0.0887  0.0557
14373TIP3    H164534   3.679   2.022  15.567 -1.0600  1.0508 -0.1714
14373TIP3    H264535   3.828   2.043  15.581 -0.9217 -0.0793  0.1076
14374TIP3   OH264536   5.220   5.923  13.315  0.4771 -0.2017  0.8276
14374TIP3    H164537   5.275   5.862  13.266 -1.2561 -0.3361 -0.9829
14374TIP3    H264538   5.172   5.868  13.376 -2.1690 -0.8915 -1.8023
14375TIP3   OH264539   4.473   5.669  14.987 -0.2936 -0.1317 -0.0011
14375TIP3    H164540   4.545   5.732  14.990 -1.1388  0.7788  1.5220
14375TIP3    H264541   4.506   5.592  15.032 -0.7416  0.8125  2.0106
14376TIP3   OH264542   3.586   4.034  16.197 -0.3122  0.3078 -0.6276
14376TIP3    H164543   3.627   3.967  16.251  0.3691  0.8038 -0.5265
14376TIP3    H264544   3.614   4.014  16.108 -0.5910  0.1112 -0.6729
14377TIP3   OH264545   5.463   4.895   0.938 -0.2419 -0.1204  0.4682
14377TIP3    H164546   5.441   4.866   0.850 -0.4147  1.7745 -0.1350
14377TIP3    H264547   5.432   4.985   0.942  0.7917  0.1821  2.0960
14378TIP3   OH264548   4.659   3.096  14.597 -0.1828 -0.8706 -0.1317
14378TIP3    H164549   4.632   3.007  14.574 -0.8355 -1.0806  1.4016
14378TIP3    H264550   4.586   3.131  14.648  0.9662 -0.2141  1.0975
14379TIP3   OH264551   2.767   1.423   2.986 -0.5456  0.0553  0.6422
14379TIP3    H164552   2.821   1.495   3.017 -1.6913  1.6488 -0.9153
14379TIP3    H264553   2.684   1.433   3.032 -0.4623 -0.7354  0.9797
14380TIP3   OH264554   2.167   3.684   3.613  0.2056 -0.0109 -0.1733
14380TIP3    H164555   2.134   3.721   3.530 -0.6735  0.4618  0.3717
14380TIP3    H264556   2.252   3.647   3.591  0.5017  1.1510 -1.0428
14381TIP3   OH264557   1.306   3.986  16.800  0.2794 -1.2798 -0.3930
14381TIP3    H164558   1.212   3.998  16.794  0.3929 -0.8542 -1.3075
14381TIP3    H264559   1.323   3.904  16.754  0.0878 -2.5659  1.7473
14382TIP3   OH264560   5.725   1.725   1.216  0.4695 -0.0090 -0.6804
14382TIP3    H164561   5.733   1.774   1.297 -0.4311 -1.7537  0.5009
14382TIP3    H264562   5.669   1.779   1.160  2.6957  2.1352 -0.9156
14383TIP3   OH264563   2.500   4.468  11.814  0.8586  0.4617  0.1326
14383TIP3    H164564   2.525   4.435  11.901 -1.3039 -0.9292  0.2827
14383TIP3    H264565   2.491   4.562  11.826 -2.4240 -0.0327  2.2722
14384TIP3   OH264566   4.114   0.764  13.257 -0.1392 -0.0220 -0.3696
14384TIP3    H164567   4.200   0.797  13.283 -0.5248  0.9174 -0.2868
14384TIP3    H264568   4.060   0.772  13.336 -0.1681 -1.1062 -0.2654
14385TIP3   OH264569   6.631   0.146   3.406 -0.4384 -0.5561  0.1447
14385TIP3    H164570   6.585   0.209   3.350 -2.4458 -0.3080  2.0088
14385TIP3    H264571   6.670   0.083   3.344 -0.9370  0.8031 -1.5944
14386TIP3   OH264572   0.854   2.168   2.427 -0.1735  0.6669 -0.2433
14386TIP3    H164573   0.869   2.138   2.338  0.2745  0.3656 -0.0634
14386TIP3    H264574   0.758   2.164   2.437 -0.1046 -1.0563 -0.0968
14387TIP3   OH264575   5.584   1.576   5.056  0.3247 -0.3750  0.6093
14387TIP3    H164576   5.615   1.629   4.982 -0.6166 -1.7273 -0.7773
14387TIP3    H264577   5.589   1.635   5.131  0.6302  1.2506 -0.6550
14388TIP3   OH264578   4.446   2.441   2.233  0.6770 -0.1560 -0.7506
14388TIP3    H164579   4.423   2.487   2.313  2.4001  0.0697 -0.3615
14388TIP3    H264580   4.401   2.489   2.163 -0.5004 -0.1168  0.0348
14389TIP3   OH264581   0.284   4.432   5.033 -0.0159 -0.4703 -0.7646
14389TIP3    H164582   0.357   4.371   5.022 -0.0817 -1.1367  2.1891
14389TIP3    H264583   0.240   4.403   5.113 -1.4900  2.0075 -0.6288
14390TIP3   OH264584   2.316   0.080  15.880  0.5686  0.4052 -0.0339
14390TIP3    H164585   2.380   0.098  15.811 -0.2354 -1.1775 -1.2236
14390TIP3    H264586   2.260   0.157  15.881  2.1362  1.5683  0.6410
14391TIP3   OH264587   1.621   2.207   3.354  0.6645  0.3214  0.4793
14391TIP3    H164588   1.713   2.183   3.347  0.2758 -1.0453 -0.1210
14391TIP3    H264589   1.583   2.186   3.269  0.2699  3.0771 -0.0729
14392TIP3   OH264590   2.068   2.476   2.566  0.3554  0.2721 -0.7009
14392TIP3    H164591   2.030   2.489   2.653 -0.6499 -1.4562 -0.8713
14392TIP3    H264592   2.042   2.554   2.517  0.6087  1.0769  0.4160
14393TIP3   OH264593   3.691   3.496  16.516 -0.2545  0.3868 -0.2587
14393TIP3    H164594   3.643   3.577  16.531 -1.5362 -0.1555 -1.2971
14393TIP3    H264595   3.720   3.503  16.425 -0.8288 -0.5485 -0.5167
14394TIP3   OH264596   5.086   4.726  13.148  0.1689 -0.3230 -0.1998
14394TIP3    H164597   5.153   4.707  13.082  0.4901  0.6930 -0.1894
14394TIP3    H264598   5.077   4.645  13.198  1.4675 -0.4485 -0.1430
14395TIP3   OH264599   1.326   0.039   2.738 -0.1114  0.5140  0.0538
14395TIP3    H164600   1.332  -0.003   2.824  0.4765 -1.6295 -0.9873
14395TIP3    H264601   1.402   0.096   2.733  0.7996 -0.6703  0.2813
14396TIP3   OH264602   1.714   0.741  16.840 -0.1507 -0.1034  0.1288
14396TIP3    H164603   1.743   0.655  16.811  0.1807 -0.2394  0.8498
14396TIP3    H264604   1.678   0.782  16.761  1.0337 -0.3392 -0.5578
14397TIP3   OH264605   6.229   1.936   1.591  0.7704 -0.2137 -0.7664
14397TIP3    H164606   6.213   1.871   1.524  0.1412  1.2201 -2.0309
14397TIP3    H264607   6.300   1.990   1.557 -0.1797  1.1014 -0.7396
14398TIP3   OH264608   0.696   2.883   1.827 -0.2405  0.1837 -0.0611
14398TIP3    H164609   0.722   2.846   1.911 -3.7825  0.2172  1.1329
14398TIP3    H264610   0.627   2.947   1.849  0.2337  1.7380 -2.7900
14399TIP3   OH264611   1.396   1.598  13.586 -0.1407  0.1210  0.7920
14399TIP3    H164612   1.366   1.514  13.620  0.0751 -0.2314  0.1057
14399TIP3    H264613   1.405   1.585  13.492  0.5145  0.7286  0.7624
14400TIP3   OH264614   1.692   6.153   5.784 -0.0308  0.6566  0.0637
14400TIP3    H164615   1.720   6.133   5.695 -1.5656 -1.1434 -0.0259
14400TIP3    H264616   1.774   6.159   5.834  0.8458  1.8826 -1.4856
14401TIP3   OH264617   6.040   0.486   1.117  0.3154 -0.0073  0.0247
14401TIP3    H164618   5.982   0.442   1.180  0.6392 -2.5239 -1.3698
14401TIP3    H264619   6.033   0.578   1.139 -3.2193 -0.3704  0.7401
14402TIP3   OH264620   6.326   5.493  13.878 -0.0175 -0.0671  0.0354
14402TIP3    H164621   6.233   5.490  13.901 -0.1615 -1.5179 -0.6867
14402TIP3    H264622   6.367   5.426  13.933  0.6993  0.9315  0.7384
14403TIP3   OH264623   2.899   1.944   1.789 -0.6428 -0.0998  0.2890
14403TIP3    H164624   2.836   1.979   1.726  0.3509 -0.0788 -0.6978
14403TIP3    H264625   2.900   2.009   1.859  0.3629  1.3193 -1.0144
14404TIP3   OH264626   1.353   2.507  15.472 -0.0812  0.8608  0.2028
14404TIP3    H164627   1.385   2.524  15.561 -3.0762  2.6718  1.0160
14404TIP3    H264628   1.270   2.460  15.485  0.6191 -0.9910 -1.7321
14405TIP3   OH264629   0.886   1.468  17.174 -0.0808  0.0126 -0.1618
14405TIP3    H164630   0.805   1.456  17.124 -0.6210 -2.8797  1.3030
14405TIP3    H264631   0.857   1.478  17.264  1.1924 -0.9697  0.3587
14406TIP3   OH264632   0.843   4.508  15.609 -0.3739  0.5765 -0.1365
14406TIP3    H164633   0.901   4.432  15.600  1.1669  1.2800  3.1612
14406TIP3    H264634   0.895   4.582  15.578 -0.9299  0.6575 -0.8770
14407TIP3   OH264635   5.628   0.581  10.704 -0.1602  0.1211  0.1279
14407TIP3    H164636   5.680   0.592  10.625  1.3509  2.9167  1.4510
14407TIP3    H264637   5.691   0.558  10.772 -1.3272 -1.3353  0.7696
14408TIP3   OH264638   5.687   2.097  14.116  0.5171 -0.0701 -0.0153
14408TIP3    H164639   5.634   2.025  14.082  0.2532 -0.5016  1.2967
14408TIP3    H264640   5.624   2.157  14.155  0.8660  0.1779  0.1673
14409TIP3   OH264641   2.865   1.773   4.255  0.6181 -0.4795  0.1624
14409TIP3    H164642   2.896   1.783   4.165  0.2489 -1.6720 -0.1152
14409TIP3    H264643   2.807   1.696   4.252 -0.4578  0.2646  1.1442
14410TIP3   OH264644   5.026   6.236   2.317  0.1992 -0.1889  0.1752
14410TIP3    H164645   5.059   6.271   2.400  0.1245 -0.9181  0.5150
14410TIP3    H264646   4.977   6.158   2.342  0.7206 -0.7702 -0.6225
14411TIP3   OH264647   5.643   5.500   3.132 -0.4124 -0.1629  0.2626
14411TIP3    H164648   5.702   5.434   3.097 -0.8312 -0.9211  0.9702
14411TIP3    H264649   5.701   5.567   3.169  0.0042 -0.6571  0.5078
14412TIP3   OH264650   0.952   0.384  14.803  0.5406 -0.1459 -0.1202
14412TIP3    H164651   0.893   0.350  14.870  0.2457 -0.0168 -0.3110
14412TIP3    H264652   1.015   0.438  14.851  1.4695 -1.5566  0.2854
14413TIP3   OH264653   0.583   2.273   5.217  0.2399  0.5835  0.2711
14413TIP3    H164654   0.658   2.306   5.167 -0.2010 -1.0960 -1.5543
14413TIP3    H264655   0.517   2.342   5.211  0.8496  1.1540  0.0549
14414TIP3   OH264656   5.701   0.374   2.552 -0.2498  0.0634  0.5186
14414TIP3    H164657   5.660   0.323   2.622 -0.1215 -0.9609 -0.1429
14414TIP3    H264658   5.795   0.363   2.566 -0.2193  0.4604  0.6216
14415TIP3   OH264659   1.105   1.903   0.965 -0.3995 -0.1687  0.1169
14415TIP3    H164660   1.184   1.946   0.931 -0.2086  0.1180  0.9306
14415TIP3    H264661   1.060   1.871   0.886 -0.6070  1.6153 -0.5093
14416TIP3   OH264662   3.555   2.837   5.210 -0.0844  0.3386 -0.4237
14416TIP3    H164663   3.495   2.783   5.262  1.0415 -0.3142  0.2311
14416TIP3    H264664   3.570   2.785   5.130 -0.0154  0.2847 -0.3751
14417TIP3   OH264665   3.443   0.967   4.133 -0.0218 -0.3990  0.7608
14417TIP3    H164666   3.441   0.890   4.077  0.4729 -1.0686  1.6555
14417TIP3    H264667   3.537   0.987   4.143 -0.1777  1.1968 -0.6567
14418TIP3   OH264668   5.564   0.430  12.734 -0.0694  0.0385  0.1002
14418TIP3    H164669   5.543   0.366  12.666 -1.5662 -1.5241  1.9832
14418TIP3    H264670   5.656   0.415  12.753  0.6658  1.2331 -2.3193
14419TIP3   OH264671   3.939   2.003  11.392  0.1749  0.3913 -0.5530
14419TIP3    H164672   3.852   2.042  11.385 -0.4252 -1.0409 -1.3608
14419TIP3    H264673   3.960   2.008  11.485 -1.0501  0.1769 -0.2536
14420TIP3   OH264674   3.778   1.965  12.825 -0.7231 -0.2202  0.5074
14420TIP3    H164675   3.743   2.053  12.835  1.1246  0.4922  0.9502
14420TIP3    H264676   3.772   1.926  12.912 -0.0243  0.0658  0.6898
14421TIP3   OH264677   2.868   0.699  14.099  0.4037 -0.5900 -0.0871
14421TIP3    H164678   2.822   0.695  14.182  1.4291  0.2109  0.5303
14421TIP3    H264679   2.809   0.748  14.041 -0.2746 -1.0758  0.1879
14422TIP3   OH264680   6.362   6.500  14.705 -0.1543 -0.4046  0.3608
14422TIP3    H164681   6.416   6.460  14.773 -1.3251 -4.0912 -0.7428
14422TIP3    H264682   6.298   6.553  14.753 -0.2147 -2.0177  2.1125
14423TIP3   OH264683   1.408   3.065  13.025 -0.3490 -0.0355 -0.1985
14423TIP3    H164684   1.399   3.003  13.097  0.4959  1.4639  1.2222
14423TIP3    H264685   1.377   3.017  12.948  0.4877 -2.2896  0.8394
14424TIP3   OH264686   0.178   6.680   2.408  0.1453  0.4469 -0.2286
14424TIP3    H164687   0.270   6.653   2.409 -0.0189 -0.1170  1.7842
14424TIP3    H264688   0.148   6.658   2.320  1.5109 -0.8575 -0.3960
14425TIP3   OH264689   5.294   3.382   4.948 -0.4926 -0.0727  1.1075
14425TIP3    H164690   5.335   3.317   4.891 -2.7643 -2.5745  2.1734
14425TIP3    H264691   5.204   3.388   4.917 -0.6306  1.7136  1.7820
14426TIP3   OH264692   6.783   3.740   4.813 -0.0656  0.0644 -0.0982
14426TIP3    H164693   6.787   3.652   4.777 -0.5101 -0.9742  2.3077
14426TIP3    H264694   6.866   3.780   4.789  0.1769 -1.0457 -1.1250
14427TIP3   OH264695   4.296   4.545  14.497  0.2910  0.2499 -0.3729
14427TIP3    H164696   4.372   4.586  14.456  1.2532  0.0584  1.1903
14427TIP3    H264697   4.321   4.535  14.589 -1.4348 -0.2710  0.0476
14428TIP3   OH264698   4.876   6.097   3.449 -0.3837  0.3590 -0.0825
14428TIP3    H164699   4.821   6.151   3.505 -0.6918  1.6876 -1.6446
14428TIP3    H264700   4.907   6.156   3.380  2.9500 -0.3458  0.6995
14429TIP3   OH264701   0.682   4.048  15.503 -0.2590  0.2555 -0.0667
14429TIP3    H164702   0.604   4.027  15.452 -0.6843 -0.1025  0.7259
14429TIP3    H264703   0.661   4.021  15.592  0.4124  1.0500  0.3404
14430TIP3   OH264704   5.357   4.939  15.727  0.4432  0.1191 -0.2846
14430TIP3    H164705   5.452   4.927  15.738  0.0231 -2.0630  1.2893
14430TIP3    H264706   5.318   4.863  15.770 -2.0886  1.5953  0.1084
14431TIP3   OH264707   0.959   4.927  16.201  0.0210  0.2613  0.0205
14431TIP3    H164708   0.987   4.902  16.289  1.0437  2.2544  0.2988
14431TIP3    H264709   0.881   4.874  16.184  0.6498 -1.1808  1.5529
14432TIP3   OH264710   5.224   0.826   4.868  0.0626 -0.2680  0.8509
14432TIP3    H164711   5.214   0.733   4.890 -1.1113 -0.1147  0.9858
14432TIP3    H264712   5.299   0.828   4.808  1.3750 -1.0417  2.4269
14433TIP3   OH264713   0.515   1.870  17.017 -0.0939 -0.5311 -0.1729
14433TIP3    H164714   0.471   1.909  17.093 -0.6670  0.3784 -0.9640
14433TIP3    H264715   0.446   1.827  16.968  0.2038 -0.7260 -0.4230
14434TIP3   OH264716   6.425   2.309   4.055  0.0839 -0.0381  0.6616
14434TIP3    H164717   6.457   2.353   3.976 -0.2651 -0.9273  0.0128
14434TIP3    H264718   6.485   2.336   4.124  0.0217  1.2447  0.2217
14435TIP3   OH264719   2.866   5.426   1.123 -0.2238 -0.2197 -0.7996
14435TIP3    H164720   2.927   5.477   1.177 -0.3133 -0.8768 -0.0710
14435TIP3    H264721   2.866   5.339   1.162 -2.8743  0.1899  0.1886
14436TIP3   OH264722   2.640   0.647  16.102  0.1649 -0.0899 -0.5666
14436TIP3    H164723   2.680   0.697  16.173  0.1994  0.2729 -0.8435
14436TIP3    H264724   2.553   0.624  16.136  0.0870  0.2928 -0.5031
14437TIP3   OH264725   2.361   1.733   4.175  0.6761  0.3064  0.1829
14437TIP3    H164726   2.373   1.731   4.080 -3.3263  0.0763 -0.4156
14437TIP3    H264727   2.358   1.827   4.196 -1.9003  0.4110 -0.4907
14438TIP3   OH264728   3.816   6.615   0.653  0.1575 -0.2463  0.1331
14438TIP3    H164729   3.861   6.616   0.738 -1.5314  4.8048  1.1577
14438TIP3    H264730   3.723   6.616   0.675 -0.3123  0.1608 -1.7706
14439TIP3   OH264731   0.665   3.239  13.527 -0.2104 -0.0109 -0.3793
14439TIP3    H164732   0.743   3.280  13.491  0.2823 -1.2257 -0.7248
14439TIP3    H264733   0.696   3.188  13.602 -0.6483 -0.5697 -0.5728
14440TIP3   OH264734   5.047   1.855   5.505  0.7409 -0.6637  0.0767
14440TIP3    H164735   5.135   1.829   5.535  0.0792 -3.8386 -0.5786
14440TIP3    H264736   4.996   1.864   5.585  0.9803 -1.4895  0.3294
14441TIP3   OH264737   2.144   5.426   5.070 -0.1479  0.1120  0.3645
14441TIP3    H164738   2.151   5.337   5.035  2.2648 -0.0562  1.1887
14441TIP3    H264739   2.117   5.479   4.996 -0.9413 -1.1970 -0.2972
14442TIP3   OH264740   4.104   1.241   1.727 -0.3368 -0.3325  0.1323
14442TIP3    H164741   4.164   1.186   1.777 -0.8335 -0.7773  0.2420
14442TIP3    H264742   4.047   1.180   1.681  0.6653  0.0584 -1.6853
14443TIP3   OH264743   5.354   2.728   4.327 -0.0187  0.3956  0.1680
14443TIP3    H164744   5.440   2.733   4.287  0.5341  0.9188  1.3920
14443TIP3    H264745   5.342   2.813   4.369 -0.3845 -0.3011  1.4938
14444TIP3   OH264746   4.682   3.921  11.967 -0.3389 -0.1757  0.1082
14444TIP3    H164747   4.748   3.893  12.030  1.0741  1.7722 -0.4527
14444TIP3    H264748   4.729   3.923  11.883 -1.5708 -0.4656 -0.5971
14445TIP3   OH264749   1.734   1.350  14.507 -0.3545 -0.1773 -0.7381
14445TIP3    H164750   1.805   1.412  14.526 -0.1893 -0.0823 -1.6530
14445TIP3    H264751   1.690   1.386  14.430 -1.5357 -0.1308 -0.0531
14446TIP3   OH264752   6.480   5.972   1.176  0.6436  0.1185  0.5291
14446TIP3    H164753   6.566   5.937   1.153  0.4902 -0.1431  0.3544
14446TIP3    H264754   6.463   5.938   1.264 -0.0887 -1.3507 -0.1557
14447TIP3   OH264755   3.655   5.046  11.971 -0.7123 -0.5848  0.3330
14447TIP3    H164756   3.584   5.107  11.991 -0.2543 -0.0304  0.2790
14447TIP3    H264757   3.729   5.079  12.022 -0.1555 -0.4554 -0.5547
14448TIP3   OH264758   2.738   1.409   3.783  0.1476 -0.1075 -0.5538
14448TIP3    H164759   2.747   1.503   3.796 -2.0381  0.1119 -0.4523
14448TIP3    H264760   2.655   1.386   3.826 -0.6855 -1.6052 -2.8481
14449TIP3   OH264761   2.204   4.347  13.522 -0.0578 -0.2662 -0.1774
14449TIP3    H164762   2.110   4.327  13.519  0.0500 -0.6210 -1.0610
14449TIP3    H264763   2.210   4.419  13.585 -0.9269 -0.2269 -0.1295
14450TIP3   OH264764   4.855   5.896  16.999 -0.4188 -0.0742  0.4417
14450TIP3    H164765   4.814   5.922  17.082 -0.8248 -1.8705  0.8317
14450TIP3    H264766   4.902   5.815  17.020  1.7288  0.8937 -0.4701
14451TIP3   OH264767   5.655   2.106  17.201  0.0263 -0.1760 -0.2540
14451TIP3    H164768   5.735   2.157  17.213 -0.7045  0.8562  0.3359
14451TIP3    H264769   5.591   2.148  17.258 -1.0665 -0.7137 -1.0590
14452TIP3   OH264770   5.989   3.127  10.713 -0.3590  0.1519 -0.0525
14452TIP3    H164771   6.034   3.146  10.631  0.6395 -0.3102  0.3878
14452TIP3    H264772   5.896   3.127  10.689 -0.0814  0.0596 -1.1787
14453TIP3   OH264773   0.261   4.895   3.536 -0.0123  0.4047 -0.1375
14453TIP3    H164774   0.332   4.850   3.490  0.7401 -1.1377  2.4235
14453TIP3    H264775   0.304   4.965   3.584 -0.2202 -0.5079  1.3908
14454TIP3   OH264776   1.491   2.087   2.682 -0.3550 -0.3174  0.1251
14454TIP3    H164777   1.425   2.148   2.650 -2.1642 -0.4406  3.3371
14454TIP3    H264778   1.562   2.142   2.712  0.1888 -0.0793 -1.5633
14455TIP3   OH264779   4.542   0.025   1.542 -0.4453 -0.8377  0.2377
14455TIP3    H164780   4.628  -0.012   1.564  0.1567  1.3006  1.6467
14455TIP3    H264781   4.479  -0.030   1.589  0.1492 -2.3409 -0.7045
14456TIP3   OH264782   1.808   2.367  15.889 -0.1867  0.6410 -1.0322
14456TIP3    H164783   1.766   2.450  15.866 -1.6105  0.5267  1.0205
14456TIP3    H264784   1.745   2.300  15.864 -1.1993  0.4558  1.7989
14457TIP3   OH264785   2.011   0.289  12.143 -0.5484 -0.2517 -0.1011
14457TIP3    H164786   1.939   0.334  12.188 -0.1726  0.7342 -0.4678
14457TIP3    H264787   1.995   0.305  12.050  0.2047  0.0926 -0.1790
14458TIP3   OH264788   1.971   2.104   5.689 -0.5176 -0.5051 -0.1054
14458TIP3    H164789   2.055   2.146   5.671 -0.1294 -0.3915  1.8134
14458TIP3    H264790   1.981   2.015   5.654  1.1289 -1.1089  1.7682
14459TIP3   OH264791   5.152   5.636  13.801  0.3223 -0.2803  0.3371
14459TIP3    H164792   5.225   5.695  13.817 -1.1764  1.3879  1.1898
14459TIP3    H264793   5.088   5.658  13.869 -1.3425 -1.1108 -0.9260
14460TIP3   OH264794   0.798   5.369  11.124  0.0380  0.1987  0.4908
14460TIP3    H164795   0.864   5.384  11.056  0.4327 -0.4745  0.7120
14460TIP3    H264796   0.785   5.454  11.165 -0.1486  0.5947 -0.3841
14461TIP3   OH264797   0.159   1.672   3.713  0.1542  0.4248 -0.0081
14461TIP3    H164798   0.208   1.687   3.794 -0.3070 -0.3520  0.4248
14461TIP3    H264799   0.210   1.717   3.645  0.8858  0.5394  0.6071
14462TIP3   OH264800   2.968   2.117  15.827 -0.2232 -0.2450 -0.1572
14462TIP3    H164801   2.938   2.036  15.785  3.3561 -1.3205 -0.8418
14462TIP3    H264802   2.993   2.089  15.915  0.4567  0.2090 -0.2027
14463TIP3   OH264803   5.359   4.025  12.830 -0.0454  0.1541 -0.6428
14463TIP3    H164804   5.269   4.056  12.839  0.7501  2.4386 -0.1542
14463TIP3    H264805   5.382   4.045  12.739 -0.1437 -0.8034 -0.8860
14464TIP3   OH264806   4.010   4.268   0.606 -0.0490  0.3187 -0.3825
14464TIP3    H164807   4.071   4.270   0.680  2.9203 -0.6796 -2.6775
14464TIP3    H264808   3.979   4.178   0.602  1.0494 -0.0444 -1.2490
14465TIP3   OH264809   2.091   0.751   1.271 -0.2023  0.6370 -0.5417
14465TIP3    H164810   2.044   0.668   1.275 -0.4350  0.7095 -1.8466
14465TIP3    H264811   2.030   0.815   1.307 -0.6136  0.5132 -1.0172
14466TIP3   OH264812   1.800   4.458  13.704  0.4934 -0.0757  0.1857
14466TIP3    H164813   1.816   4.535  13.759  0.6910  0.0428 -0.0399
14466TIP3    H264814   1.791   4.493  13.616  1.7077 -0.4319 -0.0796
14467TIP3   OH264815   5.630   4.731   3.344  0.3086 -0.7420  0.6409
14467TIP3    H164816   5.679   4.695   3.270 -1.5206 -2.2982  0.1401
14467TIP3    H264817   5.583   4.656   3.380  1.2120 -0.0026  3.4333
14468TIP3   OH264818   2.591   5.007   5.839 -0.2317 -0.4817  0.1296
14468TIP3    H164819   2.516   4.954   5.864  1.0031 -2.2035  0.2531
14468TIP3    H264820   2.667   4.952   5.859  1.0337  0.9489 -0.6597
14469TIP3   OH264821   0.348   5.866  11.558 -0.0494  0.7443  0.2460
14469TIP3    H164822   0.426   5.836  11.606  0.0737  0.7157  0.0305
14469TIP3    H264823   0.319   5.943  11.606 -0.9382 -0.2755  1.3737
14470TIP3   OH264824   3.110   1.600  16.055 -0.1241  0.2433  0.2689
14470TIP3    H164825   3.061   1.529  16.097  1.9334 -0.4284  1.6027
14470TIP3    H264826   3.141   1.562  15.973 -0.0040 -0.0403  0.4435
14471TIP3   OH264827   6.736   0.470  14.664  0.4206 -0.2003  0.0098
14471TIP3    H164828   6.671   0.460  14.734 -1.0308  1.3935 -1.0682
14471TIP3    H264829   6.684   0.471  14.584  1.8254  0.8270 -0.8919
14472TIP3   OH264830   2.736   6.247   2.420 -0.4110 -0.2516  0.5953
14472TIP3    H164831   2.801   6.182   2.395 -1.3744 -0.5520 -1.2167
14472TIP3    H264832   2.664   6.234   2.359 -0.1835  3.2009 -0.5429
14473TIP3   OH264833   0.999   1.947  16.933  0.5058 -0.4393 -0.0194
14473TIP3    H164834   1.058   1.989  16.995  0.2453 -2.0277  1.3703
14473TIP3    H264835   0.916   1.994  16.943 -0.3190 -2.3244  2.8658
14474TIP3   OH264836   5.472   3.376  16.430 -0.4320  0.4677 -0.4573
14474TIP3    H164837   5.398   3.429  16.399 -0.4996 -0.4867 -1.9719
14474TIP3    H264838   5.482   3.308  16.364  2.2153  0.9347 -0.5856
14475TIP3   OH264839   6.009   2.938  15.935  0.5936  0.4602 -0.4558
14475TIP3    H164840   6.017   2.913  16.027 -4.5413 -0.0642  0.0321
14475TIP3    H264841   6.026   3.032  15.934  0.9682  0.4258  0.9899
14476TIP3   OH264842   0.250   6.527  16.552  0.1047  0.1580 -0.3229
14476TIP3    H164843   0.272   6.619  16.564 -1.8595  0.7707 -1.2171
14476TIP3    H264844   0.164   6.528  16.510  0.0439 -2.0874 -0.3196
14477TIP3   OH264845   3.188   5.551  16.420  0.3482  0.1460  0.4141
14477TIP3    H164846   3.134   5.500  16.481 -0.7172  0.4568 -0.2467
14477TIP3    H264847   3.125   5.605  16.373  1.1987  0.1426 -0.7352
14478TIP3   OH264848   6.025   5.780   3.831 -0.8502 -0.2781 -0.0861
14478TIP3    H164849   6.073   5.854   3.794 -0.4164 -1.0669 -1.1521
14478TIP3    H264850   5.936   5.790   3.798 -1.0079  0.2766  0.5211
14479TIP3   OH264851   0.489   3.682   1.627  0.0304  0.1377  0.2602
14479TIP3    H164852   0.467   3.593   1.652 -1.2971  0.6070  0.7961
14479TIP3    H264853   0.428   3.704   1.556  0.7697  0.4041 -0.3075
14480TIP3   OH264854   5.745   3.082  15.516  0.5509  0.8311  0.2348
14480TIP3    H164855   5.775   3.090  15.606 -0.3091 -2.0491  0.8167
14480TIP3    H264856   5.650   3.095  15.522  0.0576 -2.4883  0.2440
14481TIP3   OH264857   6.346   5.017  11.350  0.3669  0.5406 -0.1625
14481TIP3    H164858   6.319   4.949  11.288  3.1618 -1.6595  0.9223
14481TIP3    H264859   6.347   4.973  11.435  1.6328  2.1106  0.6606
14482TIP3   OH264860   0.289   5.402  17.100 -0.2189 -0.4754  0.2697
14482TIP3    H164861   0.254   5.435  17.183 -0.3484  1.4409 -0.5245
14482TIP3    H264862   0.224   5.430  17.035  0.6161 -0.6947 -0.6545
14483TIP3   OH264863   2.261   6.534   0.130 -0.2034 -0.0335 -0.3617
14483TIP3    H164864   2.227   6.609   0.179 -0.4634  0.3210 -1.0851
14483TIP3    H264865   2.355   6.550   0.123 -0.0868 -0.3347  0.4496
14484TIP3   OH264866   3.439   0.750   4.955  0.0671 -0.2463 -0.3126
14484TIP3    H164867   3.495   0.826   4.937  0.5997 -1.1223 -2.5836
14484TIP3    H264868   3.492   0.694   5.011 -0.2598  0.9512  1.2293
14485TIP3   OH264869   1.281   0.147  16.773  0.1441  0.8153  0.1531
14485TIP3    H164870   1.348   0.147  16.842 -0.4240 -1.7061  0.7726
14485TIP3    H264871   1.330   0.164  16.693  1.4264 -0.1678  0.7029
14486TIP3   OH264872   1.099   3.934   3.456 -0.1513  0.8760 -0.1401
14486TIP3    H164873   1.156   3.881   3.400 -0.6256 -0.4501  0.6055
14486TIP3    H264874   1.088   4.016   3.408  0.9821  0.4822 -1.1001
14487TIP3   OH264875   3.196   2.997   2.274  0.2148  0.6831  0.3741
14487TIP3    H164876   3.242   2.949   2.205  1.0339  2.4361 -0.3179
14487TIP3    H264877   3.110   2.954   2.280 -0.1588  0.9780 -2.2953
14488TIP3   OH264878   0.768   3.214  16.020  0.3589  0.1672 -0.1205
14488TIP3    H164879   0.751   3.301  16.056  0.2229  0.1673 -0.1841
14488TIP3    H264880   0.794   3.230  15.929  0.1104  0.1248 -0.1990
14489TIP3   OH264881   1.002   5.208  14.908  0.6086 -0.4810  0.4427
14489TIP3    H164882   1.067   5.267  14.870  1.0970 -0.9735  0.5036
14489TIP3    H264883   1.040   5.121  14.895  0.0298 -0.7557  0.6187
14490TIP3   OH264884   0.154   0.450  13.323 -0.2529 -0.2724  0.2957
14490TIP3    H164885   0.214   0.479  13.391  1.0361 -1.0328 -0.5098
14490TIP3    H264886   0.152   0.354  13.332 -1.2605 -0.2657  0.2426
14491TIP3   OH264887   1.736   0.569   2.148  0.4695  0.2399  0.4800
14491TIP3    H164888   1.646   0.561   2.181  1.1878  0.6925  2.6312
14491TIP3    H264889   1.761   0.479   2.125  0.5996 -0.4138  3.0149
14492TIP3   OH264890   6.360   0.141  11.776 -0.1782 -0.4664  0.7259
14492TIP3    H164891   6.291   0.102  11.723  0.3057 -1.0531  0.5298
14492TIP3    H264892   6.436   0.146  11.718 -1.1357  3.9095 -0.3790
14493TIP3   OH264893   5.873   1.307  10.853  0.0995 -0.0095 -0.3952
14493TIP3    H164894   5.947   1.274  10.803  0.8027 -1.7314  1.6840
14493TIP3    H264895   5.797   1.288  10.798  0.9172 -1.1741 -1.1401
14494TIP3   OH264896   0.243   2.901   2.256  0.0009 -0.3823  0.4259
14494TIP3    H164897   0.330   2.934   2.232 -0.9449  0.5083 -1.9538
14494TIP3    H264898   0.256   2.807   2.271  1.4855 -0.1508  0.6770
14495TIP3   OH264899   5.706   6.036  16.739  0.0574  0.0440  0.0129
14495TIP3    H164900   5.665   6.032  16.826  1.5348 -1.9248  0.6618
14495TIP3    H264901   5.640   6.076  16.683 -1.8755 -0.9571  1.5227
14496TIP3   OH264902   3.340   5.478   0.418 -0.1725  0.6751  0.3938
14496TIP3    H164903   3.258   5.526   0.427  0.2004  1.2034  1.0568
14496TIP3    H264904   3.343   5.421   0.496  0.6596  1.5494  1.0135
14497TIP3   OH264905   4.586   5.884  14.727  0.5284  0.5104 -0.0850
14497TIP3    H164906   4.518   5.920  14.670  1.9172  1.2671 -1.3047
14497TIP3    H264907   4.661   5.870  14.669  1.4317 -0.2766  1.2403
14498TIP3   OH264908   3.698   3.854   4.671  0.0458 -0.4471 -0.0808
14498TIP3    H164909   3.654   3.888   4.749 -1.2135  0.5134 -1.1753
14498TIP3    H264910   3.640   3.785   4.639  1.4326 -2.0412  0.8095
14499TIP3   OH264911   5.274   0.290   0.970 -0.4278 -0.1136  0.1078
14499TIP3    H164912   5.281   0.275   0.876  2.4515 -0.2429  0.3221
14499TIP3    H264913   5.232   0.211   1.003 -0.9456 -0.3091 -0.9878
14500TIP3   OH264914   6.168   3.107  13.966 -0.5947  0.0114  0.0791
14500TIP3    H164915   6.082   3.075  13.991 -1.0685  0.7528 -0.6018
14500TIP3    H264916   6.226   3.078  14.037 -1.9456  2.2150  2.1505
14501TIP3   OH264917   1.819   3.470   5.104 -0.2059  0.4617  0.5277
14501TIP3    H164918   1.842   3.439   5.017  0.1631  0.4798  0.6165
14501TIP3    H264919   1.792   3.561   5.092  1.4092  0.9720  0.6517
14502TIP3   OH264920   6.166   3.304   3.874 -0.2942 -0.3127 -0.5186
14502TIP3    H164921   6.247   3.256   3.891 -0.2778 -0.3656 -0.7373
14502TIP3    H264922   6.191   3.367   3.805 -0.4764 -0.4262 -0.6865
14503TIP3   OH264923   2.894   1.346   2.465  0.3635  1.1173 -0.3063
14503TIP3    H164924   2.889   1.357   2.560 -0.5117  0.5112 -0.2812
14503TIP3    H264925   2.811   1.379   2.432  0.1549  0.1537 -0.7558
14504TIP3   OH264926   2.324   2.542  13.568 -0.5759  0.4699 -0.2318
14504TIP3    H164927   2.362   2.524  13.654 -0.0545  0.3548 -0.4817
14504TIP3    H264928   2.399   2.543  13.508 -1.1530 -1.5666 -1.0348
14505TIP3   OH264929   6.121   1.825   4.182 -0.1554  0.0710 -0.0401
14505TIP3    H164930   6.118   1.916   4.210 -0.3706 -0.3076  1.1864
14505TIP3    H264931   6.213   1.807   4.163 -0.0788  0.4723 -0.0335
14506TIP3   OH264932   2.297   4.855  13.762 -0.4495 -0.3327 -0.2817
14506TIP3    H164933   2.260   4.932  13.806 -0.1361 -0.7482  0.7303
14506TIP3    H264934   2.350   4.891  13.691  0.0065  0.3990  0.4254
14507TIP3   OH264935   6.271   1.818   5.900  0.0440 -0.3807  0.1191
14507TIP3    H164936   6.336   1.748   5.893  0.6649  0.2483 -0.4321
14507TIP3    H264937   6.312   1.893   5.857 -1.2380 -0.1192 -0.6632
14508TIP3   OH264938   4.260   5.975   0.493 -0.3111 -0.0734 -0.3941
14508TIP3    H164939   4.349   6.007   0.476 -0.3566  0.6104  0.6663
14508TIP3    H264940   4.268   5.879   0.490  0.1924 -0.0088 -1.6262
14509TIP3   OH264941   6.553   3.687   1.837  0.3019  0.1622  0.1922
14509TIP3    H164942   6.510   3.755   1.890 -0.1158  0.0428  0.0128
14509TIP3    H264943   6.629   3.731   1.799 -1.8061  1.5061 -2.6273
14510TIP3   OH264944   5.762   3.100   5.242  0.4303 -0.5419 -0.8471
14510TIP3    H164945   5.669   3.119   5.235  0.6945  1.1094  0.0981
14510TIP3    H264946   5.772   3.060   5.328  0.6438 -0.4259 -0.8179
14511TIP3   OH264947   6.324   3.316  11.589 -0.3021 -0.1923  0.4736
14511TIP3    H164948   6.294   3.405  11.568 -1.8418 -0.5782  0.9884
14511TIP3    H264949   6.375   3.289  11.512  0.0494  1.0750  0.2542
14512TIP3   OH264950   3.989   1.177   4.449  0.7091  1.0098  0.8492
14512TIP3    H164951   3.997   1.265   4.413  0.0809  0.9400  0.5388
14512TIP3    H264952   3.895   1.159   4.449  0.8132  0.4415  1.1568
14513TIP3   OH264953   4.022   4.377  16.849  0.1364 -0.2415 -0.2380
14513TIP3    H164954   4.066   4.296  16.876 -1.6085 -0.5504  1.8006
14513TIP3    H264955   4.041   4.384  16.755  4.3300 -0.4298  0.5173
14514TIP3   OH264956   6.043   6.282  14.511 -0.0814  0.0176 -0.1304
14514TIP3    H164957   6.107   6.273  14.582  0.7554  0.9280 -0.7576
14514TIP3    H264958   5.966   6.320  14.553  0.7697  1.5075  0.1141
14515TIP3   OH264959   5.057   0.411  11.213  0.2351 -0.2112 -1.0700
14515TIP3    H164960   5.126   0.478  11.208  2.1496 -1.8904  1.2731
14515TIP3    H264961   4.986   0.453  11.261  0.8773  0.5855 -0.8024
14516TIP3   OH264962   3.494   1.590   1.780 -0.2977 -0.2962  0.3172
14516TIP3    H164963   3.550   1.519   1.747  2.5646  1.4340  1.2816
14516TIP3    H264964   3.442   1.616   1.704  1.9721 -0.3077 -1.2815
14517TIP3   OH264965   2.236   1.341  14.566 -0.1089  0.3005 -0.8114
14517TIP3    H164966   2.182   1.366  14.640  0.4617  1.6282 -0.8296
14517TIP3    H264967   2.180   1.285  14.512 -0.3007 -1.2561  0.9450
14518TIP3   OH264968   2.729   0.307  13.539 -0.0579  0.1542 -0.1045
14518TIP3    H164969   2.705   0.298  13.632 -0.2586 -2.1202 -0.3617
14518TIP3    H264970   2.731   0.218  13.506  2.4708  0.7651 -1.7154
14519TIP3   OH264971   4.706   5.795   4.994  0.1766 -0.3950  0.4070
14519TIP3    H164972   4.654   5.803   4.914 -0.1737 -0.2997  0.6457
14519TIP3    H264973   4.642   5.788   5.064  0.4837 -0.8339  0.6483
14520TIP3   OH264974   0.731   2.928  12.247 -0.2759 -0.0576  0.4220
14520TIP3    H164975   0.811   2.980  12.240  0.4174 -0.9190  1.6618
14520TIP3    H264976   0.696   2.926  12.158 -0.2483  2.3826  0.3255
14521TIP3   OH264977   4.126   3.095   4.856  0.4373  0.7290  0.8344
14521TIP3    H164978   4.068   3.171   4.860  0.0956  0.4782  0.6611
14521TIP3    H264979   4.157   3.093   4.765  0.4300  0.6470  0.8331
14522TIP3   OH264980   1.465   4.118   4.686 -0.4013 -0.4100  0.2144
14522TIP3    H164981   1.507   4.079   4.610  1.0978 -1.5596  1.5970
14522TIP3    H264982   1.397   4.055   4.710 -0.6431 -0.2183  0.0290
14523TIP3   OH264983   3.221   5.724  11.173 -0.1734 -0.2662  0.4239
14523TIP3    H164984   3.210   5.768  11.089 -0.3380 -2.0588 -0.5298
14523TIP3    H264985   3.134   5.727  11.213  0.1361  1.4886  1.0141
14524TIP3   OH264986   5.977   2.740  16.974 -0.5295 -0.5400  0.0127
14524TIP3    H164987   6.011   2.824  16.945 -0.7983  0.1138  1.5274
14524TIP3    H264988   6.028   2.675  16.927  1.2544  0.4494  0.5606
14525TIP3   OH264989   6.716   1.915   2.615  0.1727  0.5662 -0.0888
14525TIP3    H164990   6.727   1.918   2.520 -0.7151 -0.4034 -0.2434
14525TIP3    H264991   6.698   2.005   2.641  1.8911  1.0729 -0.6465
14526TIP3   OH264992   6.034   6.212   3.791  0.2224  0.0179 -0.5074
14526TIP3    H164993   6.125   6.240   3.796  0.9544 -2.4046  1.0562
14526TIP3    H264994   6.038   6.126   3.748 -1.6543  1.1778 -3.0879
14527TIP3   OH264995   3.813   4.524   2.559 -0.0249 -0.4303 -0.5373
14527TIP3    H164996   3.751   4.455   2.536 -0.7410  0.2675 -0.7274
14527TIP3    H264997   3.760   4.604   2.563  0.3327 -0.2792  2.1486
14528TIP3   OH264998   6.707   4.775  13.451 -0.4650  0.0655 -0.3345
14528TIP3    H164999   6.643   4.791  13.381 -0.0310 -2.4048 -1.3705
14528TIP3    H265000   6.758   4.701  13.419  0.1245 -0.7417  2.3847
14529TIP3   OH265001   2.587   4.776   1.225 -0.1280  0.4654  0.4626
14529TIP3    H165002   2.522   4.769   1.156 -1.0842  0.5831  1.3287
14529TIP3    H265003   2.615   4.686   1.241  0.3548  0.4773 -0.3135
14530TIP3   OH265004   5.817   6.013  13.037 -0.3519 -0.1450 -0.3381
14530TIP3    H165005   5.744   6.013  12.975  0.4707  2.5130 -1.3731
14530TIP3    H265006   5.895   6.008  12.983  0.3508  1.2969  0.4987
14531TIP3   OH265007   5.269   0.809  14.154  0.4617  0.5105 -0.1959
14531TIP3    H165008   5.183   0.766  14.156  0.4265  0.5046 -1.6886
14531TIP3    H265009   5.279   0.846  14.242 -0.9184  0.2205  0.0937
14532TIP3   OH265010   4.758   4.792  10.486  0.0565  0.1790 -0.4813
14532TIP3    H165011   4.795   4.791  10.574 -1.0692 -1.0213 -0.0096
14532TIP3    H265012   4.799   4.868  10.444  2.3861 -0.5959  0.3000
14533TIP3   OH265013   0.505   0.722  15.836  0.1100 -0.2004  0.1808
14533TIP3    H165014   0.461   0.641  15.809  1.1100 -0.0783 -1.9445
14533TIP3    H265015   0.523   0.710  15.929 -2.4313 -1.1684  0.6064
14534TIP3   OH265016   3.572   2.991   1.643  0.4312  0.0192 -0.2219
14534TIP3    H165017   3.580   2.934   1.566 -1.0266 -1.5494  0.7727
14534TIP3    H265018   3.483   3.026   1.638 -0.2796 -1.4444  1.6515
14535TIP3   OH265019   1.734   0.655   3.675 -0.1387 -0.7656  0.4597
14535TIP3    H165020   1.720   0.560   3.675 -2.4604 -0.4560 -0.7978
14535TIP3    H265021   1.651   0.691   3.644  1.4948  1.5511 -1.3968
14536TIP3   OH265022   1.453   6.682   3.943 -0.2518  0.3007  0.0741
14536TIP3    H165023   1.421   6.765   3.907 -2.0115  0.0622  0.9967
14536TIP3    H265024   1.404   6.615   3.895 -0.8840 -0.0945  1.2547
14537TIP3   OH265025   5.083   5.418  12.724  0.1269 -0.6301 -0.1978
14537TIP3    H165026   5.038   5.415  12.640  0.0302  3.3745 -0.3834
14537TIP3    H265027   5.176   5.419  12.701  0.1756 -2.5856 -0.1067
14538TIP3   OH265028   4.446   0.864   6.079  0.0408 -0.0894 -0.3919
14538TIP3    H165029   4.386   0.858   6.153 -1.4986  1.3092 -1.4786
14538TIP3    H265030   4.462   0.958   6.069  2.0691 -0.4167 -0.3970
14539TIP3   OH265031   3.741   0.948   0.449  0.0490 -0.0492 -0.3547
14539TIP3    H165032   3.672   0.883   0.453  0.7659 -0.8586 -0.9113
14539TIP3    H265033   3.761   0.967   0.541  1.2689 -2.1792 -0.1505
14540TIP3   OH265034   6.756   2.980  14.406  0.2274  0.6178 -0.3096
14540TIP3    H165035   6.665   2.999  14.429 -0.0123  1.4995 -1.8974
14540TIP3    H265036   6.807   3.016  14.479 -0.6887  0.0168  0.6384
14541TIP3   OH265037   1.295   0.123   5.583  0.4436  0.5872  0.2298
14541TIP3    H165038   1.317   0.132   5.676  1.8262  0.2765 -0.0557
14541TIP3    H265039   1.366   0.071   5.546 -0.6607 -0.2520 -0.7895
14542TIP3   OH265040   6.631   5.642  16.363  0.1511 -0.1800 -0.0695
14542TIP3    H165041   6.589   5.716  16.318  0.4657  0.3422  0.4800
14542TIP3    H265042   6.620   5.662  16.456 -0.1875 -1.0768  0.0885
14543TIP3   OH265043   0.494   1.927  11.665 -0.1414 -0.3114 -0.1650
14543TIP3    H165044   0.587   1.915  11.685 -0.3855 -0.1468  1.1402
14543TIP3    H265045   0.480   1.876  11.586  0.9455 -0.7679 -0.0844
14544TIP3   OH265046   6.422   2.197   2.198  0.4663 -0.0730  0.1923
14544TIP3    H165047   6.501   2.166   2.154 -0.5654  0.0415 -1.8015
14544TIP3    H265048   6.382   2.118   2.234  1.3839 -0.1481  1.0860
14545TIP3   OH265049   2.439   3.830   1.304 -0.3591 -0.0978  0.1993
14545TIP3    H165050   2.433   3.783   1.221  1.1899  0.5333 -0.2906
14545TIP3    H265051   2.363   3.887   1.304 -1.0789 -1.0472 -0.1929
14546TIP3   OH265052   6.633   3.024   1.370  0.6177 -0.6607  0.5732
14546TIP3    H165053   6.669   3.079   1.439  0.2517  0.8578 -0.4118
14546TIP3    H265054   6.691   3.041   1.295 -1.7080  1.3470 -0.8567
14547TIP3   OH265055   2.827   4.792  15.027  0.0802 -0.4368  0.2982
14547TIP3    H165056   2.808   4.718  15.083  1.9269 -0.5282  0.8503
14547TIP3    H265057   2.813   4.760  14.938  0.1720 -1.2370  0.5715
14548TIP3   OH265058   4.285   1.116  13.800  0.3167 -0.6238  0.5701
14548TIP3    H165059   4.268   1.184  13.865  0.4957 -2.1804  2.2914
14548TIP3    H265060   4.229   1.138  13.726 -0.9768  0.3692  1.8250
14549TIP3   OH265061   5.234   5.475  15.900  0.2019 -0.2008  0.3311
14549TIP3    H165062   5.249   5.507  15.989  0.0009 -2.0750  1.0677
14549TIP3    H265063   5.140   5.481  15.888  0.4520  2.3843 -0.7016
14550TIP3   OH265064   0.431   4.988   5.655  0.0484  0.5531  0.3935
14550TIP3    H165065   0.509   4.941   5.683 -0.3298 -1.7066 -2.1086
14550TIP3    H265066   0.361   4.954   5.710 -0.0573 -1.2082 -0.7955
14551TIP3   OH265067   5.981   4.918   1.340  0.3335 -0.2603 -0.3855
14551TIP3    H165068   5.900   4.969   1.333  0.2778 -0.2384  0.3405
14551TIP3    H265069   6.051   4.983   1.336  0.2481 -0.0768  0.9778
14552TIP3   OH265070   2.606   5.747  15.612 -0.2628  0.0769  0.6505
14552TIP3    H165071   2.617   5.809  15.539 -2.0713 -0.5389 -0.1822
14552TIP3    H265072   2.542   5.789  15.669  0.4260  0.1185  1.3966
14553TIP3   OH265073   4.319   5.398   5.576 -0.6406 -0.0918 -0.2133
14553TIP3    H165074   4.311   5.462   5.647 -1.1860 -0.5016  0.1014
14553TIP3    H265075   4.279   5.442   5.500 -3.1114 -0.9173  0.5674
14554TIP3   OH265076   5.099   6.701  12.207  0.5727 -0.0679  0.5751
14554TIP3    H165077   5.075   6.609  12.201 -0.4635  0.2742 -1.0043
14554TIP3    H265078   5.095   6.732  12.116  2.4716  1.1498  0.8816
14555TIP3   OH265079   2.741   3.937  14.090 -0.3092 -0.4368  0.3908
14555TIP3    H165080   2.784   3.929  14.175  2.8864 -1.4743 -1.2643
14555TIP3    H265081   2.761   4.026  14.061 -1.0372 -0.2360  0.4693
14556TIP3   OH265082   0.280   6.668   5.076  0.0741  0.4866 -0.5963
14556TIP3    H165083   0.355   6.662   5.136  1.6175  2.3343 -2.2975
14556TIP3    H265084   0.319   6.683   4.990 -2.2199  0.0653 -1.7419
14557TIP3   OH265085   0.425   6.319  11.301  0.6492  0.5986  0.1015
14557TIP3    H165086   0.399   6.386  11.238  0.8665  0.8942  0.3211
14557TIP3    H265087   0.518   6.338  11.318  1.5529 -1.5166 -2.0459
14558TIP3   OH265088   5.300   3.669   3.450  0.6217 -0.3090 -0.6885
14558TIP3    H165089   5.223   3.716   3.417  0.2961 -0.4353 -0.1273
14558TIP3    H265090   5.352   3.737   3.494  0.3915 -0.3843 -0.2990
14559TIP3   OH265091   1.951   1.836  14.752 -0.2314 -0.4558 -0.2404
14559TIP3    H165092   1.918   1.864  14.667  0.5311 -0.1119 -0.4265
14559TIP3    H265093   2.012   1.905  14.778 -1.2549 -0.0316  1.0785
14560TIP3   OH265094   2.141   1.379  17.086  0.1289  0.2011 -0.3609
14560TIP3    H165095   2.097   1.460  17.059  0.0135  0.7614  1.4629
14560TIP3    H265096   2.234   1.401  17.085  0.0124  0.8331  1.6303
14561TIP3   OH265097   6.181   6.528   5.459 -0.0134  0.1667  0.5529
14561TIP3    H165098   6.108   6.563   5.407  2.2035  0.8301 -2.2803
14561TIP3    H265099   6.160   6.551   5.549 -2.4868  1.7798 -0.3838
14562TIP3   OH265100   5.837   3.060   2.772 -0.2316 -0.1204 -0.1089
14562TIP3    H165101   5.910   3.022   2.724  0.7185  1.0306  0.3962
14562TIP3    H265102   5.777   2.987   2.787  0.1899 -0.8066 -1.6750
14563TIP3   OH265103   5.024   6.174   4.702  0.2240  0.2589 -0.0105
14563TIP3    H165104   4.933   6.145   4.698  0.1031  0.3115  1.6915
14563TIP3    H265105   5.037   6.224   4.622 -1.1393 -0.0475 -0.4410
14564TIP3   OH265106   3.372   6.111  16.027  0.5980 -0.9224 -0.4143
14564TIP3    H165107   3.295   6.164  16.047  0.5784 -1.5932  1.4323
14564TIP3    H265108   3.436   6.174  15.994 -0.0384 -0.0318  0.0266
14565TIP3   OH265109   0.608   4.245  10.903  0.0205  0.1821 -0.1933
14565TIP3    H165110   0.529   4.212  10.861 -0.1446  1.0487 -0.5651
14565TIP3    H265111   0.658   4.166  10.925  0.5216 -0.2693 -2.7990
14566TIP3   OH265112   0.463   1.994   0.852 -0.2649  0.0507  0.3741
14566TIP3    H165113   0.537   1.960   0.902  0.2242 -0.0237 -0.3904
14566TIP3    H265114   0.477   2.089   0.851  0.6513 -0.0715 -1.0296
14567TIP3   OH265115   6.156   6.369  16.774 -0.2021  0.1155  0.2994
14567TIP3    H165116   6.194   6.454  16.751 -1.5036 -0.2617 -3.5343
14567TIP3    H265117   6.231   6.309  16.771  0.4785  0.8616  1.7082
14568TIP3   OH265118   3.890   3.538   5.669  0.2680 -0.9404 -0.5918
14568TIP3    H165119   3.949   3.539   5.594 -0.1536 -2.8096 -0.9730
14568TIP3    H265120   3.809   3.500   5.636 -0.7139  0.3272  0.2691
14569TIP3   OH265121   4.732   0.163   5.810 -0.4732 -0.3578 -0.1574
14569TIP3    H165122   4.714   0.224   5.881  1.3189 -0.3575  0.3106
14569TIP3    H265123   4.775   0.217   5.743  0.9911 -1.0503  0.2019
14570TIP3   OH265124   4.449   3.195  15.916  0.2759  0.0275  0.4680
14570TIP3    H165125   4.434   3.280  15.874 -0.9400  1.3307  3.3881
14570TIP3    H265126   4.416   3.131  15.853 -0.5371  1.8388 -0.9882
14571TIP3   OH265127   0.452   2.000   1.844 -0.8297 -0.1030 -0.8878
14571TIP3    H165128   0.528   1.944   1.859 -1.6450 -0.9728  0.0691
14571TIP3    H265129   0.482   2.088   1.866 -0.3396 -0.5558  0.2662
14572TIP3   OH265130   5.841   2.178   0.558 -0.1469 -0.0137  0.0219
14572TIP3    H165131   5.914   2.117   0.572 -0.4289 -0.2438  0.5125
14572TIP3    H265132   5.791   2.138   0.487 -1.0416 -1.0341  1.1916
14573TIP3   OH265133   2.265   5.609   0.916 -0.1615 -0.6308  0.3115
14573TIP3    H165134   2.344   5.576   0.874  0.0066  0.2674 -0.0751
14573TIP3    H265135   2.292   5.690   0.959 -1.0918  0.1883 -0.6266
14574TIP3   OH265136   2.338   4.733  15.625 -0.1132  0.4221 -0.1750
14574TIP3    H165137   2.334   4.697  15.537  1.6452 -2.6010  0.9405
14574TIP3    H265138   2.278   4.679  15.676  0.2567  1.0018  0.8991
14575TIP3   OH265139   3.694   0.181   3.094 -0.2027 -0.1198  0.1703
14575TIP3    H165140   3.605   0.210   3.111 -0.6059 -0.5294 -1.2063
14575TIP3    H265141   3.730   0.163   3.181 -2.7026 -3.5535  0.6307
14576TIP3   OH265142   5.053   5.144   0.993 -0.2690  0.1572  0.2566
14576TIP3    H165143   4.996   5.192   1.054 -0.9136 -1.2472  0.7915
14576TIP3    H265144   5.098   5.212   0.943 -1.2258  1.3067  0.9375
14577TIP3   OH265145   1.173   3.583  15.565 -0.4221 -0.1800 -0.1906
14577TIP3    H165146   1.129   3.579  15.480  2.8945 -1.4476 -1.9374
14577TIP3    H265147   1.179   3.492  15.594  0.5836  0.0251  0.2619
14578TIP3   OH265148   6.401   6.401   6.142 -0.5901  0.2576 -0.1758
14578TIP3    H165149   6.415   6.496   6.141 -1.8323  0.4700  1.3932
14578TIP3    H265150   6.485   6.364   6.169 -0.5733  1.0075  0.8129
14579TIP3   OH265151   2.832   0.664   1.601 -0.4159 -0.4833  0.7443
14579TIP3    H165152   2.836   0.572   1.572  0.7766  0.1795 -1.2890
14579TIP3    H265153   2.916   0.679   1.644 -0.6531 -0.3619  1.1681
14580TIP3   OH265154   0.873   5.822   4.469  0.0508 -0.3601 -0.1731
14580TIP3    H165155   0.861   5.916   4.474 -1.1011 -0.4958 -0.1005
14580TIP3    H265156   0.859   5.791   4.559 -2.3178 -0.8643 -0.6615
14581TIP3   OH265157   4.104   2.940  16.539  0.9048  0.0844  0.3721
14581TIP3    H165158   4.184   2.945  16.591  1.3372 -0.3065 -0.2467
14581TIP3    H265159   4.047   2.880  16.588  0.0865  2.1196  1.9840
14582TIP3   OH265160   6.373   5.435   0.435 -0.0006  0.4582 -0.4710
14582TIP3    H165161   6.297   5.428   0.493  1.6201 -0.1578  1.6540
14582TIP3    H265162   6.414   5.519   0.458  2.0655 -0.9262  1.1342
14583TIP3   OH265163   2.406   1.809   6.164 -0.6633  0.0289 -0.0963
14583TIP3    H165164   2.443   1.896   6.147  0.3132 -0.5257 -0.8740
14583TIP3    H265165   2.335   1.825   6.226  1.1269  1.0689  1.7418
14584TIP3   OH265166   0.159   6.717   0.218  0.3300 -0.3580 -0.0245
14584TIP3    H165167   0.135   6.640   0.166  1.0837 -1.1460  0.7721
14584TIP3    H265168   0.254   6.725   0.206  0.9804 -2.1864  3.3609
14585TIP3   OH265169   3.564   3.496   3.789 -0.0330 -0.1530 -0.2826
14585TIP3    H165170   3.626   3.441   3.740 -0.0858 -0.1997 -0.2962
14585TIP3    H265171   3.562   3.458   3.876  2.2794  1.6449  0.6124
14586TIP3   OH265172   1.396   6.447   2.758  0.2584  0.0584 -0.0685
14586TIP3    H165173   1.364   6.421   2.672 -1.4919  2.8783 -0.3204
14586TIP3    H265174   1.359   6.383   2.818 -2.7243  1.0052 -0.8332
14587TIP3   OH265175   0.012   5.895   1.447 -0.3212 -0.6734  0.7027
14587TIP3    H165176   0.106   5.906   1.457 -0.4712  1.6326 -0.1099
14587TIP3    H265177   0.000   5.801   1.429  1.8754 -0.8124 -0.1103
14588TIP3   OH265178   4.143   4.092   2.721 -0.3015 -0.1915 -0.5763
14588TIP3    H165179   4.217   4.126   2.771  0.1051 -1.1334 -0.5310
14588TIP3    H265180   4.066   4.118   2.772 -0.2848  3.8984 -2.4070
14589TIP3   OH265181   5.102   0.325  16.292  0.3796 -0.2694  0.2766
14589TIP3    H165182   5.057   0.300  16.211 -2.5172  0.2841  1.6692
14589TIP3    H265183   5.072   0.415  16.309  0.5930 -0.5536  2.2192
14590TIP3   OH265184   6.429   3.625   1.572  0.2367 -0.8516  0.2598
14590TIP3    H165185   6.509   3.634   1.624  1.4873  0.6301 -1.8579
14590TIP3    H265186   6.366   3.684   1.615  0.9435 -0.4227  0.7154
14591TIP3   OH265187   1.395   5.679  11.484  0.2111  0.5546 -0.4979
14591TIP3    H165188   1.359   5.766  11.465  0.4578  0.8081  0.1864
14591TIP3    H265189   1.354   5.654  11.567  2.8758  1.5659  1.1686
14592TIP3   OH265190   2.236   0.345  15.608  0.3186  0.3522  0.5096
14592TIP3    H165191   2.215   0.439  15.608 -2.3184 -0.1901  1.9802
14592TIP3    H265192   2.246   0.322  15.700 -0.2572 -1.0660  0.2305
14593TIP3   OH265193   1.015   1.888  11.793  0.1183  0.8542  0.3390
14593TIP3    H165194   1.000   1.893  11.887 -1.2504 -1.5812  0.2991
14593TIP3    H265195   1.109   1.904  11.782  0.5938 -0.4224  2.2739
14594TIP3   OH265196   6.319   6.154   1.728 -0.0200  0.0495  0.3573
14594TIP3    H165197   6.371   6.084   1.767 -2.2908 -0.0514  3.3886
14594TIP3    H265198   6.272   6.112   1.656  0.5512 -0.9100  0.5342
14595TIP3   OH265199   4.302   3.431  13.399 -0.1460 -0.0441 -0.5314
14595TIP3    H165200   4.251   3.501  13.358 -1.1435  0.5268  1.6258
14595TIP3    H265201   4.349   3.390  13.326 -2.7517  0.1926 -2.4195
14596TIP3   OH265202   6.755   4.107   2.561 -0.0262 -0.1438 -0.0797
14596TIP3    H165203   6.844   4.082   2.534 -1.1416 -0.7662 -3.3877
14596TIP3    H265204   6.754   4.202   2.554 -0.4407 -0.3332 -2.7865
14597TIP3   OH265205   0.319   2.671   0.886  0.1514 -0.3234  0.2241
14597TIP3    H165206   0.405   2.644   0.852  0.2903 -0.6047  0.7948
14597TIP3    H265207   0.335   2.691   0.978 -0.2132  0.5190  0.1090
14598TIP3   OH265208   0.148   4.636  14.965  0.2267  0.2521  0.3905
14598TIP3    H165209   0.068   4.687  14.972  0.5805  0.5516  2.4289
14598TIP3    H265210   0.219   4.699  14.978  0.7771 -0.2195 -0.2335
14599TIP3   OH265211   4.683   0.773  11.374 -0.1550 -0.3511 -0.0988
14599TIP3    H165212   4.673   0.678  11.375 -1.0350 -0.2531  2.7987
14599TIP3    H265213   4.606   0.805  11.327 -1.3327 -0.9431  1.3824
14600TIP3   OH265214   0.968   0.568   1.276 -0.4664  0.9603  0.4225
14600TIP3    H165215   0.940   0.656   1.300 -2.7568  0.3150  0.3042
14600TIP3    H265216   1.024   0.540   1.349  0.1774  2.4367  0.5237
14601TIP3   OH265217   1.505   4.049   3.636 -0.1724  0.0994  0.7832
14601TIP3    H165218   1.522   3.974   3.579  1.1085  1.3507 -0.5126
14601TIP3    H265219   1.588   4.063   3.682 -0.7041  0.1168  1.7443
14602TIP3   OH265220   5.839   6.696  12.002  0.3046 -0.5234 -0.2827
14602TIP3    H165221   5.780   6.687  11.926  2.0730  0.2082 -1.7885
14602TIP3    H265222   5.780   6.711  12.076 -1.4692 -1.1365 -1.5313
14603TIP3   OH265223   6.034   0.989   1.654  0.7827 -0.1798 -0.0304
14603TIP3    H165224   5.939   0.976   1.654  0.6713  0.5633 -1.5059
14603TIP3    H265225   6.047   1.072   1.700  0.8698 -1.1438  1.7455
14604TIP3   OH265226   4.054   4.686  14.292 -0.2887 -0.0026 -0.7335
14604TIP3    H165227   4.148   4.668  14.292 -0.1596  0.6173 -0.0480
14604TIP3    H265228   4.049   4.781  14.282 -0.8138  0.0757  0.2802
14605TIP3   OH265229   5.491   2.196   2.068 -0.3759  0.7651  0.3265
14605TIP3    H165230   5.539   2.211   2.150 -1.1780  0.0611  0.9262
14605TIP3    H265231   5.560   2.179   2.004  0.3914  3.3983  0.3755
14606TIP3   OH265232   6.660   2.521  13.768 -0.4645 -0.0273 -0.6472
14606TIP3    H165233   6.715   2.595  13.742 -1.4812  0.4630 -1.4275
14606TIP3    H265234   6.571   2.556  13.770 -0.7904 -0.8682  0.4002
14607TIP3   OH265235   0.611   3.338  15.006  0.0274 -0.1941 -0.1449
14607TIP3    H165236   0.582   3.398  15.075  5.1001  1.8441  0.4708
14607TIP3    H265237   0.618   3.393  14.928  1.1924 -0.8267 -0.5007
14608TIP3   OH265238   1.666   2.987   0.393  0.0263 -0.2526  0.6384
14608TIP3    H165239   1.710   2.906   0.420  1.6526 -0.1021 -1.4395
14608TIP3    H265240   1.731   3.056   0.406 -0.7184  0.4604  0.6407
14609TIP3   OH265241   6.502   4.940   2.683 -0.0638  0.4224  0.4049
14609TIP3    H165242   6.503   5.026   2.640  1.8248 -0.0795 -0.5953
14609TIP3    H265243   6.547   4.953   2.766  0.2020  0.4250  0.2630
14610TIP3   OH265244   1.147   2.097  17.097  0.3533 -0.3258 -0.4743
14610TIP3    H165245   1.086   2.090  17.171  0.0550 -3.2429 -0.9280
14610TIP3    H265246   1.172   2.189  17.095 -2.4391  0.5191  1.0096
14611TIP3   OH265247   0.753   2.488   6.154  0.2821 -0.7457  0.4264
14611TIP3    H165248   0.825   2.493   6.217  0.4584 -0.0464  0.1810
14611TIP3    H265249   0.686   2.435   6.197  0.2653 -0.0007  1.3421
14612TIP3   OH265250   0.184   0.588  15.757  0.2160  0.1154  0.1653
14612TIP3    H165251   0.201   0.570  15.665  1.1327  1.9358 -0.0446
14612TIP3    H265252   0.247   0.534  15.804  3.0836  2.8280 -0.4478
14613TIP3   OH265253   5.507   5.868   2.467 -0.0894 -0.3396  0.8143
14613TIP3    H165254   5.512   5.936   2.534  2.3879 -1.0539  1.3763
14613TIP3    H265255   5.442   5.806   2.501  0.0234  0.0823  1.8189
14614TIP3   OH265256   0.475   3.632   6.107 -0.2894  0.7626 -0.6565
14614TIP3    H165257   0.477   3.579   6.028 -2.8335 -0.0830 -0.1806
14614TIP3    H265258   0.393   3.681   6.102 -0.6713  0.4142  1.6189
14615TIP3   OH265259   3.013   0.393   0.403  0.3386  0.7175  0.4192
14615TIP3    H165260   3.070   0.463   0.372 -1.1862  1.4584 -0.8084
14615TIP3    H265261   3.070   0.337   0.456  1.7636  2.4298  0.7513
14616TIP3   OH265262   3.825   6.755  14.846 -0.3466  0.6337  0.2866
14616TIP3    H165263   3.762   6.712  14.904 -1.8252  3.3017  0.7462
14616TIP3    H265264   3.861   6.685  14.792 -1.8975 -1.2913  1.7236
14617TIP3   OH265265   5.803   3.021  15.754 -0.2378  0.1739  0.1430
14617TIP3    H165266   5.878   2.996  15.808 -1.4164 -1.7400  0.9873
14617TIP3    H265267   5.748   2.942  15.753 -1.1140  0.7789 -2.3659
14618TIP3   OH265268   3.513   1.030  12.672 -0.5607 -0.0019 -0.3619
14618TIP3    H165269   3.516   1.125  12.676  1.2343  0.0644 -2.5457
14618TIP3    H265270   3.596   1.001  12.712  0.5376 -0.4713 -2.8356
14619TIP3   OH265271   1.141   5.262   1.345 -0.5458 -0.2257 -0.1366
14619TIP3    H165272   1.139   5.351   1.311 -1.0685  0.2816  1.1923
14619TIP3    H265273   1.216   5.260   1.405 -0.1607 -0.8596 -0.6289
14620TIP3   OH265274   4.654   2.573   0.804  0.5587 -0.4783 -0.0274
14620TIP3    H165275   4.671   2.633   0.731 -0.3215 -1.6522 -1.2253
14620TIP3    H265276   4.564   2.592   0.829  0.2946 -1.2630 -0.3792
14621TIP3   OH265277   4.255   1.516  13.623 -0.8236  0.4537  0.0016
14621TIP3    H165278   4.213   1.585  13.675 -2.8337  0.6849 -1.8312
14621TIP3    H265279   4.185   1.453  13.606  0.8063 -1.7086  1.0119
14622TIP3   OH265280   0.471   3.508  17.167 -0.3727  0.0275  0.5451
14622TIP3    H165281   0.551   3.559  17.175 -0.3070 -0.1599  1.1378
14622TIP3    H265282   0.402   3.567  17.198 -0.4857  0.2403 -0.1063
14623TIP3   OH265283   0.435   4.500   2.819  0.2687  0.3415  0.1854
14623TIP3    H165284   0.359   4.529   2.769 -0.2464 -1.9151 -0.4082
14623TIP3    H265285   0.509   4.545   2.778 -0.3266 -0.2683 -1.6503
14624TIP3   OH265286   3.430   5.455   6.253 -0.1401  0.4589 -0.2694
14624TIP3    H165287   3.462   5.428   6.339 -1.3038  0.7890  0.2763
14624TIP3    H265288   3.343   5.416   6.246 -0.4649  1.2738 -0.8760
14625TIP3   OH265289   2.726   2.093   1.665  0.2952 -0.0382  0.1376
14625TIP3    H165290   2.646   2.107   1.615  1.0056  1.2391 -0.6724
14625TIP3    H265291   2.724   2.158   1.735  0.7638  0.1969 -0.0641
14626TIP3   OH265292   6.507   4.237  16.404  0.0745  0.0124  0.6718
14626TIP3    H165293   6.513   4.224  16.498 -0.2376 -0.4146  0.6374
14626TIP3    H265294   6.444   4.171  16.375  0.9757 -0.5745  0.0131
14627TIP3   OH265295   5.877   6.213   0.017  0.4746  0.1428 -0.2586
14627TIP3    H165296   5.782   6.207   0.008  0.2377 -0.4590  2.1226
14627TIP3    H265297   5.908   6.243  -0.068 -1.8565  0.4476 -1.0348
14628TIP3   OH265298   3.438   2.892   2.453  0.2745  0.3522  0.1114
14628TIP3    H165299   3.422   2.828   2.523  0.9992 -0.0272 -0.0733
14628TIP3    H265300   3.361   2.884   2.397  0.1421 -0.0308  0.3390
14629TIP3   OH265301   3.172   1.497   3.027  0.2390  0.4123 -0.3895
14629TIP3    H165302   3.161   1.426   2.964 -0.6162 -0.1659  0.4070
14629TIP3    H265303   3.262   1.487   3.058  0.5309  0.4482 -1.1948
14630TIP3   OH265304   6.092   1.847   1.341  0.4243 -0.4830  0.1799
14630TIP3    H165305   6.110   1.940   1.349 -1.2974  0.0249 -1.5297
14630TIP3    H265306   6.021   1.841   1.276  0.8162 -2.9938 -0.0863
14631TIP3   OH265307   4.516   3.067  13.618  0.7037  0.2651 -0.0273
14631TIP3    H165308   4.543   3.097  13.531 -1.1345  2.5934  0.1450
14631TIP3    H265309   4.474   2.983  13.603  2.0234 -0.2168 -1.1444
14632TIP3   OH265310   3.532   2.800  10.999  0.0285  0.1982 -0.1525
14632TIP3    H165311   3.575   2.872  10.954 -0.1804 -1.2696 -2.7942
14632TIP3    H265312   3.578   2.721  10.969 -1.0162 -0.9385  1.1398
14633TIP3   OH265313   3.741   5.238   3.748 -0.3653  0.4990  0.5519
14633TIP3    H165314   3.688   5.181   3.803  0.0334 -0.5145 -0.0969
14633TIP3    H265315   3.805   5.277   3.807 -1.3710  1.1693  1.2062
14634TIP3   OH265316   2.799   1.912   0.943 -0.1986 -0.1314  0.1411
14634TIP3    H165317   2.809   1.854   0.868  0.5291 -0.4412  0.4694
14634TIP3    H265318   2.889   1.929   0.972 -0.5396 -2.1002  2.5133
14635TIP3   OH265319   5.218   2.501  14.740  0.2424  0.1541 -0.3691
14635TIP3    H165320   5.175   2.534  14.660 -2.1289 -0.9464  0.4158
14635TIP3    H265321   5.154   2.442  14.779  1.2740  0.8750  2.5142
14636TIP3   OH265322   5.507   6.256   6.149  0.5089  0.0738  0.2547
14636TIP3    H165323   5.566   6.192   6.189 -0.1525 -0.8760 -0.2809
14636TIP3    H265324   5.566   6.322   6.112  1.2858 -1.2365 -0.9090
14637TIP3   OH265325   1.758   4.394   1.659  0.0212 -0.2667  0.1243
14637TIP3    H165326   1.830   4.333   1.645 -1.0660 -1.3736 -0.6459
14637TIP3    H265327   1.764   4.456   1.586 -1.4247 -1.9430 -1.4457
14638TIP3   OH265328   6.044   3.033   2.527  0.4770  0.4715  0.1630
14638TIP3    H165329   6.104   2.991   2.466  0.0873  0.8663 -0.4948
14638TIP3    H265330   6.026   2.966   2.593  0.7280 -0.0300 -0.2722
14639TIP3   OH265331   2.631   4.448  14.947 -0.3960  0.1521  0.6934
14639TIP3    H165332   2.662   4.484  15.030  1.7826 -2.1318  0.9194
14639TIP3    H265333   2.607   4.357  14.968 -0.3978 -0.2577 -1.0443
14640TIP3   OH265334   0.962   4.602  14.037 -0.3172 -0.4651 -0.1872
14640TIP3    H165335   0.885   4.620  13.983 -0.8105 -0.2532  0.5763
14640TIP3    H265336   0.945   4.649  14.119  1.9891  2.1414 -1.1355
14641TIP3   OH265337   0.157   6.573   4.263 -0.0955  0.3624  0.3162
14641TIP3    H165338   0.116   6.628   4.331  0.1509  0.7251  0.1732
14641TIP3    H265339   0.251   6.585   4.276 -0.0457  1.4560 -0.8982
14642TIP3   OH265340   4.901   1.858  16.678  0.1760 -0.5819 -0.2273
14642TIP3    H165341   4.899   1.776  16.727 -0.0623 -0.9843 -0.9070
14642TIP3    H265342   4.811   1.872  16.650  0.5664 -1.1545 -1.8501
14643TIP3   OH265343   3.733   3.476  12.907 -0.1604  0.1361 -0.1881
14643TIP3    H165344   3.693   3.429  12.834 -0.3610  1.7126 -1.1292
14643TIP3    H265345   3.658   3.509  12.957 -0.0299  0.6726 -0.3452
14644TIP3   OH265346   6.661   1.609  11.416  0.2610 -0.2733  0.2334
14644TIP3    H165347   6.649   1.561  11.498 -0.7296  0.9421  0.8027
14644TIP3    H265348   6.661   1.701  11.442  0.1651  0.1043 -1.1029
14645TIP3   OH265349   2.766   2.247  16.230  0.3586  0.2466  0.1145
14645TIP3    H165350   2.680   2.272  16.197  1.3841  2.9295 -0.6929
14645TIP3    H265351   2.763   2.265  16.323 -0.4880 -1.3391  0.4173
14646TIP3   OH265352   6.630   3.090  14.004 -0.7027  0.0993  0.3860
14646TIP3    H165353   6.558   3.135  14.048 -0.5674 -0.9933  1.7784
14646TIP3    H265354   6.633   3.129  13.917 -0.9488  2.3769  1.3517
14647TIP3   OH265355   1.020   0.753  11.718  0.2062  0.2736  0.0763
14647TIP3    H165356   1.002   0.797  11.635  1.3078  1.9191  0.6733
14647TIP3    H265357   0.972   0.805  11.783  1.2070  0.3734  0.7434
14648TIP3   OH265358   1.802   0.181   1.172  0.1432  0.0601 -0.0460
14648TIP3    H165359   1.880   0.168   1.226  1.7461  0.6085 -2.1890
14648TIP3    H265360   1.821   0.135   1.091 -1.2998  1.1805 -1.0402
14649TIP3   OH265361   4.177   3.292  14.127 -0.0806  0.4359  0.2765
14649TIP3    H165362   4.115   3.351  14.169 -0.5905  0.5236 -0.5820
14649TIP3    H265363   4.239   3.350  14.082 -0.8334  0.3298 -0.9244
14650TIP3   OH265364   3.898   5.669  16.747  0.4682  0.0582  0.4003
14650TIP3    H165365   3.980   5.669  16.697  0.7071  1.8418  0.7462
14650TIP3    H265366   3.895   5.756  16.787 -1.3540 -0.1724  0.7970
14651TIP3   OH265367   4.521   6.755  11.326 -0.5527  0.4303 -0.0509
14651TIP3    H165368   4.436   6.797  11.334 -1.8286 -1.4789 -2.6084
14651TIP3    H265369   4.557   6.789  11.245 -0.5802 -1.5642 -0.9350
14652TIP3   OH265370   3.093   6.446  12.432  0.7437  0.5081 -0.1234
14652TIP3    H165371   3.112   6.396  12.512 -0.2301 -0.6908 -0.6162
14652TIP3    H265372   3.014   6.495  12.454  0.3684  0.0336 -0.4063
14653TIP3   OH265373   0.577   0.258  14.338 -0.5892  0.7258  0.0056
14653TIP3    H165374   0.531   0.179  14.310  0.0728  0.6399 -0.8512
14653TIP3    H265375   0.570   0.318  14.264 -0.7862  1.3460  0.5195
14654TIP3   OH265376   5.177   0.023  13.790  0.4135  0.8086  0.1839
14654TIP3    H165377   5.246   0.084  13.763  0.5500  0.7438  0.3929
14654TIP3    H265378   5.109   0.079  13.826  0.2292  0.8979 -0.2935
14655TIP3   OH265379   4.268   3.820   1.305 -0.4504  0.0841  0.6415
14655TIP3    H165380   4.265   3.806   1.400  0.1521  0.0067  0.6498
14655TIP3    H265381   4.316   3.745   1.271  0.3172  0.6800  0.3923
14656TIP3   OH265382   1.525   4.942   5.886 -0.1067 -0.7110  0.0730
14656TIP3    H165383   1.443   4.908   5.851 -0.8036  0.9499  0.0330
14656TIP3    H265384   1.502   4.983   5.969  1.2337 -2.9579  1.6320
14657TIP3   OH265385   1.184   5.151   4.240 -0.2495  0.0685  0.1105
14657TIP3    H165386   1.096   5.165   4.277 -0.4995 -1.0850  0.0003
14657TIP3    H265387   1.167   5.113   4.154  0.3527  0.5248 -0.2056
14658TIP3   OH265388   0.567   2.126   2.365 -0.8421  0.4110 -0.4950
14658TIP3    H165389   0.570   2.050   2.307  0.1809  1.3006 -1.6701
14658TIP3    H265390   0.475   2.136   2.387 -0.7856 -2.1648  1.0655
14659TIP3   OH265391   2.037   0.065  11.134 -0.1412  0.2493  0.6495
14659TIP3    H165392   2.107   0.012  11.096  1.0322  0.9630  1.7657
14659TIP3    H265393   1.973   0.075  11.063 -0.2075 -2.3174  0.3177
14660TIP3   OH265394   4.516   6.160  17.215 -0.3882  0.1859  0.5769
14660TIP3    H165395   4.432   6.190  17.252 -1.2611 -0.6508 -0.6849
14660TIP3    H265396   4.551   6.237  17.170 -0.1637  0.7203  1.6531
14661TIP3   OH265397   1.426   4.337   3.659 -0.3206 -0.2015 -0.1162
14661TIP3    H165398   1.458   4.249   3.639 -1.3274 -0.6790  0.3052
14661TIP3    H265399   1.444   4.388   3.580 -0.6155 -1.0374 -0.7338
14662TIP3   OH265400   6.367   5.386   5.553 -0.4605  0.2619 -1.3250
14662TIP3    H165401   6.462   5.379   5.556 -0.4227 -1.0584 -4.0435
14662TIP3    H265402   6.337   5.302   5.518 -2.7420  0.1387  0.7813
14663TIP3   OH265403   1.450   4.707   3.607 -0.1319 -0.1693 -0.2447
14663TIP3    H165404   1.408   4.649   3.671 -0.1380 -0.8836 -0.8857
14663TIP3    H265405   1.378   4.758   3.570 -0.3478 -0.8626 -0.8026
14664TIP3   OH265406   6.504   0.900   4.565 -0.4980 -0.0814  0.5171
14664TIP3    H165407   6.422   0.931   4.603 -0.5827  0.1458  0.1492
14664TIP3    H265408   6.551   0.979   4.541 -0.3745 -0.2199  0.2999
14665TIP3   OH265409   3.565   4.273   0.145 -0.4032  0.2665 -0.3875
14665TIP3    H165410   3.572   4.226   0.062  1.4957 -1.0429  0.4546
14665TIP3    H265411   3.656   4.293   0.168 -0.9158  0.7065  1.3055
14666TIP3   OH265412   3.564   1.536  16.545 -0.1313 -0.2122 -0.3414
14666TIP3    H165413   3.613   1.506  16.621 -0.0401 -0.5580 -0.5371
14666TIP3    H265414   3.628   1.538  16.474 -0.3635 -0.4951 -0.5552
14667TIP3   OH265415   5.795   3.334  12.392 -0.2439 -0.2275 -0.2714
14667TIP3    H165416   5.800   3.407  12.330 -1.2318 -0.8031 -1.0489
14667TIP3    H265417   5.740   3.368  12.463  0.0005  0.0774 -0.2267
14668TIP3   OH265418   0.214   2.501  16.006  0.1455  0.4395  0.0026
14668TIP3    H165419   0.295   2.458  16.032  0.6955  1.0888 -0.5996
14668TIP3    H265420   0.212   2.582  16.057  0.8147  1.3131 -1.3054
14669TIP3   OH265421   4.964   0.832  14.830  0.4318 -0.6691  0.9123
14669TIP3    H165422   4.954   0.923  14.802  0.7994 -0.2154  2.2428
14669TIP3    H265423   5.038   0.833  14.891  0.3595 -1.8423  1.0351
14670TIP3   OH265424   2.674   6.150  14.832 -0.1718  0.4733 -0.2256
14670TIP3    H165425   2.596   6.114  14.790  0.0025  0.2723 -0.3779
14670TIP3    H265426   2.722   6.192  14.760  1.7542 -2.6475 -0.8578
14671TIP3   OH265427   4.639   2.392  14.174  1.0256 -0.0871 -1.2898
14671TIP3    H165428   4.684   2.473  14.151 -0.7826  1.4670  0.5067
14671TIP3    H265429   4.562   2.389  14.117 -0.1758  0.6893  0.2400
14672TIP3   OH265430   3.510   2.229  15.618 -0.3355 -0.1295  0.3390
14672TIP3    H165431   3.446   2.230  15.690 -0.5264  0.7329  0.1740
14672TIP3    H265432   3.459   2.203  15.541 -0.5170  0.6267  0.1934
14673TIP3   OH265433   6.755   0.869  13.199 -0.2590 -0.2232  0.3227
14673TIP3    H165434   6.761   0.963  13.182 -0.3933 -0.1587  0.6389
14673TIP3    H265435   6.714   0.833  13.120 -0.5828  0.0394  0.3706
14674TIP3   OH265436   2.629   2.956  13.415  0.5834 -0.4887 -0.3702
14674TIP3    H165437   2.613   2.985  13.505  0.0018 -0.3073 -0.5297
14674TIP3    H265438   2.644   3.037  13.366  1.4666 -0.6244 -0.3252
14675TIP3   OH265439   5.804   3.309  15.768  0.1620  0.2701 -0.2386
14675TIP3    H165440   5.891   3.343  15.788  0.2784  0.3870 -0.9416
14675TIP3    H265441   5.810   3.215  15.787 -0.4332  0.7631  2.6302
14676TIP3   OH265442   0.005   3.562   5.333 -0.0513  0.0520  0.3060
14676TIP3    H165443   0.054   3.503   5.276  0.1569  0.8223 -0.3203
14676TIP3    H265444  -0.072   3.586   5.282  0.2431  0.9167  0.2626
14677TIP3   OH265445   4.502   6.507  15.639 -0.8413  0.2426 -0.5964
14677TIP3    H165446   4.457   6.479  15.560 -0.3081 -1.3423 -0.3407
14677TIP3    H265447   4.436   6.497  15.709 -0.6855 -0.2570 -0.5228
14678TIP3   OH265448   6.030   0.772   1.893  0.1315 -0.2422  0.0615
14678TIP3    H165449   6.067   0.736   1.813  1.2842  1.6262 -0.2677
14678TIP3    H265450   5.935   0.771   1.878  0.2677 -1.2946 -0.7211
14679TIP3   OH265451   5.387   3.694   6.350 -0.3733 -0.0042  0.2921
14679TIP3    H165452   5.479   3.685   6.374 -0.3907 -1.2408 -0.0333
14679TIP3    H265453   5.375   3.632   6.277 -1.6191 -0.3769  0.7968
14680TIP3   OH265454   3.185   1.025  12.750 -0.4047  0.1839  0.4689
14680TIP3    H165455   3.261   0.986  12.793  0.0152  0.8605  0.3460
14680TIP3    H265456   3.183   0.984  12.664 -0.9751 -0.8285  0.9592
14681TIP3   OH265457   0.558   1.313   4.137  0.3857  0.1671  0.1844
14681TIP3    H165458   0.556   1.303   4.232 -0.3502  0.7978  0.2397
14681TIP3    H265459   0.482   1.367   4.117  1.1023  0.8940 -0.6517
14682TIP3   OH265460   3.645   0.228  12.919 -0.3856  0.4586 -0.2608
14682TIP3    H165461   3.588   0.280  12.975 -1.8054 -1.2543 -0.0679
14682TIP3    H265462   3.616   0.247  12.830  0.0029  1.0326 -0.2649
14683TIP3   OH265463   2.420   3.288  12.773 -0.1743  0.1110  0.5769
14683TIP3    H165464   2.439   3.315  12.863  0.1641  0.3822  0.4258
14683TIP3    H265465   2.449   3.197  12.769 -1.5646 -0.3738  1.1623
14684TIP3   OH265466   6.317   0.617   5.367  0.0087 -0.4511 -0.2908
14684TIP3    H165467   6.360   0.535   5.388  0.4810  0.1131  1.0053
14684TIP3    H265468   6.367   0.653   5.293  1.1702 -0.2724  0.5679
14685TIP3   OH265469   4.733   3.672  10.951 -0.0588 -0.2116  0.3091
14685TIP3    H165470   4.657   3.669  10.894 -0.6464 -0.3219  1.0856
14685TIP3    H265471   4.805   3.701  10.895 -1.0711  1.8199 -0.0056
14686TIP3   OH265472   3.626   6.590  14.574  0.5101 -0.0826  0.0610
14686TIP3    H165473   3.556   6.620  14.632  1.3764  1.3891  0.3527
14686TIP3    H265474   3.624   6.494  14.583 -0.6733  0.0084  0.9727
14687TIP3   OH265475   0.608   5.991  11.851  0.2730 -0.4705  0.3160
14687TIP3    H165476   0.675   6.028  11.793 -0.2305 -1.2749 -0.7896
14687TIP3    H265477   0.618   6.040  11.933  1.2909  0.3668 -0.2937
14688TIP3   OH265478   0.767   2.635  13.913 -0.1523  0.3756  0.4024
14688TIP3    H165479   0.704   2.630  13.841 -0.1003  1.2798  0.2865
14688TIP3    H265480   0.793   2.727  13.916 -1.1560  0.6138  2.4285
14689TIP3   OH265481   4.141   2.497   5.259  0.3250 -0.3121 -0.2314
14689TIP3    H165482   4.193   2.493   5.340  0.3014 -0.9547 -0.2394
14689TIP3    H265483   4.069   2.557   5.280  0.7098  0.0705 -0.0049
14690TIP3   OH265484   6.510   4.380  16.158 -0.3969 -0.0052  0.5257
14690TIP3    H165485   6.509   4.331  16.240  1.3211  0.5081  0.8604
14690TIP3    H265486   6.547   4.318  16.094 -0.4152  0.0647  0.4488
14691TIP3   OH265487   4.489   1.607  11.879  0.0360  0.7146 -0.0974
14691TIP3    H165488   4.441   1.687  11.899 -1.5641  0.0361 -1.1593
14691TIP3    H265489   4.572   1.637  11.842 -1.1801  1.9132 -1.9515
14692TIP3   OH265490   3.904   4.715   5.497 -0.1079  0.0630  0.1553
14692TIP3    H165491   3.827   4.722   5.440  0.9043 -2.7620 -1.6603
14692TIP3    H265492   3.888   4.638   5.551  0.5864  0.5858  1.1274
14693TIP3   OH265493   6.581   2.957  17.032  0.4418 -0.0188  0.4234
14693TIP3    H165494   6.650   2.897  17.060  0.5138 -0.0643  0.1507
14693TIP3    H265495   6.508   2.940  17.092  0.1193 -1.0536 -0.2488
14694TIP3   OH265496   6.620   4.353  15.850  0.0792 -0.2242 -0.0881
14694TIP3    H165497   6.703   4.354  15.804  0.3801  0.3690  0.4628
14694TIP3    H265498   6.594   4.261  15.851 -0.5112 -0.1075 -2.4482
14695TIP3   OH265499   3.687   0.186   1.103 -0.0982 -0.2877 -0.0749
14695TIP3    H165500   3.642   0.171   1.019  0.3236 -2.3767  0.0545
14695TIP3    H265501   3.672   0.106   1.153  2.0956 -0.2093  0.7435
14696TIP3   OH265502   5.673   3.740  10.642  0.0042 -0.4313 -0.4460
14696TIP3    H165503   5.762   3.706  10.649 -0.4206 -1.6836 -0.9962
14696TIP3    H265504   5.639   3.703  10.560 -0.9490  0.2064 -0.3543
14697TIP3   OH265505   3.258   5.360   6.603  0.2123 -0.2002 -0.3012
14697TIP3    H165506   3.349   5.333   6.591  0.6037  1.0777 -0.3024
14697TIP3    H265507   3.208   5.304   6.544  1.0015 -0.8762 -0.3392
14698TIP3   OH265508   6.717   5.290   2.716  0.3663 -0.1169 -0.2253
14698TIP3    H165509   6.806   5.303   2.748  0.3855 -1.3472  0.2777
14698TIP3    H265510   6.680   5.223   2.775  0.3316 -2.2793 -2.5924
14699TIP3   OH265511   6.587   4.383   2.706  0.4916  0.2821  0.3286
14699TIP3    H165512   6.607   4.315   2.771  1.0370  0.8172  0.7162
14699TIP3    H265513   6.634   4.355   2.627 -2.7191 -2.0999 -0.8787
14700TIP3   OH265514   1.575   5.954  13.837  0.0355 -0.1525 -0.7795
14700TIP3    H165515   1.550   6.033  13.885  0.9119  0.0109 -0.5688
14700TIP3    H265516   1.596   5.984  13.749 -0.0202 -0.2081 -0.8128
14701TIP3   OH265517   2.121   1.842   6.019  0.3168 -0.8868 -0.0168
14701TIP3    H165518   2.154   1.916   5.970  0.9992 -2.5589 -2.1542
14701TIP3    H265519   2.162   1.850   6.105 -0.1787  1.5676  0.0261
14702TIP3   OH265520   4.395   6.402   3.567 -0.5591 -0.4805 -0.4846
14702TIP3    H165521   4.327   6.336   3.579 -0.1188 -0.8095  0.2728
14702TIP3    H265522   4.429   6.416   3.656 -0.0229  0.0807 -0.7842
14703TIP3   OH265523   3.352   1.394  15.094  0.2147 -0.3640 -0.3804
14703TIP3    H165524   3.348   1.424  15.004  0.2681 -1.0506 -0.6147
14703TIP3    H265525   3.406   1.459  15.139 -1.5556  1.1370 -0.3634
14704TIP3   OH265526   2.591   0.821  16.723 -0.1454  0.1221  0.6252
14704TIP3    H165527   2.606   0.748  16.783 -0.3422 -0.2155  0.2687
14704TIP3    H265528   2.678   0.857  16.705  0.1126 -0.9669 -0.3686
14705TIP3   OH265529   5.676   4.729   0.483  0.0934 -0.0987 -0.6250
14705TIP3    H165530   5.639   4.642   0.499  0.0809  0.0309  0.0648
14705TIP3    H265531   5.730   4.718   0.404 -1.9183 -0.1313 -2.0342
14706TIP3   OH265532   4.920   3.739   3.691  0.5415  0.2744  0.1587
14706TIP3    H165533   4.909   3.793   3.612 -0.1932 -1.3018 -0.8291
14706TIP3    H265534   4.879   3.656   3.669 -1.2658  0.4025  2.8476
14707TIP3   OH265535   2.012   3.242   0.878 -0.4945  0.2218  0.1232
14707TIP3    H165536   1.969   3.157   0.887 -1.2219  0.6716  0.8612
14707TIP3    H265537   1.953   3.294   0.823 -0.6581  0.6732  0.7255
14708TIP3   OH265538   5.021   3.656   5.245  0.0487 -0.2275  0.0118
14708TIP3    H165539   5.001   3.744   5.214 -0.2981 -0.4831 -0.4858
14708TIP3    H265540   5.076   3.670   5.322  0.9604  0.3917 -0.7513
14709TIP3   OH265541   1.642   1.747  12.483 -0.2146  0.3427  0.9009
14709TIP3    H165542   1.645   1.818  12.418  1.6780 -0.1403  0.4443
14709TIP3    H265543   1.598   1.786  12.558 -1.6844  1.1711 -0.3396
14710TIP3   OH265544   2.950   3.821   1.560  0.0346  0.1978 -0.4682
14710TIP3    H165545   3.013   3.891   1.577  0.1191  0.6793 -2.6115
14710TIP3    H265546   2.957   3.805   1.466 -1.7025 -1.0554 -0.4089
14711TIP3   OH265547   0.047   3.527   0.648  0.3237  0.3491 -0.4425
14711TIP3    H165548   0.116   3.585   0.616 -0.1482  1.0573 -0.1825
14711TIP3    H265549   0.026   3.559   0.735  0.8184 -0.8894  0.1359
14712TIP3   OH265550   3.204   0.685  14.323  0.1764  0.1927 -0.0887
14712TIP3    H165551   3.253   0.763  14.350 -0.7533  0.3961  1.0715
14712TIP3    H265552   3.254   0.612  14.359  0.2032  0.3369  0.1658
14713TIP3   OH265553   1.299   6.105   4.822 -0.2924  0.2780  0.2875
14713TIP3    H165554   1.226   6.054   4.787 -1.1651  1.5637  0.2047
14713TIP3    H265555   1.377   6.052   4.803 -0.9411  0.0707 -1.8619
14714TIP3   OH265556   6.208   0.115  15.828  0.5670 -0.0821  0.5278
14714TIP3    H165557   6.228   0.199  15.787  1.8193  0.5962  2.4648
14714TIP3    H265558   6.134   0.081  15.777 -0.4825  2.5495  0.1922
14715TIP3   OH265559   0.482   1.587  13.614 -0.4325  0.6137 -0.1359
14715TIP3    H165560   0.437   1.670  13.629  0.1882  1.0534 -0.6969
14715TIP3    H265561   0.426   1.540  13.552 -1.6371 -0.0940  1.4500
14716TIP3   OH265562   0.396   6.403  14.344  0.1868 -0.6034 -0.1630
14716TIP3    H165563   0.454   6.365  14.278  0.6183  0.2563 -0.2915
14716TIP3    H265564   0.443   6.391  14.427 -1.3783 -3.7503  0.3344
14717TIP3   OH265565   4.045   0.362  11.952 -0.2522  0.5472  0.0143
14717TIP3    H165566   4.049   0.456  11.970 -0.1776  0.5234  0.1260
14717TIP3    H265567   4.078   0.353  11.863 -1.2428  0.7365 -0.3808
14718TIP3   OH265568   1.675   6.608   2.429 -0.4971  0.5934  0.1167
14718TIP3    H165569   1.758   6.581   2.390 -2.0510 -1.9968 -1.5402
14718TIP3    H265570   1.671   6.562   2.513  0.6246  2.3545  1.1838
14719TIP3   OH265571   3.015   2.438  12.491  0.1521  0.1940  0.5495
14719TIP3    H165572   3.031   2.514  12.547  1.5804  0.6738 -0.4712
14719TIP3    H265573   2.992   2.476  12.406 -1.2547 -0.5315  0.5844
14720TIP3   OH265574   5.456   0.579  11.887 -0.2019 -0.2046  0.0799
14720TIP3    H165575   5.398   0.653  11.867  0.1045  0.6482  2.2034
14720TIP3    H265576   5.397   0.504  11.894 -0.7240  0.1426 -0.5204
14721TIP3   OH265577   3.188   5.093   2.619 -0.3880  0.2055  0.1244
14721TIP3    H165578   3.137   5.115   2.541 -0.3704  0.6717  0.2477
14721TIP3    H265579   3.272   5.137   2.606  0.4869 -1.6447 -0.7105
14722TIP3   OH265580   3.817   0.674  14.344 -0.2919  0.1814  0.0383
14722TIP3    H165581   3.877   0.624  14.288  1.3818  1.5890  0.5441
14722TIP3    H265582   3.813   0.623  14.425 -0.2370 -0.2185 -0.2076
14723TIP3   OH265583   4.176   1.317  16.812 -0.5615 -0.0708 -0.6342
14723TIP3    H165584   4.177   1.225  16.838 -1.6115  0.1888  0.3932
14723TIP3    H265585   4.091   1.329  16.770  0.3626 -0.0252 -2.5473
14724TIP3   OH265586   4.161   2.049   0.719  0.0166  0.0688  1.0034
14724TIP3    H165587   4.148   2.042   0.625 -2.2077 -0.8532  1.3429
14724TIP3    H265588   4.212   1.972   0.743 -1.0528 -0.7041  0.8145
14725TIP3   OH265589   3.188   2.947  10.363 -0.1985  0.1541 -0.3164
14725TIP3    H165590   3.256   2.913  10.421  0.8449  1.2262 -0.8858
14725TIP3    H265591   3.110   2.955  10.418  0.4144 -0.1317  0.5837
14726TIP3   OH265592   5.593   3.430   4.320 -0.1573 -0.1021 -0.0272
14726TIP3    H165593   5.612   3.391   4.234  0.4650 -0.8041  0.4240
14726TIP3    H265594   5.671   3.480   4.341  0.4754 -1.5047  1.0033
14727TIP3   OH265595   1.390   1.680  17.142 -0.4644 -0.3556  0.0627
14727TIP3    H165596   1.410   1.773  17.131 -2.1198 -0.1741 -1.7441
14727TIP3    H265597   1.467   1.643  17.184  0.5778  1.6687 -0.0225
14728TIP3   OH265598   4.280   1.592   6.517  0.3209  0.0485 -0.3338
14728TIP3    H165599   4.255   1.508   6.479 -1.3296  0.3604  0.0185
14728TIP3    H265600   4.204   1.618   6.570  1.5069  0.9197  0.9730
14729TIP3   OH265601   5.369   0.290  16.388 -0.1658 -0.2598  0.3562
14729TIP3    H165602   5.274   0.290  16.372 -0.0788 -0.5233 -0.1853
14729TIP3    H265603   5.401   0.364  16.336 -0.4392  1.6743  2.8580
14730TIP3   OH265604   3.919   5.242  15.900  0.6150 -0.0658  0.5592
14730TIP3    H165605   3.902   5.148  15.910 -0.5599  0.2893  2.2538
14730TIP3    H265606   3.919   5.257  15.805  2.3502 -2.0247  0.2316
14731TIP3   OH265607   1.237   6.026  14.254 -0.5191  0.3050 -0.0506
14731TIP3    H165608   1.275   5.978  14.181 -0.1177  0.0721  0.3054
14731TIP3    H265609   1.142   6.016  14.243 -0.4429 -0.3421 -0.1281
14732TIP3   OH265610   1.887   2.502   6.233 -0.4731 -0.5730 -0.0591
14732TIP3    H165611   1.812   2.446   6.252  0.7225 -1.9605  0.7066
14732TIP3    H265612   1.898   2.555   6.311 -0.2471 -0.8488  0.0974
14733TIP3   OH265613   1.509   6.745   5.540  0.1698  0.6354 -0.0813
14733TIP3    H165614   1.570   6.711   5.474  1.0305  1.2268  0.3925
14733TIP3    H265615   1.504   6.676   5.606 -0.2980  0.2541 -0.5063
14734TIP3   OH265616   6.157   5.075  13.293 -0.2856  0.5739 -0.3630
14734TIP3    H165617   6.175   5.128  13.215  0.5321  1.8107  0.6596
14734TIP3    H265618   6.085   5.120  13.336 -0.5948  0.0023 -0.2734
14735TIP3   OH265619   5.308   3.331  10.526 -0.3682  0.7960  0.3068
14735TIP3    H165620   5.246   3.404  10.530 -1.0071  0.1897  2.0222
14735TIP3    H265621   5.301   3.288  10.611  1.6109  0.0359  0.1266
14736TIP3   OH265622   2.955   1.410  13.515  0.3880  0.6829  0.0734
14736TIP3    H165623   2.977   1.474  13.584 -0.1797  1.1976 -0.2224
14736TIP3    H265624   3.008   1.333  13.536  2.2844  1.8122 -0.4671
14737TIP3   OH265625   5.625   1.966   4.007  0.2685 -0.2134  0.4806
14737TIP3    H165626   5.598   2.018   4.082  1.8823  0.5367  0.5689
14737TIP3    H265627   5.720   1.959   4.016  0.1892 -2.2664 -0.1286
14738TIP3   OH265628   0.844   0.853   5.101 -0.2534 -0.1327 -0.3042
14738TIP3    H165629   0.814   0.905   5.027 -0.0572  0.9959  0.4022
14738TIP3    H265630   0.879   0.917   5.163 -1.3816 -0.9720  1.2257
14739TIP3   OH265631   5.988   4.475  14.329 -0.1004 -0.1577  0.5692
14739TIP3    H165632   6.028   4.478  14.242  0.0825 -0.4666  0.6391
14739TIP3    H265633   6.062   4.468  14.389 -0.1169  2.0822  0.8946
14740TIP3   OH265634   1.783   5.206  14.795 -0.0818 -0.3028 -0.1647
14740TIP3    H165635   1.756   5.146  14.864 -0.7812 -1.0663 -1.0978
14740TIP3    H265636   1.731   5.285  14.810 -0.6980 -0.7034 -0.1952
14741TIP3   OH265637   3.932   4.125   2.106  0.7719  0.0914 -0.1152
14741TIP3    H165638   3.840   4.101   2.113  0.5319  1.1004  0.2841
14741TIP3    H265639   3.931   4.220   2.093  1.8185  0.4632  2.2647
14742TIP3   OH265640   2.767   5.777  14.070  0.2312  0.4338  0.1076
14742TIP3    H165641   2.762   5.692  14.027 -0.0476  1.0269 -1.0493
14742TIP3    H265642   2.678   5.811  14.067  0.1057  0.2742  1.6110
14743TIP3   OH265643   3.471   1.728   5.080  0.3942  0.1841 -0.1175
14743TIP3    H165644   3.458   1.795   5.147  0.3908 -0.8328  0.9129
14743TIP3    H265645   3.560   1.695   5.095  0.7665  0.6421 -1.2499
14744TIP3   OH265646   0.741   0.428   4.830 -0.6631  0.2152  0.6721
14744TIP3    H165647   0.689   0.365   4.780 -0.9474  0.8276  0.1836
14744TIP3    H265648   0.702   0.513   4.809  1.1167  0.7882 -0.4428
14745TIP3   OH265649   5.648   3.758   3.513  0.5036  0.2211  0.1417
14745TIP3    H165650   5.636   3.724   3.602  0.5699  0.5168  0.2645
14745TIP3    H265651   5.714   3.701   3.474  0.9939  0.5265  0.5199
14746TIP3   OH265652   0.711   4.256  14.770  0.5799  0.2836  0.1643
14746TIP3    H165653   0.713   4.206  14.688  0.3016  0.4114  0.0776
14746TIP3    H265654   0.802   4.282  14.785  0.6230  0.3023 -0.1307
14747TIP3   OH265655   2.332   4.788   0.354  0.1414 -0.6653  0.1929
14747TIP3    H165656   2.352   4.870   0.309  0.9046 -1.4362 -0.8775
14747TIP3    H265657   2.312   4.815   0.444  0.3743  0.6955 -0.1494
14748TIP3   OH265658   2.319   2.766   4.419  0.0103  1.1977 -0.0612
14748TIP3    H165659   2.300   2.703   4.489  2.2687  0.0374 -0.4314
14748TIP3    H265660   2.314   2.851   4.461  0.5685  0.5517  1.3417
14749TIP3   OH265661   2.482   4.190   3.392 -0.0179 -0.3923 -0.1002
14749TIP3    H165662   2.477   4.097   3.412  0.7794 -0.4880 -0.3043
14749TIP3    H265663   2.411   4.206   3.330 -1.6508 -0.3711  1.7545
14750TIP3   OH265664   1.168   5.758   2.035  0.0974  0.0339 -0.4104
14750TIP3    H165665   1.114   5.709   1.974  0.1930  0.3500 -0.7475
14750TIP3    H265666   1.107   5.789   2.102  0.0693 -0.7287 -0.0726
14751TIP3   OH265667   1.937   3.062   1.616  0.3008 -0.8792 -0.0383
14751TIP3    H165668   1.926   3.039   1.524 -0.1086  1.7728 -0.7128
14751TIP3    H265669   1.902   3.151   1.622 -0.7523 -1.4448  2.9412
14752TIP3   OH265670   1.833   0.366  11.575 -0.3652 -0.0639  0.1802
14752TIP3    H165671   1.890   0.293  11.554 -0.1199  0.4617 -0.9863
14752TIP3    H265672   1.772   0.331  11.640  0.8204 -0.8251  0.9084
14753TIP3   OH265673   0.413   5.610  14.051 -0.2290  0.2661  0.2043
14753TIP3    H165674   0.369   5.556  14.117 -1.7290  2.3446  0.9392
14753TIP3    H265675   0.350   5.615  13.979 -0.7141  2.2401  0.7520
14754TIP3   OH265676   0.914   0.670   3.706 -0.0027  0.5111 -0.4317
14754TIP3    H165677   0.965   0.647   3.784 -0.3768 -2.7767 -1.0497
14754TIP3    H265678   0.975   0.714   3.648  0.8603  0.9633  0.8088
14755TIP3   OH265679   2.537   4.608   0.644 -0.1306  0.2386 -0.3234
14755TIP3    H165680   2.571   4.565   0.565  0.4177 -1.2563  0.7096
14755TIP3    H265681   2.464   4.553   0.672  0.7207 -0.1560  1.1522
14756TIP3   OH265682   4.466   0.013  16.517  0.3678  0.1590  0.6744
14756TIP3    H165683   4.385  -0.016  16.475  1.9553 -1.3809 -1.4142
14756TIP3    H265684   4.492  -0.061  16.573  0.1705  0.7764  1.5893
14757TIP3   OH265685   0.101   6.143   5.604  0.2789  0.0105  0.8483
14757TIP3    H165686   0.136   6.206   5.541 -2.3233 -1.2268 -1.9558
14757TIP3    H265687   0.168   6.076   5.612  0.7175  0.2857 -0.4732
14758TIP3   OH265688   2.170   3.486  15.420  0.3392 -0.6200  0.4743
14758TIP3    H165689   2.158   3.572  15.460 -2.4210 -0.1526 -1.2468
14758TIP3    H265690   2.089   3.439  15.438  0.7884 -1.9403 -0.8038
14759TIP3   OH265691   5.264   2.262  12.434 -0.0800 -0.6485 -0.0668
14759TIP3    H165692   5.238   2.350  12.461 -0.1153 -0.3324 -1.1036
14759TIP3    H265693   5.200   2.238  12.367 -0.0164 -1.4251  0.1508
14760TIP3   OH265694   3.441   0.867   1.983  0.0057  0.3835  0.4971
14760TIP3    H165695   3.457   0.882   2.076  0.4950  2.4463  0.1023
14760TIP3    H265696   3.401   0.780   1.979 -0.0086  0.2766  2.6301
14761TIP3   OH265697   5.517   0.417   3.338  1.1070 -0.1936 -0.0084
14761TIP3    H165698   5.487   0.486   3.279  1.7445  0.1107  0.0214
14761TIP3    H265699   5.612   0.420   3.332  1.1969  0.2042  1.4386
14762TIP3   OH265700   5.011   2.926  11.092  0.1331  0.5034  0.2521
14762TIP3    H165701   4.940   2.940  11.029 -0.2481 -0.4162  0.4783
14762TIP3    H265702   5.077   2.990  11.067 -0.6694  1.2037 -0.1158
14763TIP3   OH265703   4.150   3.857  14.484 -0.1285 -0.1562  0.2847
14763TIP3    H165704   4.121   3.911  14.558 -0.4033 -1.0186  0.8171
14763TIP3    H265705   4.069   3.824  14.446  0.1276 -4.7562  3.4168
14764TIP3   OH265706   1.938   2.738  16.789  0.4686  0.9382  0.5469
14764TIP3    H165707   1.965   2.653  16.822 -1.0974 -0.0041 -0.5526
14764TIP3    H265708   2.020   2.783  16.769  1.2900 -0.8877 -0.2970
14765TIP3   OH265709   0.173   2.990  16.911  0.1769 -0.2559 -0.5965
14765TIP3    H165710   0.182   2.896  16.894 -1.4801 -0.2899 -1.3523
14765TIP3    H265711   0.216   3.032  16.836  0.8168 -0.3923 -0.3166
14766TIP3   OH265712   1.309   4.502   5.793 -0.1663 -0.7503 -0.3777
14766TIP3    H165713   1.348   4.528   5.876  0.8597 -1.6279 -0.5783
14766TIP3    H265714   1.284   4.411   5.806 -0.2708 -0.8014 -0.9402
14767TIP3   OH265715   2.793   2.967   3.074  0.5135 -0.0124  0.2301
14767TIP3    H165716   2.766   2.959   2.982 -2.9699  0.8434  1.1034
14767TIP3    H265717   2.885   2.993   3.070  0.0136  1.4775 -3.0267
14768TIP3   OH265718   5.399   1.746   2.895  0.5329  0.4174  0.5388
14768TIP3    H165719   5.475   1.760   2.952 -0.1626  0.8429  1.3657
14768TIP3    H265720   5.409   1.655   2.866  0.9794  0.2378  1.2136
14769TIP3   OH265721   1.541   2.853  16.273  0.1461 -0.2866  0.8512
14769TIP3    H165722   1.504   2.865  16.361 -1.9120 -0.9066  0.0974
14769TIP3    H265723   1.493   2.916  16.219  2.1110  0.8080  0.3190
14770TIP3   OH265724   5.872   0.094   2.249  0.6457 -0.3627  0.1894
14770TIP3    H165725   5.815   0.152   2.299  0.7676 -1.8197  2.1003
14770TIP3    H265726   5.957   0.139   2.248  0.4769 -0.0283  0.7398
14771TIP3   OH265727   2.310   6.511   1.796  0.5581 -0.0253  0.4083
14771TIP3    H165728   2.359   6.429   1.787  0.5556 -0.1018  1.0639
14771TIP3    H265729   2.374   6.574   1.828  0.0444 -0.3395  2.1152
14772TIP3   OH265730   0.002   3.087   4.656 -0.0413 -0.2553  0.1433
14772TIP3    H165731   0.014   2.993   4.672  1.4115  0.1948  1.7660
14772TIP3    H265732  -0.088   3.104   4.683 -0.2542 -1.1413  0.0114
14773TIP3   OH265733   1.468   4.411  16.602 -0.0216  0.2568 -0.1636
14773TIP3    H165734   1.492   4.412  16.695 -0.0631  0.3746 -0.1537
14773TIP3    H265735   1.458   4.318  16.581  0.9361  0.1838 -0.2989
14774TIP3   OH265736   0.445   6.601  13.796  0.3786 -0.1734 -0.1488
14774TIP3    H165737   0.488   6.612  13.711  3.3405 -1.8622  1.0671
14774TIP3    H265738   0.489   6.526  13.835 -1.2861  0.2792  2.6848
14775TIP3   OH265739   6.046   0.940  13.402 -0.4922  0.4807 -0.6523
14775TIP3    H165740   6.136   0.931  13.372 -0.2434  0.5753  0.0474
14775TIP3    H265741   5.998   0.869  13.359  0.0791 -0.0610 -0.4001
14776TIP3   OH265742   4.409   6.610  12.758 -0.7756  0.0518 -0.6458
14776TIP3    H165743   4.448   6.548  12.696 -0.6159 -0.1243 -0.3683
14776TIP3    H265744   4.372   6.555  12.827 -1.1539  0.2383 -0.6951
14777TIP3   OH265745   1.338   1.988   0.843  0.1509  0.0299 -0.3069
14777TIP3    H165746   1.350   1.971   0.749  1.8249 -3.3850  0.4666
14777TIP3    H265747   1.392   2.065   0.860  0.4247  0.2361 -1.9637
14778TIP3   OH265748   4.876   4.496  16.572  0.0725 -0.1952  0.3287
14778TIP3    H165749   4.915   4.427  16.518 -1.3305 -2.0592  1.6406
14778TIP3    H265750   4.813   4.540  16.514 -0.6240 -1.4668  0.1080
14779TIP3   OH265751   2.354   6.050   3.246 -0.9189  0.0792 -0.2352
14779TIP3    H165752   2.300   5.974   3.223 -0.5112  0.1536 -1.4373
14779TIP3    H265753   2.387   6.082   3.163  0.1755  0.6422  0.4122
14780TIP3   OH265754   3.925   0.989   2.315 -0.6438 -0.0786  0.0246
14780TIP3    H165755   3.980   1.057   2.276  0.2732 -0.0164  1.4181
14780TIP3    H265756   3.938   0.998   2.409 -3.6452  0.4578  0.4513
14781TIP3   OH265757   0.289   2.471  15.311 -0.1752 -0.0379 -0.0330
14781TIP3    H165758   0.322   2.494  15.398 -0.9354 -0.7401  0.4467
14781TIP3    H265759   0.197   2.497  15.313  0.1747  1.3401 -1.1512
14782TIP3   OH265760   5.438   4.923  11.772  0.1735 -0.1377  0.0356
14782TIP3    H165761   5.367   4.916  11.709 -0.2074  1.0208  0.3283
14782TIP3    H265762   5.458   5.017  11.777  0.8436 -0.3128  0.9167
14783TIP3   OH265763   6.289   6.057   0.990 -0.9660 -0.4882  0.1546
14783TIP3    H165764   6.335   6.124   0.939 -2.8815  1.0910  0.4374
14783TIP3    H265765   6.348   6.037   1.063  0.8001 -1.1007 -1.3875
14784TIP3   OH265766   0.007   3.189  17.047  0.2253 -0.7025  0.7902
14784TIP3    H165767   0.042   3.108  17.010  1.7749 -0.3025  1.3531
14784TIP3    H265768  -0.006   3.170  17.139 -3.0682 -1.5067  0.2199
14785TIP3   OH265769   0.430   4.536   0.960 -0.2323 -0.0956 -0.0364
14785TIP3    H165770   0.426   4.602   0.890  0.8431  0.0700  0.0519
14785TIP3    H265771   0.467   4.583   1.035  1.5812 -1.0457 -0.2944
14786TIP3   OH265772   2.233   3.534  14.842  0.1191  0.0462  0.4431
14786TIP3    H165773   2.265   3.492  14.762 -0.5900  0.8512 -0.2726
14786TIP3    H265774   2.237   3.465  14.908 -2.1710 -1.5405 -0.9858
14787TIP3   OH265775   5.094   4.722  12.372 -0.3310  0.0259  0.3716
14787TIP3    H165776   5.172   4.775  12.390 -0.7818  0.4422  1.1144
14787TIP3    H265777   5.076   4.676  12.454  0.1910 -1.4671 -0.3343
14788TIP3   OH265778   1.304   4.236   2.209  0.4508 -0.0547 -0.1601
14788TIP3    H165779   1.236   4.289   2.250  0.1591 -0.9365  0.5052
14788TIP3    H265780   1.257   4.166   2.165  0.8391  0.2006 -0.9980
14789TIP3   OH265781   0.912   3.370  10.770  0.2324 -0.3025  0.2513
14789TIP3    H165782   0.996   3.395  10.731 -0.8195  1.1356 -1.2050
14789TIP3    H265783   0.901   3.278  10.746  1.1474 -0.3441 -0.0207
14790TIP3   OH265784   4.174   6.380   1.660  0.0116 -0.2002 -0.2838
14790TIP3    H165785   4.157   6.411   1.749 -0.4545 -2.0105  0.2957
14790TIP3    H265786   4.213   6.293   1.672 -0.7855 -0.8109 -1.8406
14791TIP3   OH265787   4.261   6.013   5.489 -0.4362 -0.5575  0.3545
14791TIP3    H165788   4.268   5.973   5.402  0.2479  1.3465 -0.5055
14791TIP3    H265789   4.351   6.026   5.516 -0.6479  0.4554  0.5796
14792TIP3   OH265790   4.609   3.268   3.369 -0.0640 -0.1960  0.1594
14792TIP3    H165791   4.703   3.255   3.377 -0.2259 -0.5001  1.6072
14792TIP3    H265792   4.599   3.325   3.293  1.2593 -0.5122 -0.2617
14793TIP3   OH265793   5.080   6.614  14.462  0.7579  0.0905 -0.1159
14793TIP3    H165794   5.029   6.693  14.482  2.0522  0.8788  0.1469
14793TIP3    H265795   5.088   6.614  14.367  1.1142  0.5088 -0.0869
14794TIP3   OH265796   5.932   1.963   5.355  0.2098 -0.1171 -0.6907
14794TIP3    H165797   5.910   2.016   5.432 -0.2004 -0.1405 -0.7918
14794TIP3    H265798   5.992   1.895   5.389  0.9899  0.5966 -0.6216
14795TIP3   OH265799   6.478   1.888  16.244 -0.6713  0.5535 -0.1401
14795TIP3    H165800   6.562   1.853  16.214 -0.4988  1.1723 -0.3852
14795TIP3    H265801   6.422   1.882  16.167 -0.0754  2.6493 -0.7880
14796TIP3   OH265802   2.071   3.970   0.775 -0.2605 -0.4996  0.2150
14796TIP3    H165803   2.082   3.875   0.769 -2.1423 -0.6420 -1.3884
14796TIP3    H265804   2.049   3.985   0.867 -1.1263 -1.7451  0.2299
14797TIP3   OH265805   0.463   4.441  13.808 -0.2723  0.0785  0.2907
14797TIP3    H165806   0.374   4.472  13.790 -0.3106  1.0228  2.0157
14797TIP3    H265807   0.477   4.370  13.745 -1.2799  1.6346 -1.7412
14798TIP3   OH265808   6.213   2.990   4.796  0.5227 -0.2726 -0.0828
14798TIP3    H165809   6.215   2.952   4.709 -0.4588 -1.6310  0.4619
14798TIP3    H265810   6.212   2.915   4.855 -3.3717  0.4975  0.9883
14799TIP3   OH265811   1.188   3.923   5.108  0.3957  0.1226  0.3615
14799TIP3    H165812   1.215   3.951   5.021  1.6375 -0.5863  0.5117
14799TIP3    H265813   1.268   3.925   5.160  0.5813 -3.8546  0.3320
14800TIP3   OH265814   4.775   4.148  15.468 -0.0753  0.2025  0.3977
14800TIP3    H165815   4.735   4.162  15.381  0.0790  0.0697  0.3039
14800TIP3    H265816   4.762   4.054  15.485  1.3521 -0.1117 -0.2081
14801TIP3   OH265817   4.347   3.362   2.460 -0.2226 -0.9089 -0.0918
14801TIP3    H165818   4.355   3.307   2.381  0.9278 -1.8036  0.6310
14801TIP3    H265819   4.429   3.411   2.463  1.0996 -3.1357  2.1928
14802TIP3   OH265820   1.400   0.015   4.782 -0.3091 -0.5548  0.3136
14802TIP3    H165821   1.390  -0.057   4.845  1.1683 -0.2615  0.9058
14802TIP3    H265822   1.318   0.063   4.787  0.3081  0.2954  3.0842
14803TIP3   OH265823   2.545   3.981   0.862 -0.2924 -0.8063  0.0406
14803TIP3    H165824   2.629   3.956   0.901 -0.6699  1.1293  2.2089
14803TIP3    H265825   2.492   4.011   0.936 -2.3260 -0.4472 -1.5180
14804TIP3   OH265826   6.091   4.435   5.559  0.2796  0.5611  0.2656
14804TIP3    H165827   6.168   4.379   5.550 -0.3228 -0.1566 -0.5143
14804TIP3    H265828   6.115   4.515   5.511  0.1918 -0.0266 -0.7670
14805TIP3   OH265829   3.831   1.496   0.508  0.1254 -0.5011 -0.2273
14805TIP3    H165830   3.842   1.401   0.517  0.2567 -0.6618 -1.9627
14805TIP3    H265831   3.766   1.519   0.574  0.3201 -1.7536  0.4170
14806TIP3   OH265832   5.648   5.935   0.371 -0.1045  0.1020 -0.3235
14806TIP3    H165833   5.734   5.913   0.335  0.0715  0.8267 -0.3595
14806TIP3    H265834   5.618   5.854   0.412  1.0439  0.1046  0.5662
14807TIP3   OH265835   2.416   2.923  11.965 -0.1713 -0.6215 -0.0558
14807TIP3    H165836   2.482   2.989  11.985 -1.5868  0.4574  1.1237
14807TIP3    H265837   2.402   2.877  12.048 -1.0092 -0.7399 -0.2542
14808TIP3   OH265838   6.673   5.440   5.597  0.4411  0.1787 -0.4914
14808TIP3    H165839   6.749   5.498   5.583  0.0376  1.0594  0.8229
14808TIP3    H265840   6.613   5.492   5.650  1.5512 -2.6175  3.7320
14809TIP3   OH265841   2.533   0.478  12.950  0.0836 -0.0654  0.2660
14809TIP3    H165842   2.514   0.568  12.922 -0.9062 -0.0629  0.9315
14809TIP3    H265843   2.487   0.422  12.888  1.0740 -0.1315 -0.4239
14810TIP3   OH265844   5.260   0.499  15.111  0.2539 -0.0286 -0.2823
14810TIP3    H165845   5.309   0.537  15.038  1.8461 -1.5950 -0.0544
14810TIP3    H265846   5.323   0.493  15.183 -0.1650 -2.3192 -0.0582
14811TIP3   OH265847   1.065   4.320   3.067 -0.3231 -0.0900 -0.2578
14811TIP3    H165848   1.078   4.241   3.119 -1.6689 -0.1958 -0.0603
14811TIP3    H265849   1.090   4.392   3.125 -0.8102 -0.2664  0.1686
14812TIP3   OH265850   5.292   0.132  15.609  0.4394  0.3694  0.4484
14812TIP3    H165851   5.224   0.164  15.669  0.9721  3.1607 -0.3609
14812TIP3    H265852   5.259   0.153  15.522  0.8951 -1.1933 -0.1017
14813TIP3   OH265853   4.968   4.231   4.798 -0.0043 -0.7154  0.4942
14813TIP3    H165854   4.891   4.246   4.852 -0.0205  1.8514 -0.1862
14813TIP3    H265855   5.041   4.230   4.859 -0.2720 -0.2645  0.8204
14814TIP3   OH265856   6.605   5.563   4.393  0.7710 -0.2672 -0.5103
14814TIP3    H165857   6.563   5.477   4.392  1.5825 -0.6570 -1.7749
14814TIP3    H265858   6.561   5.612   4.325 -1.7343  1.3500  2.1667
14815TIP3   OH265859   1.644   1.288  15.617  0.8634 -0.1454  0.0736
14815TIP3    H165860   1.621   1.282  15.709 -0.1466  1.0956 -0.0834
14815TIP3    H265861   1.591   1.360  15.583 -0.6025 -2.1471 -2.0547
14816TIP3   OH265862   3.290   2.569  16.153 -0.3970 -0.4641  0.3173
14816TIP3    H165863   3.230   2.520  16.209  0.5200 -2.4936 -0.4339
14816TIP3    H265864   3.344   2.620  16.214 -2.1383  0.5762  1.0396
14817TIP3   OH265865   2.554   2.044   5.634  1.0722  0.2603 -0.7031
14817TIP3    H165866   2.616   2.115   5.651  0.1717  0.7412  0.6151
14817TIP3    H265867   2.574   1.978   5.700  1.8858 -0.7263 -1.9029
14818TIP3   OH265868   3.894   3.796   5.478  0.1976 -0.1004 -0.0014
14818TIP3    H165869   3.934   3.730   5.535  0.1603 -0.1716 -0.0569
14818TIP3    H265870   3.825   3.835   5.532 -0.5392 -0.9013 -0.3405
14819TIP3   OH265871   6.182   6.311   1.945 -0.0450  0.0491  0.0680
14819TIP3    H165872   6.242   6.265   1.885 -0.3977  0.3185 -0.4965
14819TIP3    H265873   6.153   6.243   2.006  1.1973  0.0132  0.6421
14820TIP3   OH265874   0.241   2.699  16.840 -0.0447 -0.0756 -0.1867
14820TIP3    H165875   0.311   2.684  16.903  0.2708  0.4018 -0.4141
14820TIP3    H265876   0.283   2.688  16.755 -0.5882 -1.2304 -0.3123
14821TIP3   OH265877   6.019   2.872  14.338  0.1932  0.2593  0.3624
14821TIP3    H165878   5.933   2.866  14.379  0.2156 -0.8273  0.2743
14821TIP3    H265879   6.024   2.795  14.281  0.8893  0.7651 -0.2777
14822TIP3   OH265880   1.253   3.094   2.827  0.6567 -0.0106 -0.1664
14822TIP3    H165881   1.175   3.107   2.881  0.6036  0.9294 -0.4528
14822TIP3    H265882   1.300   3.022   2.869 -1.3163 -1.8946 -1.0737
14823TIP3   OH265883   2.398   0.419   2.141 -0.1965  1.0181 -0.0564
14823TIP3    H165884   2.394   0.474   2.063 -0.0513 -0.8196 -1.3815
14823TIP3    H265885   2.491   0.414   2.162  0.1308 -1.4007 -1.9083
14824TIP3   OH265886   3.175   3.148  11.629 -0.1430  0.0677  0.6123
14824TIP3    H165887   3.229   3.219  11.593  1.4452 -1.2131  0.4053
14824TIP3    H265888   3.209   3.135  11.717 -0.7680 -0.1224  0.8275
14825TIP3   OH265889   5.740   6.061  11.276 -0.4813  0.3656  0.0582
14825TIP3    H165890   5.740   6.017  11.191  1.4399 -1.0711  0.7699
14825TIP3    H265891   5.816   6.119  11.274 -0.7829  0.7917  0.5722
14826TIP3   OH265892   3.581   3.520   1.307  0.4352 -1.2663 -0.3318
14826TIP3    H165893   3.634   3.582   1.357 -1.2333 -0.2502  0.2668
14826TIP3    H265894   3.504   3.505   1.362  0.5743 -3.4795 -0.7168
14827TIP3   OH265895   1.963   4.592   5.930 -0.4079  0.4156 -0.1917
14827TIP3    H165896   1.926   4.505   5.948  0.6711  0.0074  0.1004
14827TIP3    H265897   1.892   4.653   5.950 -0.8633 -0.3456  0.5460
14828TIP3   OH265898   4.706   6.130   6.805  0.6569 -0.0832 -0.4326
14828TIP3    H165899   4.776   6.081   6.849  0.5986 -0.4151 -0.7010
14828TIP3    H265900   4.727   6.121   6.711  1.4617  1.6180 -0.4391
14829TIP3   OH265901   6.665   4.780  12.600 -0.1519 -0.2231  0.1041
14829TIP3    H165902   6.682   4.850  12.664  0.6400 -0.0709 -0.2628
14829TIP3    H265903   6.729   4.712  12.622  0.1163 -0.1720 -0.5216
14830TIP3   OH265904   3.604   5.344  16.972 -0.1524  0.5232  0.0745
14830TIP3    H165905   3.698   5.360  16.960 -0.4555  2.7230  0.5056
14830TIP3    H265906   3.564   5.372  16.890 -0.5606  0.6722  0.3245
14831TIP3   OH265907   3.325   1.851   2.545  0.1666  0.6461  0.2928
14831TIP3    H165908   3.391   1.800   2.592  0.8710  1.5881  0.3377
14831TIP3    H265909   3.357   1.941   2.548 -0.4539  0.9215 -0.8304
14832TIP3   OH265910   4.183   2.633   1.543  0.0915  0.1246 -0.1064
14832TIP3    H165911   4.215   2.723   1.538  0.2067  0.0193 -1.2703
14832TIP3    H265912   4.100   2.635   1.494 -0.8970  0.0323  1.5148
14833TIP3   OH265913   0.488   0.363   2.844  0.3161 -0.0947 -0.5323
14833TIP3    H165914   0.550   0.293   2.824 -0.3200 -0.5382 -0.9961
14833TIP3    H265915   0.541   0.443   2.845  1.5917 -0.9063  3.0008
14834TIP3   OH265916   1.980   5.649  16.133 -0.2018  0.3668 -0.2010
14834TIP3    H165917   1.927   5.710  16.185 -0.7461 -1.0698  0.9599
14834TIP3    H265918   2.047   5.618  16.193  0.0046 -0.2657 -0.7550
14835TIP3   OH265919   2.394   3.660   3.472  0.7395 -0.6262  0.6791
14835TIP3    H165920   2.449   3.591   3.434  2.3774  0.6962  0.5939
14835TIP3    H265921   2.437   3.742   3.448 -0.4174  0.3957  1.9495
14836TIP3   OH265922   0.507   2.395  14.133 -0.0476 -0.4945  0.3646
14836TIP3    H165923   0.585   2.364  14.178  0.2426 -2.1804 -1.2396
14836TIP3    H265924   0.534   2.405  14.042 -1.4079 -0.0307 -0.0007
14837TIP3   OH265925   1.359   6.704   3.334  0.2070 -0.5145  0.1262
14837TIP3    H165926   1.353   6.666   3.421  0.4092  0.0898  0.4097
14837TIP3    H265927   1.441   6.754   3.336  0.5646 -1.0678 -0.6352
14838TIP3   OH265928   4.129   3.793  11.493 -0.1472  0.1723  0.4381
14838TIP3    H165929   4.071   3.801  11.569 -0.3869  2.3562  0.0536
14838TIP3    H265930   4.192   3.864  11.503  1.7180 -1.3926  0.1800
14839TIP3   OH265931   2.259   6.236  11.201  0.2744  0.0749  0.1362
14839TIP3    H165932   2.235   6.323  11.169 -0.0324  0.1517  0.5595
14839TIP3    H265933   2.241   6.177  11.127  1.8291  0.5434 -0.6377
14840TIP3   OH265934   5.911   6.206   2.509  0.4953  0.0253  0.2780
14840TIP3    H165935   5.898   6.269   2.580 -1.1298 -0.9845  0.9015
14840TIP3    H265936   5.826   6.200   2.466  0.8235 -1.2242 -0.2171
14841TIP3   OH265937   3.392   5.023  12.233 -0.1595 -0.3038  0.1324
14841TIP3    H165938   3.336   5.069  12.296  0.3666 -1.3489  1.4101
14841TIP3    H265939   3.377   5.067  12.150 -1.2111  0.8355  0.9089
14842TIP3   OH265940   5.821   4.215  14.300  0.1864  0.1680 -0.3301
14842TIP3    H165941   5.901   4.232  14.348  0.0660 -0.1223 -0.0220
14842TIP3    H265942   5.849   4.202  14.209  0.7153 -1.7743  0.0799
14843TIP3   OH265943   6.489   0.303   4.469 -0.3440  0.0736  0.0239
14843TIP3    H165944   6.419   0.236   4.467  1.0835 -1.4637  0.3115
14843TIP3    H265945   6.453   0.377   4.420 -1.5668 -1.3192 -1.2414
14844TIP3   OH265946   5.202   6.630   5.502  0.4340  0.0709 -0.0322
14844TIP3    H165947   5.259   6.702   5.475 -0.5441  0.8494 -0.0653
14844TIP3    H265948   5.174   6.655   5.590  0.5129 -0.5364  0.1636
14845TIP3   OH265949   0.377   5.942   1.909 -0.0592 -0.3970  0.3938
14845TIP3    H165950   0.344   5.999   1.979 -1.4493 -0.0129 -0.5582
14845TIP3    H265951   0.381   5.855   1.949 -0.3242 -0.0873  1.1170
14846TIP3   OH265952   0.114   6.524   5.622 -0.4420  0.0896 -0.1454
14846TIP3    H165953   0.061   6.588   5.574 -1.3642 -0.8144 -0.3307
14846TIP3    H265954   0.198   6.522   5.575  0.0272  2.0221  0.5474
14847TIP3   OH265955   3.069   4.324   0.579 -0.0288 -0.0174 -0.4668
14847TIP3    H165956   3.036   4.244   0.537 -0.7718  0.4504 -0.7791
14847TIP3    H265957   3.011   4.338   0.654 -0.7128  0.9449 -1.1611
14848TIP3   OH265958   1.104   2.052   3.003  0.1351 -0.0065 -0.1409
14848TIP3    H165959   1.071   2.000   2.930 -0.2891  1.7818 -1.2557
14848TIP3    H265960   1.167   1.995   3.047  0.9853 -0.8270 -2.3656
14849TIP3   OH265961   3.415   1.017  16.817 -0.1679  0.4358  0.1761
14849TIP3    H165962   3.364   1.087  16.858 -0.3431  0.9831 -0.9440
14849TIP3    H265963   3.367   0.996  16.737  1.8415  1.6541 -1.4032
14850TIP3   OH265964   4.559   2.614  16.026 -0.1155  0.2728  0.0547
14850TIP3    H165965   4.503   2.539  16.005  0.0734  0.3880 -0.8703
14850TIP3    H265966   4.617   2.581  16.095  1.2516 -1.0607 -1.6734
14851TIP3   OH265967   3.707   3.224  10.418 -0.2476  0.1939  0.7538
14851TIP3    H165968   3.744   3.140  10.388 -1.3916 -0.0857  0.0951
14851TIP3    H265969   3.677   3.207  10.507 -0.1860 -0.0067  0.7370
14852TIP3   OH265970   3.036   2.289  12.119 -0.6624 -0.0806 -0.3458
14852TIP3    H165971   3.059   2.351  12.187 -1.6197 -0.1773  0.0768
14852TIP3    H265972   3.118   2.270  12.074 -0.7116  3.1973 -1.9370
14853TIP3   OH265973   4.698   4.814  17.179 -0.9223  0.3685  0.1223
14853TIP3    H165974   4.696   4.903  17.214  0.6437  0.9145 -1.1135
14853TIP3    H265975   4.783   4.780  17.205 -1.0641 -0.3674 -0.3765
14854TIP3   OH265976   2.353   3.936  14.870  0.6946 -0.5072 -0.0023
14854TIP3    H165977   2.305   3.905  14.793 -0.3971  1.4635 -0.1344
14854TIP3    H265978   2.289   3.934  14.941  1.6434 -2.1348  0.8495
14855TIP3   OH265979   0.452   4.612  12.657  0.0337  0.4770 -0.5272
14855TIP3    H165980   0.378   4.644  12.707  1.0792  1.4583  0.4259
14855TIP3    H265981   0.463   4.676  12.587 -0.5126 -0.1020 -1.1490
14856TIP3   OH265982   3.061   2.199  11.750  0.4242 -0.1109 -0.0739
14856TIP3    H165983   3.150   2.218  11.778  0.6918  1.2470 -1.7206
14856TIP3    H265984   3.070   2.172  11.658 -0.8573  0.2074 -0.3092
14857TIP3   OH265985   6.725   3.998  16.483 -0.2797  0.1307 -0.0199
14857TIP3    H165986   6.755   4.064  16.421  1.6927  0.9152  1.7040
14857TIP3    H265987   6.720   3.917  16.431 -1.0147  1.2529 -1.7333
14858TIP3   OH265988   4.015   4.915  16.989 -0.2666  0.6877 -0.2047
14858TIP3    H165989   3.998   5.009  17.001  0.3905  0.7734  0.0775
14858TIP3    H265990   4.021   4.880  17.078 -1.0047  0.2810 -0.3050
14859TIP3   OH265991   5.812   1.634   0.121 -0.3291 -0.5516 -0.2802
14859TIP3    H165992   5.905   1.655   0.114  0.1192 -2.3035  0.1756
14859TIP3    H265993   5.774   1.664   0.038  0.4552  1.0489 -0.0679
14860TIP3   OH265994   5.596   1.108   0.356  0.8381  0.1408 -0.2422
14860TIP3    H165995   5.594   1.111   0.452  0.6371 -0.3620 -0.2256
14860TIP3    H265996   5.566   1.194   0.328  2.3946  0.8397  0.1525
14861TIP3   OH265997   1.679   6.762  14.423  0.0339  0.1090 -0.7931
14861TIP3    H165998   1.724   6.694  14.372 -0.6104 -1.8836  1.2022
14861TIP3    H265999   1.622   6.713  14.483 -1.6386  2.4751 -0.3884
14862TIP3   OH266000   5.047   6.125   1.440 -0.3734  0.1877  0.4755
14862TIP3    H166001   5.095   6.079   1.371 -0.7133  0.5201  0.0071
14862TIP3    H266002   5.041   6.215   1.408  0.7164  0.6716  1.6052
14863TIP3   OH266003   1.568   1.633  13.822  0.3671  0.2069  0.3196
14863TIP3    H166004   1.550   1.617  13.730 -0.0756 -1.9769  0.7538
14863TIP3    H266005   1.633   1.567  13.846  0.1397  0.4530  1.6762
14864TIP3   OH266006   5.442   4.693   0.760 -0.7584  0.2461  0.3600
14864TIP3    H166007   5.496   4.711   0.836  1.4073 -1.2577 -0.7816
14864TIP3    H266008   5.364   4.649   0.796  0.6919 -1.3579  1.6317
14865TIP3   OH266009   4.100   3.698  16.889 -0.4930 -0.4572  0.3133
14865TIP3    H166010   4.061   3.641  16.822 -2.0310  0.3342  0.5253
14865TIP3    H266011   4.119   3.780  16.843  0.5162 -0.6758  0.3213
14866TIP3   OH266012   5.873   6.737   3.822 -0.0848 -0.8182  0.4449
14866TIP3    H166013   5.927   6.790   3.764 -1.0042 -0.6175 -0.2479
14866TIP3    H266014   5.917   6.652   3.826  1.1970 -0.1375  1.2630
14867TIP3   OH266015   5.650   3.391  14.351 -0.4542 -0.3576 -0.0293
14867TIP3    H166016   5.630   3.423  14.439 -1.7491 -0.0655 -0.4309
14867TIP3    H266017   5.680   3.301  14.365  0.2037 -0.0218  0.7931
14868TIP3   OH266018   4.804   1.071   0.670 -0.3022 -0.6769  0.2153
14868TIP3    H166019   4.833   0.981   0.677  0.9301 -0.2054  1.3573
14868TIP3    H266020   4.787   1.084   0.577  1.7233 -1.4172 -0.2685
14869TIP3   OH266021   5.243   0.678   5.511  0.2625  0.2117  0.1272
14869TIP3    H166022   5.305   0.750   5.499  1.1938 -0.3545  1.4601
14869TIP3    H266023   5.297   0.599   5.508 -0.5893 -0.3709 -0.1211
14870TIP3   OH266024   4.732   3.220   2.700  0.8434 -0.3031 -0.0092
14870TIP3    H166025   4.682   3.285   2.651 -0.5073 -0.2576  1.3801
14870TIP3    H266026   4.716   3.137   2.655  0.8914 -0.0204 -0.5540
14871TIP3   OH266027   3.298   5.891   2.362 -0.1270  0.5954 -0.3168
14871TIP3    H166028   3.266   5.801   2.362  0.2320  0.4660  0.0852
14871TIP3    H266029   3.334   5.904   2.450  1.8186  0.4224 -1.0722
14872TIP3   OH266030   0.323   5.982   2.539  0.5436  0.2767  0.2064
14872TIP3    H166031   0.360   6.028   2.464  3.6656  0.8946  2.0460
14872TIP3    H266032   0.397   5.970   2.599 -1.6581 -1.0431  2.7686
14873TIP3   OH266033   5.940   5.500  15.517  0.1696 -0.0109  0.3438
14873TIP3    H166034   5.881   5.534  15.585 -0.2756 -1.1144  0.5108
14873TIP3    H266035   5.957   5.576  15.461  0.0529  0.7628  1.3296
14874TIP3   OH266036   1.619   0.541   4.127 -0.2101  0.2200 -0.1474
14874TIP3    H166037   1.583   0.602   4.191 -2.3850  1.6022 -2.5742
14874TIP3    H266038   1.544   0.516   4.073  2.0609  1.6706 -4.1785
14875TIP3   OH266039   0.889   1.051  16.097 -0.0936 -0.2314  0.4385
14875TIP3    H166040   0.941   1.088  16.168 -0.3074  0.9714 -0.0240
14875TIP3    H266041   0.953   1.006  16.042  0.1627 -0.5972  1.0288
14876TIP3   OH266042   2.736   4.934   4.476  0.0964  0.1900  0.2949
14876TIP3    H166043   2.708   4.900   4.561 -3.7346  0.0128 -0.9175
14876TIP3    H266044   2.779   4.861   4.433 -0.6682 -0.6311  0.9192
14877TIP3   OH266045   0.214   3.285  15.366 -0.1601  0.7920 -0.0103
14877TIP3    H166046   0.260   3.203  15.385 -1.3814 -0.2491 -1.4884
14877TIP3    H266047   0.278   3.353  15.386  1.4981 -0.5779 -0.5186
14878TIP3   OH266048   2.994   5.151   5.322 -0.0068 -0.2207  0.1803
14878TIP3    H166049   2.983   5.183   5.233 -0.6359 -0.2549  0.2470
14878TIP3    H266050   3.066   5.203   5.357 -0.5437  0.6111  0.0448
14879TIP3   OH266051   2.987   6.638   5.620  0.7228  0.3678 -0.4735
14879TIP3    H166052   2.924   6.570   5.597 -1.3170  0.9221  3.0027
14879TIP3    H266053   2.962   6.713   5.566 -1.8377  0.6281  0.9504
14880TIP3   OH266054   5.225   2.428  15.528  0.5469 -0.2565 -0.3007
14880TIP3    H166055   5.173   2.381  15.594  0.6083 -1.2033 -0.9150
14880TIP3    H266056   5.161   2.476  15.477  0.4797  0.3202  0.3201
14881TIP3   OH266057   0.892   5.309   6.232 -0.0559  0.2500  0.3400
14881TIP3    H166058   0.971   5.327   6.282  0.0369  1.3155 -0.1778
14881TIP3    H266059   0.842   5.248   6.287  0.9130 -0.0817  0.8631
14882TIP3   OH266060   0.456   5.749  15.551 -0.2495  0.2137  0.0650
14882TIP3    H166061   0.545   5.728  15.578 -0.0379 -0.7228 -1.3087
14882TIP3    H266062   0.400   5.703  15.613  0.2302 -0.0196  0.3202
14883TIP3   OH266063   6.415   6.231  15.868  0.6734 -0.2051 -0.3413
14883TIP3    H166064   6.504   6.264  15.874  1.5558 -2.5818 -0.0046
14883TIP3    H266065   6.375   6.255  15.952  1.8887 -1.6444  0.6669
14884TIP3   OH266066   5.885   2.638   1.071 -0.2211 -0.7015 -0.1470
14884TIP3    H166067   5.852   2.571   1.011 -1.3893  0.0034 -0.3017
14884TIP3    H266068   5.979   2.621   1.077 -0.4324 -2.0347 -0.5843
14885TIP3   OH266069   4.136   0.889  11.480  0.1768  0.4046  0.2296
14885TIP3    H166070   4.045   0.918  11.472 -1.1031 -3.1115  1.4383
14885TIP3    H266071   4.158   0.853  11.394  0.1141  0.3431  0.2398
14886TIP3   OH266072   1.646   1.433  16.887 -0.4407  1.3363  0.8289
14886TIP3    H166073   1.693   1.461  16.966 -1.7104  1.1265  1.6826
14886TIP3    H266074   1.570   1.386  16.920 -0.5310  0.4806 -0.5537
14887TIP3   OH266075   0.170   5.310   0.689  0.0870  0.1227 -0.1448
14887TIP3    H166076   0.078   5.337   0.681 -0.0236 -0.3000 -0.3367
14887TIP3    H266077   0.188   5.314   0.782  0.0556  0.8054 -0.1648
14888TIP3   OH266078   1.564   6.640  11.496 -0.3539  0.0974 -0.0180
14888TIP3    H166079   1.596   6.592  11.420 -0.0195 -1.2003  0.9321
14888TIP3    H266080   1.590   6.587  11.571 -3.1525 -0.0772  0.8784
14889TIP3   OH266081   6.553   4.573   0.587  0.0889 -0.3555 -0.5187
14889TIP3    H166082   6.621   4.567   0.520 -1.4289  0.1303 -2.1359
14889TIP3    H266083   6.602   4.581   0.669  1.9875 -2.0635 -1.4285
14890TIP3   OH266084   5.089   1.389  12.242 -0.3833  0.1396 -0.3526
14890TIP3    H166085   5.183   1.382  12.223 -0.2728 -0.1798  0.2913
14890TIP3    H266086   5.056   1.299  12.234 -0.8871  0.4388 -1.8281
14891TIP3   OH266087   0.354   5.330   3.182  0.1703 -0.1859  0.1036
14891TIP3    H166088   0.366   5.396   3.250  1.6514 -0.3598  0.0242
14891TIP3    H266089   0.333   5.250   3.229  1.3329 -0.3378  0.3728
14892TIP3   OH266090   4.619   1.422  12.444  0.0669  0.0532  0.0818
14892TIP3    H166091   4.656   1.511  12.451 -0.7635  0.5025 -1.0715
14892TIP3    H266092   4.619   1.404  12.350  0.2470 -1.1877  0.3156
14893TIP3   OH266093   2.580   3.074   0.869  0.2055 -0.4879 -0.8101
14893TIP3    H166094   2.509   3.135   0.848  0.1881 -0.6063 -1.0946
14893TIP3    H266095   2.624   3.114   0.944 -1.0877 -1.1541  0.3339
14894TIP3   OH266096   3.290   4.969   5.502 -0.0365 -0.1115  0.8621
14894TIP3    H166097   3.312   4.884   5.542 -1.0577  0.1696  2.0398
14894TIP3    H266098   3.199   4.983   5.525 -0.2950  0.6252 -0.5985
14895TIP3   OH266099   5.673   5.584  15.645 -0.6186 -0.2164  0.1689
14895TIP3    H166100   5.673   5.567  15.740  0.4136  1.1180  0.4197
14895TIP3    H266101   5.580   5.592  15.623 -0.8076  1.4142  1.4405
14896TIP3   OH266102   4.546   2.846   0.141  0.4867  0.4811  0.3472
14896TIP3    H166103   4.522   2.855   0.048 -0.1586 -3.3193  0.0949
14896TIP3    H266104   4.561   2.936   0.169 -2.8709  2.0855 -2.5056
14897TIP3   OH266105   6.105   5.140   0.510 -0.5473  0.1634 -0.3650
14897TIP3    H166106   6.056   5.210   0.466 -1.0902  0.5498  0.8339
14897TIP3    H266107   6.046   5.065   0.507 -0.8185  0.3498  0.1926
14898TIP3   OH266108   2.505   1.231  17.226 -0.1767 -0.4439  0.1601
14898TIP3    H166109   2.543   1.269  17.146  0.0583  1.6922  1.2269
14898TIP3    H266110   2.468   1.147  17.198 -0.8809  0.6482 -2.3816
14899TIP3   OH266111   2.984   5.223  11.957 -0.0606 -0.3737 -0.2124
14899TIP3    H166112   2.910   5.237  11.897  0.0239  0.2988 -0.1651
14899TIP3    H266113   2.957   5.150  12.012 -0.6847 -0.1453 -0.2141
14900TIP3   OH266114   1.926   3.985   1.948  0.0171 -0.3894  0.4221
14900TIP3    H166115   1.983   4.024   2.014 -0.7326 -1.4488  1.7131
14900TIP3    H266116   1.838   4.015   1.972 -0.3144 -1.1679  0.1929
14901TIP3   OH266117   1.995   0.513  16.285  0.0181  0.4281 -0.4386
14901TIP3    H166118   2.053   0.466  16.225  1.0852  0.4709  0.5293
14901TIP3    H266119   1.953   0.443  16.336  1.3776  0.4839  0.7913
14902TIP3   OH266120   0.840   1.679   0.886  0.3205 -0.3749 -0.2164
14902TIP3    H166121   0.886   1.736   0.824  0.2671  0.8781  0.8606
14902TIP3    H266122   0.891   1.599   0.888 -0.2374 -0.8147 -2.6184
14903TIP3   OH266123   4.095   5.174  13.015  0.5844  0.1188 -0.3822
14903TIP3    H166124   4.110   5.227  13.093  0.8681 -1.1374  0.4347
14903TIP3    H266125   4.034   5.106  13.044  1.2677 -0.8016 -1.0641
14904TIP3   OH266126   1.880   2.575   4.487 -0.5319 -0.2365  0.5300
14904TIP3    H166127   1.972   2.570   4.461 -0.5011  1.7396  0.1791
14904TIP3    H266128   1.874   2.521   4.566  0.7360 -1.0427  0.0915
14905TIP3   OH266129   2.440   5.525   0.717  0.0186 -0.5616 -0.1490
14905TIP3    H166130   2.532   5.553   0.711  0.4397 -1.8136  0.1940
14905TIP3    H266131   2.390   5.597   0.679  1.0851  0.5093  0.4517
14906TIP3   OH266132   4.093   1.928   0.063  0.2577 -0.4103  0.0686
14906TIP3    H166133   4.007   1.918   0.104 -0.2809 -1.1795 -1.2132
14906TIP3    H266134   4.079   1.996  -0.004  0.8891  0.1608  0.5193
14907TIP3   OH266135   1.917   6.484   0.909 -0.0457  1.0703  0.0475
14907TIP3    H166136   1.992   6.510   0.855  0.0797 -2.7670 -1.8055
14907TIP3    H266137   1.843   6.483   0.848 -0.5034 -0.4579  0.6052
14908TIP3   OH266138   4.418   5.245   1.905 -0.2908 -0.6140 -0.1527
14908TIP3    H166139   4.386   5.157   1.927  1.1990 -0.8153  1.3206
14908TIP3    H266140   4.357   5.277   1.839 -1.6615 -2.2255  0.2951
14909TIP3   OH266141   3.859   2.463   4.448  0.3483  0.2123 -0.0702
14909TIP3    H166142   3.764   2.463   4.432  0.6563  0.7080 -2.1195
14909TIP3    H266143   3.878   2.375   4.479 -0.4522 -0.6826 -2.0006
14910TIP3   OH266144   3.375   2.627  16.898 -0.0670  0.3595 -0.7135
14910TIP3    H166145   3.383   2.573  16.820 -0.0049  0.2699 -0.6439
14910TIP3    H266146   3.411   2.573  16.969 -2.0658 -0.4036 -0.2400
14911TIP3   OH266147   1.578   2.071   1.565  0.2280 -0.3122  0.1885
14911TIP3    H166148   1.579   1.984   1.524  2.3573 -0.5685  0.7014
14911TIP3    H266149   1.486   2.096   1.567 -0.2808 -1.9941 -1.1721
14912TIP3   OH266150   6.769   0.186  16.265  0.0660  0.4625 -0.1688
14912TIP3    H166151   6.842   0.242  16.292 -0.6029  2.4394 -2.3115
14912TIP3    H266152   6.691   0.240  16.281 -0.6694 -0.2700 -1.2337
14913TIP3   OH266153   0.138   1.207   1.432 -1.0932  0.3096 -0.3808
14913TIP3    H166154   0.074   1.252   1.377 -1.7202 -0.3322 -0.1935
14913TIP3    H266155   0.091   1.188   1.513  0.0473  1.9000  0.6839
14914TIP3   OH266156   3.709   0.907  14.621  0.1823 -0.1863  0.1697
14914TIP3    H166157   3.769   0.914  14.695 -0.7949 -0.0967  0.9682
14914TIP3    H266158   3.669   0.820  14.631 -1.7001  0.7359  1.1355
14915TIP3   OH266159   2.805   3.283   2.032 -0.2053 -0.3275 -0.4912
14915TIP3    H166160   2.863   3.355   2.007 -1.7607  1.2131  0.2145
14915TIP3    H266161   2.719   3.323   2.040 -1.0521 -2.2183  0.2221
14916TIP3   OH266162   0.088   4.951  16.581  0.3742 -0.1317  0.2033
14916TIP3    H166163   0.096   5.045  16.566  1.3877 -0.4342 -1.2310
14916TIP3    H266164   0.165   4.913  16.539 -1.0667 -1.7841 -1.0281
14917TIP3   OH266165   2.825   4.811  11.133  0.1058  0.4765  0.1125
14917TIP3    H166166   2.729   4.807  11.124 -0.1367  1.7996  1.7479
14917TIP3    H266167   2.850   4.888  11.082  0.5905 -1.1309 -2.1531
14918TIP3   OH266168   5.347   3.160  11.917 -0.4471 -0.4372  0.0672
14918TIP3    H166169   5.442   3.152  11.925 -0.4488 -0.8212 -0.3258
14918TIP3    H266170   5.325   3.235  11.972  0.0551 -0.4958  0.3534
14919TIP3   OH266171   4.001   2.787   2.923  0.2528 -0.5683 -0.0363
14919TIP3    H166172   4.033   2.828   3.004 -1.1942  0.5188  0.0211
14919TIP3    H266173   3.996   2.860   2.861 -2.9701 -0.4856  0.2407
14920TIP3   OH266174   6.145   1.770  12.909  0.4661 -0.1312  0.2523
14920TIP3    H166175   6.179   1.698  12.962  1.5728 -0.7867 -1.3162
14920TIP3    H266176   6.052   1.751  12.899  1.0759 -2.3514 -1.6781
14921TIP3   OH266177   4.250   4.555   5.881 -0.1031  0.4978  0.2718
14921TIP3    H166178   4.329   4.582   5.927  0.1187 -0.2255  0.3105
14921TIP3    H266179   4.192   4.523   5.950  0.9002 -2.2706 -0.1010
14922TIP3   OH266180   4.577   2.829  14.518 -0.0618 -0.3790  0.3533
14922TIP3    H166181   4.517   2.830  14.443  0.5754 -0.2133 -0.1587
14922TIP3    H266182   4.654   2.782  14.486 -0.5624 -2.0425  1.5170
14923TIP3   OH266183   5.315   5.933   5.119 -0.3612 -0.2061 -0.2433
14923TIP3    H166184   5.301   5.964   5.029  0.4702 -1.2360 -0.7321
14923TIP3    H266185   5.245   5.869   5.134 -1.6249  1.3134  0.5057
14924TIP3   OH266186   6.573   1.396  15.949  0.3954  0.8032  0.0233
14924TIP3    H166187   6.549   1.322  15.895  1.2876  1.3520 -1.1336
14924TIP3    H266188   6.538   1.375  16.036 -0.8814 -0.1502 -0.7147
14925TIP3   OH266189   6.214   0.225  16.359  0.2359 -0.3282  0.0631
14925TIP3    H166190   6.172   0.283  16.295  0.4086  0.0467  0.2918
14925TIP3    H266191   6.304   0.217  16.329  0.2994 -0.2067  0.2194
14926TIP3   OH266192   2.957   6.146   3.870  0.0487 -0.0908  0.4965
14926TIP3    H166193   2.892   6.198   3.823  1.0397  1.0773  0.3769
14926TIP3    H266194   2.913   6.117   3.949 -1.1525 -0.7728 -0.4030
14927TIP3   OH266195   5.652   2.835   2.740  0.3607 -0.7393  0.0382
14927TIP3    H166196   5.559   2.846   2.760  0.3199 -0.4707 -0.2997
14927TIP3    H266197   5.667   2.741   2.746  0.4196 -0.6513  1.6773
14928TIP3   OH266198   6.137   2.732  11.764 -0.1493  0.3348  0.0179
14928TIP3    H166199   6.178   2.816  11.784  3.1965 -1.1715 -0.1116
14928TIP3    H266200   6.198   2.666  11.798 -2.8760 -2.0799  0.4939
14929TIP3   OH266201   2.010   3.615  13.001  0.2832 -0.4463 -0.2903
14929TIP3    H166202   2.046   3.529  12.981  0.1539 -0.1285 -1.9694
14929TIP3    H266203   2.071   3.652  13.066  1.8269 -0.7574 -1.5295
14930TIP3   OH266204   2.213   2.717  16.956 -0.0347 -0.1633 -0.0395
14930TIP3    H166205   2.179   2.767  16.883 -0.6291  1.3055  1.2144
14930TIP3    H266206   2.300   2.754  16.973  0.2235 -0.6975 -0.1859
14931TIP3   OH266207   1.133   0.087   4.772  0.0849  0.3576  0.4823
14931TIP3    H166208   1.127   0.102   4.866  1.2324 -0.4943  0.6907
14931TIP3    H266209   1.071   0.150   4.734 -1.6581 -0.4681  1.8999
14932TIP3   OH266210   6.479   6.191  10.901 -0.0405  0.1397  0.5172
14932TIP3    H166211   6.427   6.233  10.969  1.9367 -0.0723  2.1940
14932TIP3    H266212   6.559   6.163  10.945  1.1213 -0.3395 -1.8069
14933TIP3   OH266213   4.402   0.997  11.485 -0.5432  0.3329  0.1851
14933TIP3    H166214   4.312   0.964  11.480 -0.3899 -0.2922  1.5215
14933TIP3    H266215   4.442   0.948  11.557  0.7334  0.9373 -0.1022
14934TIP3   OH266216   2.400   1.489  15.252  0.1154 -0.0880 -0.1968
14934TIP3    H166217   2.489   1.504  15.284 -1.2422  3.8809  2.0437
14934TIP3    H266218   2.346   1.487  15.332 -1.9350 -1.6966 -1.5651
14935TIP3   OH266219   5.079   2.668   3.004 -0.1454 -0.4451 -0.4924
14935TIP3    H166220   5.099   2.738   2.942  2.4918  0.3424  1.1404
14935TIP3    H266221   5.018   2.611   2.957 -1.0202  2.0058 -2.4781
14936TIP3   OH266222   1.703   1.699  13.505 -0.6586 -0.5698  0.4587
14936TIP3    H166223   1.710   1.613  13.545 -0.4468 -0.1341  1.3666
14936TIP3    H266224   1.782   1.745  13.533 -0.6638 -0.1571 -0.2072
14937TIP3   OH266225   6.112   0.908  12.396  0.6402 -0.0688  0.1657
14937TIP3    H166226   6.155   0.907  12.482  0.3716 -0.9004  0.2938
14937TIP3    H266227   6.081   0.998  12.386  1.7447  0.3420  0.4008
14938TIP3   OH266228   4.715   1.299  17.102  0.3019 -0.4046  0.0697
14938TIP3    H166229   4.739   1.230  17.042 -0.0110 -1.4630  1.1409
14938TIP3    H266230   4.691   1.254  17.183  1.7279  1.0250  1.3366
14939TIP3   OH266231   2.224   0.247  14.228 -0.2862 -0.1723 -0.9997
14939TIP3    H166232   2.197   0.271  14.140  0.3351 -0.4901 -1.2774
14939TIP3    H266233   2.154   0.190  14.260 -1.0873  0.8800 -0.8482
14940TIP3   OH266234   3.283   6.783   5.027 -0.2148  0.3536 -0.6603
14940TIP3    H166235   3.240   6.841   5.090  0.3761  0.1450 -0.0578
14940TIP3    H266236   3.221   6.711   5.014 -0.0150 -0.0004  0.2848
14941TIP3   OH266237   5.412   1.126  15.131 -0.0399  0.4376 -0.1431
14941TIP3    H166238   5.507   1.134  15.142 -0.0552  0.8151 -0.2660
14941TIP3    H266239   5.390   1.041  15.170  0.7010 -0.8011 -2.3570
14942TIP3   OH266240   0.468   3.066  14.186 -0.0583  0.4680 -0.1275
14942TIP3    H166241   0.459   2.979  14.225 -1.2089 -0.1838 -1.7601
14942TIP3    H266242   0.383   3.107  14.197  0.1165  0.9260 -0.4485
14943TIP3   OH266243   0.677   4.549   0.007 -0.1833 -0.0061 -0.2963
14943TIP3    H166244   0.613   4.599  -0.043 -0.1139  0.7240  0.3366
14943TIP3    H266245   0.627   4.508   0.077 -0.3893 -1.5650 -1.3484
14944TIP3   OH266246   1.606   6.038   0.230 -0.1204  0.3698 -0.0251
14944TIP3    H166247   1.540   5.968   0.231  0.5692 -0.2920  0.6492
14944TIP3    H266248   1.688   5.993   0.209  0.4921  0.8128  1.2971
14945TIP3   OH266249   3.993   0.898  13.052 -0.1094 -0.1158 -0.0080
14945TIP3    H166250   4.040   0.841  13.113  0.8360 -0.9042 -1.4423
14945TIP3    H266251   4.048   0.900  12.974 -0.6609  1.8997 -0.3932
14946TIP3   OH266252   3.209   4.618  11.688 -0.1714  0.1747 -0.3703
14946TIP3    H166253   3.208   4.568  11.770 -0.0095 -1.0797 -1.1311
14946TIP3    H266254   3.302   4.629  11.667 -0.2292 -0.1824 -0.8078
14947TIP3   OH266255   1.925   5.224   6.330  0.1233 -1.1445 -0.0509
14947TIP3    H166256   1.872   5.145   6.343  1.8330 -2.3995 -0.4490
14947TIP3    H266257   2.009   5.203   6.371  1.2761 -0.3304 -1.9344
14948TIP3   OH266258   0.936   1.293  13.078 -0.0605  0.3599 -0.1114
14948TIP3    H166259   0.979   1.306  12.993 -0.3463  2.1755 -0.0030
14948TIP3    H266260   0.983   1.353  13.137 -0.5725 -0.1002  0.7674
14949TIP3   OH266261   6.247   1.736  12.338  0.3368 -0.6813  0.0870
14949TIP3    H166262   6.306   1.679  12.385  0.2313 -0.6021  0.3150
14949TIP3    H266263   6.245   1.817  12.389 -0.1327 -0.7603  0.1961
14950TIP3   OH266264   2.816   6.202   4.558  0.2454 -0.2914 -0.0155
14950TIP3    H166265   2.831   6.245   4.474 -0.4870 -2.1689 -1.1333
14950TIP3    H266266   2.725   6.222   4.579  0.0331 -0.9086 -0.3261
14951TIP3   OH266267   4.834   1.079   3.805 -0.0955 -0.8416  0.0818
14951TIP3    H166268   4.892   1.003   3.803  1.0665 -0.0034  1.3450
14951TIP3    H266269   4.855   1.123   3.887  0.2573  1.6338 -1.3063
14952TIP3   OH266270   2.008   3.201  14.545  0.5126  0.2482  0.2163
14952TIP3    H166271   1.954   3.167  14.617 -1.5875 -0.0191 -1.4292
14952TIP3    H266272   2.095   3.164  14.561 -0.1646 -0.6451  2.0399
14953TIP3   OH266273   1.407   1.154  15.696  0.2628 -0.1056  0.0847
14953TIP3    H166274   1.377   1.064  15.705  0.3936 -0.1385  0.1911
14953TIP3    H266275   1.394   1.175  15.604 -1.5104  0.3745  0.4338
14954TIP3   OH266276   6.147   2.176  16.116 -0.1816 -0.2506 -0.3167
14954TIP3    H166277   6.136   2.088  16.080  1.3336 -0.0670 -1.2592
14954TIP3    H266278   6.212   2.217  16.059 -0.4408  1.2771  0.4746
14955TIP3   OH266279   4.745   2.553   3.825  0.0559  0.4007  0.6649
14955TIP3    H166280   4.686   2.614   3.780  0.6120  1.0615  0.8171
14955TIP3    H266281   4.694   2.518   3.897 -0.5965 -0.0823 -0.0221
14956TIP3   OH266282   1.336   5.600  14.811  0.2018 -0.2045  0.9687
14956TIP3    H166283   1.407   5.597  14.875 -0.3933  1.6855  1.7350
14956TIP3    H266284   1.381   5.599  14.726  1.0249 -1.7640  1.3997
14957TIP3   OH266285   4.528   6.513   3.203 -0.5879 -0.0890 -0.7694
14957TIP3    H166286   4.560   6.475   3.285 -0.4727  0.1205 -0.7184
14957TIP3    H266287   4.534   6.441   3.139 -2.0240 -0.6992 -0.2641
14958TIP3   OH266288   5.800   4.310  16.550 -0.1167 -0.1324 -0.2668
14958TIP3    H166289   5.841   4.223  16.548 -0.0285 -0.0999  0.1567
14958TIP3    H266290   5.857   4.362  16.607 -1.5217 -0.4695  1.4778
14959TIP3   OH266291   4.697   3.081   2.290  0.4278  0.4802 -0.2268
14959TIP3    H166292   4.631   3.131   2.242 -0.7375 -0.3698  0.4681
14959TIP3    H266293   4.777   3.091   2.239 -0.2556  1.4718 -1.1142
14960TIP3   OH266294   4.310   5.488   6.282  0.0667  0.0110  0.2003
14960TIP3    H166295   4.368   5.424   6.323  0.3742  0.6827  0.8091
14960TIP3    H266296   4.273   5.537   6.355 -0.8596 -0.0580 -0.2138
14961TIP3   OH266297   4.294   2.353  12.221 -0.4232 -0.5979 -0.2221
14961TIP3    H166298   4.280   2.340  12.127  2.5317  0.2618 -0.8430
14961TIP3    H266299   4.236   2.425  12.245 -0.8707 -0.5301 -1.4874
14962TIP3   OH266300   3.257   0.125   1.590 -0.2806  0.8006 -0.1334
14962TIP3    H166301   3.302   0.104   1.671  0.9838  0.8848 -0.7888
14962TIP3    H266302   3.244   0.041   1.547  1.0228  0.9301 -0.8301
14963TIP3   OH266303   1.810   1.938   4.593 -0.3052  0.5610 -0.0675
14963TIP3    H166304   1.833   1.915   4.503  0.2026  1.9269 -0.2970
14963TIP3    H266305   1.878   1.897   4.646 -0.4950 -0.0803 -0.3192
14964TIP3   OH266306   6.537   6.655  13.330  0.0372 -0.3682  0.2516
14964TIP3    H166307   6.505   6.710  13.259  1.7272 -1.2476 -1.2313
14964TIP3    H266308   6.482   6.576  13.327 -1.4500  0.5958  1.4727
14965TIP3   OH266309   1.914   5.040  13.831  0.6077  0.1616  0.5572
14965TIP3    H166310   1.819   5.046  13.820  0.6783 -1.8105 -1.5870
14965TIP3    H266311   1.928   5.054  13.924 -1.6323  2.0993  0.6559
14966TIP3   OH266312   2.525   6.503   0.121  0.2181  0.4236 -0.3148
14966TIP3    H166313   2.607   6.466   0.152 -0.0130 -2.1061 -2.5630
14966TIP3    H266314   2.547   6.590   0.091  1.6689  0.4946  0.9023
14967TIP3   OH266315   3.240   1.764  16.222  0.0926 -0.3888 -0.2169
14967TIP3    H166316   3.216   1.698  16.158  2.1795 -0.0364 -1.4090
14967TIP3    H266317   3.284   1.832  16.171 -0.0294  0.8622  1.3046
14968TIP3   OH266318   4.579   0.433   3.115 -0.0919  0.2052 -0.2017
14968TIP3    H166319   4.508   0.454   3.175 -1.6315 -1.0188 -1.5493
14968TIP3    H266320   4.617   0.519   3.092  0.0097  0.7279  1.8678
14969TIP3   OH266321   1.042   1.154   0.823 -0.1811 -0.0106 -0.5484
14969TIP3    H166322   0.988   1.114   0.755 -2.4939 -0.5852  1.5439
14969TIP3    H266323   1.059   1.082   0.885  1.9864  0.4706 -0.5596
14970TIP3   OH266324   6.038   6.348  15.244 -0.9066  0.2129 -0.5207
14970TIP3    H166325   6.036   6.366  15.338 -0.1038 -0.3753 -0.3847
14970TIP3    H266326   6.064   6.431  15.204 -2.9355  0.9590 -0.3774
14971TIP3   OH266327   4.537   3.024   3.574 -0.7531  0.0420  0.4878
14971TIP3    H166328   4.625   2.991   3.594 -0.4512  0.3891 -0.2310
14971TIP3    H266329   4.516   3.083   3.647 -0.9653 -1.1126  1.3640
14972TIP3   OH266330   2.225   2.662   4.667  0.6486 -0.0939  0.9236
14972TIP3    H166331   2.204   2.605   4.741  0.0225  0.7537  1.4063
14972TIP3    H266332   2.163   2.735   4.674  0.7529  0.1235 -0.2904
14973TIP3   OH266333   6.732   6.780   2.513  0.2569 -0.0672  0.4492
14973TIP3    H166334   6.814   6.751   2.474 -0.8023 -2.1640 -0.2755
14973TIP3    H266335   6.755   6.805   2.602  1.6861 -0.5118  0.2134
14974TIP3   OH266336   1.511   4.501  15.134 -0.5478  0.0124 -0.1633
14974TIP3    H166337   1.569   4.538  15.200 -1.4238 -1.1957  1.2972
14974TIP3    H266338   1.536   4.546  15.053  1.0994  0.8999  0.8096
14975TIP3   OH266339   4.613   2.456  10.718  0.4663  0.0775 -0.6281
14975TIP3    H166340   4.525   2.420  10.726  0.3778  0.6323  1.1202
14975TIP3    H266341   4.630   2.496  10.803  1.7897  1.3668 -1.4752
14976TIP3   OH266342   2.977   5.909  15.170 -0.0045  0.0071 -0.4127
14976TIP3    H166343   2.927   5.989  15.160 -1.1016 -0.8685 -2.2071
14976TIP3    H266344   2.916   5.847  15.211  0.5583 -0.1967  0.1395
14977TIP3   OH266345   6.280   2.088  11.940  0.1196 -0.0323 -0.3608
14977TIP3    H166346   6.208   2.100  12.002  1.0334 -1.1216  0.9379
14977TIP3    H266347   6.264   2.003  11.900  0.2401  0.0832 -0.6533
14978TIP3   OH266348   2.889   1.285   3.597 -0.1092  0.0549  0.4499
14978TIP3    H166349   2.824   1.239   3.544  0.0204  1.0492 -0.5930
14978TIP3    H266350   2.838   1.348   3.648  0.2795  2.7736 -2.4255
14979TIP3   OH266351   5.907   3.631  16.623  0.2998 -0.0206 -0.1186
14979TIP3    H166352   5.897   3.695  16.552  0.8539 -1.0544 -1.1345
14979TIP3    H266353   5.840   3.565  16.606 -0.6392  0.5576  1.2450
14980TIP3   OH266354   3.504   3.973   4.141  0.2854  0.2805  0.2802
14980TIP3    H166355   3.515   3.907   4.209 -0.3560 -0.0022  0.1109
14980TIP3    H266356   3.414   4.004   4.151  0.7062  1.4332  0.6294
14981TIP3   OH266357   6.111   0.681  16.427 -0.0907 -0.0112 -0.1141
14981TIP3    H166358   6.034   0.627  16.445 -0.0933  0.3050  0.8313
14981TIP3    H266359   6.184   0.619  16.427 -0.2111 -0.1538  0.0210
14982TIP3   OH266360   2.620   5.089  16.893  0.0096  0.3070  0.2926
14982TIP3    H166361   2.545   5.044  16.854  0.0851  0.2394  0.2229
14982TIP3    H266362   2.681   5.101  16.820  1.0546 -1.6922  0.7805
14983TIP3   OH266363   4.898   1.210   3.022  0.6213 -1.1087 -0.3481
14983TIP3    H166364   4.931   1.290   2.982 -1.2383 -0.4749 -0.6543
14983TIP3    H266365   4.883   1.234   3.113  1.2063 -1.4634 -0.1551
14984TIP3   OH266366   0.300   3.777   4.667 -0.3899  0.3430 -0.1599
14984TIP3    H166367   0.223   3.768   4.610 -1.0839  0.2013  0.7859
14984TIP3    H266368   0.341   3.859   4.639 -1.1905  0.6987 -0.3070
14985TIP3   OH266369   1.094   4.711   2.095  0.4709 -0.1132  0.5536
14985TIP3    H166370   1.169   4.680   2.144  1.8939  1.1800 -0.7511
14985TIP3    H266371   1.084   4.650   2.022  0.7644  0.1606  0.2799
14986TIP3   OH266372   6.492   4.451  14.666  0.1329 -0.2968 -0.2097
14986TIP3    H166373   6.526   4.415  14.583  1.8873  1.4754 -0.2752
14986TIP3    H266374   6.549   4.414  14.733  0.5037  0.5128 -0.0707
14987TIP3   OH266375   5.094   4.767   1.373 -0.3458 -0.4971 -0.0650
14987TIP3    H166376   5.177   4.785   1.329 -1.2069  1.5694 -0.9531
14987TIP3    H266377   5.117   4.755   1.465  0.9382  0.2210 -0.2825
14988TIP3   OH266378   4.327   4.522   2.773  0.1255 -0.3037 -0.2790
14988TIP3    H166379   4.419   4.507   2.754 -0.1319 -1.3030 -0.7860
14988TIP3    H266380   4.324   4.607   2.816  1.1808  0.1663 -1.1250
14989TIP3   OH266381   4.617   2.525  14.467  0.2690  0.0063 -0.1562
14989TIP3    H166382   4.527   2.539  14.436  0.6599  0.6874 -1.0048
14989TIP3    H266383   4.672   2.562  14.398  1.2074 -0.4496  0.3417
14990TIP3   OH266384   5.377   0.777   2.018 -0.0810  0.1236  0.4643
14990TIP3    H166385   5.386   0.726   1.937 -0.0373 -1.0448  1.1898
14990TIP3    H266386   5.467   0.791   2.048 -0.0274  1.6981 -0.3666
14991TIP3   OH266387   5.727   0.861  13.673  0.4349 -0.3190 -0.2579
14991TIP3    H166388   5.716   0.943  13.626 -0.7883 -0.2588  0.1125
14991TIP3    H266389   5.813   0.829  13.646  0.6314  0.7457 -0.9185
14992TIP3   OH266390   4.631   6.516   4.606  0.4048  0.5448  0.9443
14992TIP3    H166391   4.653   6.438   4.658 -0.2937 -0.0580  0.3567
14992TIP3    H266392   4.575   6.567   4.663  0.7834  0.5699  1.2988
14993TIP3   OH266393   0.815   2.884   2.446  0.0685  0.1993 -0.0421
14993TIP3    H166394   0.845   2.794   2.460  0.3401  0.1210 -1.1208
14993TIP3    H266395   0.724   2.875   2.419 -0.8659  0.4198  2.8921
14994TIP3   OH266396   3.328   4.870   0.854 -0.2329  0.6528  0.4918
14994TIP3    H166397   3.293   4.801   0.798  1.0578  0.1814  0.2470
14994TIP3    H266398   3.260   4.885   0.920 -1.2023  0.2874 -0.4230
14995TIP3   OH266399   2.862   1.076  10.780 -0.2268  0.6909 -0.2028
14995TIP3    H166400   2.853   1.023  10.859  1.4203  1.7120  0.6935
14995TIP3    H266401   2.804   1.150  10.794  0.2190  0.9759  0.1474
14996TIP3   OH266402   0.959   3.062  16.174 -0.4698 -0.0403  0.3837
14996TIP3    H166403   0.870   3.089  16.150 -0.8897 -2.0361 -0.4399
14996TIP3    H266404   1.016   3.117  16.120 -1.2539  0.1263 -0.2898
14997TIP3   OH266405   4.169   3.605  16.573 -0.3218 -0.0655  0.6799
14997TIP3    H166406   4.166   3.684  16.628 -1.7169 -0.3625  1.0706
14997TIP3    H266407   4.108   3.545  16.616 -0.2225 -0.8834 -0.3199
14998TIP3   OH266408   2.426   5.592  13.396 -0.1375 -0.1915  0.2262
14998TIP3    H166409   2.433   5.604  13.301 -0.4778  0.3334  0.2657
14998TIP3    H266410   2.334   5.607  13.415  0.0897  0.5349  0.7579
14999TIP3   OH266411   5.786   3.254  16.374  0.7709 -0.5936  0.3374
14999TIP3    H166412   5.784   3.330  16.315  3.1029 -1.3808 -0.7897
14999TIP3    H266413   5.713   3.199  16.344  0.8207 -0.1283 -0.6752
15000TIP3   OH266414   0.886   5.513   4.959  0.1845  0.3300 -0.0299
15000TIP3    H166415   0.951   5.443   4.964 -2.4130 -2.2394 -1.3600
15000TIP3    H266416   0.841   5.499   4.876 -2.0629  2.0670  0.8393
15001TIP3   OH266417   3.703   3.871   0.072  0.6342 -0.3884 -0.3990
15001TIP3    H166418   3.608   3.883   0.060  1.1577  1.4587 -3.1502
15001TIP3    H266419   3.714   3.860   0.167 -1.8792  3.8669  0.5326
15002TIP3   OH266420   0.513   5.306   4.952  0.1296 -0.0250 -0.1257
15002TIP3    H166421   0.556   5.356   5.023  0.5366  0.3202 -0.6069
15002TIP3    H266422   0.575   5.236   4.931  0.7217  0.7970 -1.1933
15003TIP3   OH266423   2.584   3.273   0.585 -0.5230  0.0260 -0.6337
15003TIP3    H166424   2.658   3.330   0.565 -0.3642  0.1102  0.1943
15003TIP3    H266425   2.514   3.304   0.527 -0.1978  0.5597 -0.7427
15004TIP3   OH266426   1.232   0.047   1.821  0.1786  0.0069  0.2483
15004TIP3    H166427   1.258  -0.000   1.900  0.8709 -0.2809 -0.1531
15004TIP3    H266428   1.242  -0.017   1.751 -2.1055 -0.2839  0.1463
15005TIP3   OH266429   3.441   2.723   3.802 -0.5570  0.4415  0.1805
15005TIP3    H166430   3.459   2.815   3.781  1.7714  0.2399  1.0210
15005TIP3    H266431   3.508   2.674   3.754 -2.3281 -0.9059 -0.9535
15006TIP3   OH266432   1.249   2.333   0.085 -0.1136  0.2794 -0.0716
15006TIP3    H166433   1.274   2.425   0.079 -0.8293  0.4635 -0.3108
15006TIP3    H266434   1.159   2.334   0.117  0.2727 -0.3818  1.0687
15007TIP3   OH266435   1.647   1.376  10.896 -0.7356 -0.0200  0.1543
15007TIP3    H166436   1.711   1.316  10.857 -1.8171 -1.8361  1.0976
15007TIP3    H266437   1.648   1.452  10.838  1.2253 -0.6094 -0.6542
15008TIP3   OH266438   3.444   4.401   3.815 -0.0259 -0.4478  0.3630
15008TIP3    H166439   3.383   4.334   3.845 -0.8873 -0.1195 -0.6031
15008TIP3    H266440   3.528   4.375   3.850 -0.6399 -1.1830  1.3095
15009TIP3   OH266441   4.958   5.307   1.695 -0.4488 -0.7063  0.3053
15009TIP3    H166442   4.989   5.216   1.688 -1.5677 -0.9489 -2.0540
15009TIP3    H266443   4.884   5.312   1.635  0.1792  2.0272 -0.3324
15010TIP3   OH266444   6.250   4.668   6.131  0.3561 -0.4082 -0.5584
15010TIP3    H166445   6.167   4.652   6.085  0.5274  1.2600 -1.4813
15010TIP3    H266446   6.232   4.643   6.222 -1.2533  0.2050 -0.6891
15011TIP3   OH266447   2.241   0.101   0.023  0.5940 -0.5644 -0.0708
15011TIP3    H166448   2.250   0.032  -0.043  2.3528  0.7891 -1.3099
15011TIP3    H266449   2.178   0.163  -0.015 -1.4012 -1.7223  1.2776
15012TIP3   OH266450   3.037   3.872  11.966 -0.3775  0.2116 -0.2876
15012TIP3    H166451   3.127   3.841  11.957 -0.1068  1.2011 -1.0432
15012TIP3    H266452   3.009   3.891  11.877 -1.2472  0.1928 -0.0282
15013TIP3   OH266453   5.027   5.434   6.119 -0.4741 -0.0498 -0.6800
15013TIP3    H166454   4.955   5.476   6.167 -0.2821 -1.9849  1.3790
15013TIP3    H266455   5.092   5.503   6.107 -1.4585  1.0032 -0.0581
15014TIP3   OH266456   5.271   0.572  13.400 -0.6498 -0.3656  0.1164
15014TIP3    H166457   5.357   0.611  13.417  0.1518 -2.2472  0.4758
15014TIP3    H266458   5.266   0.566  13.304 -1.1039  1.2951  0.0220
15015TIP3   OH266459   3.124   4.193   3.164  0.2739 -0.5185  0.1057
15015TIP3    H166460   3.073   4.264   3.125  0.2376 -0.6147 -0.0184
15015TIP3    H266461   3.179   4.237   3.229 -0.0712 -0.4315  0.3428
15016TIP3   OH266462   3.944   1.674   2.812  0.2934 -0.4426  0.2890
15016TIP3    H166463   3.958   1.589   2.855  0.8676 -0.6110 -0.2191
15016TIP3    H266464   3.985   1.665   2.726  0.9315  0.5542  0.4687
15017TIP3   OH266465   4.764   4.124   0.211  0.4768 -0.3477  0.0811
15017TIP3    H166466   4.851   4.085   0.201  0.8361  0.9324 -2.3779
15017TIP3    H266467   4.778   4.201   0.266  0.8363 -0.3355 -0.0259
15018TIP3   OH266468   1.586   1.079  15.427 -0.0929 -0.3861 -0.2395
15018TIP3    H166469   1.638   1.147  15.470 -0.2742  0.1541 -0.8590
15018TIP3    H266470   1.632   1.062  15.345 -0.9655  0.2100 -0.8657
15019TIP3   OH266471   0.688   1.617  14.117 -0.2108 -0.2386  0.0720
15019TIP3    H166472   0.768   1.668  14.106  0.5102 -1.4347 -0.3056
15019TIP3    H266473   0.617   1.680  14.104  0.6464  0.3188 -2.1953
15020TIP3   OH266474   3.442   4.874  15.797 -0.4202 -0.7089  0.2460
15020TIP3    H166475   3.371   4.936  15.815 -0.7353 -1.0794  0.2786
15020TIP3    H266476   3.401   4.806  15.743 -0.1010 -0.9455  0.3008
15021TIP3   OH266477   1.013   6.678  14.629  0.1660 -0.1394 -0.5709
15021TIP3    H166478   0.926   6.637  14.632  0.0631 -0.0103 -1.5002
15021TIP3    H266479   1.062   6.636  14.700 -0.0320 -1.6798 -1.3048
15022TIP3   OH266480   0.154   1.044  14.430 -0.0637 -0.7686 -0.2511
15022TIP3    H166481   0.245   1.054  14.458  0.3579 -1.4289 -1.3564
15022TIP3    H266482   0.105   1.030  14.511  0.8572 -0.6934  0.3236
15023TIP3   OH266483   1.669   4.637   5.250 -0.3191  0.4553 -0.7506
15023TIP3    H166484   1.753   4.607   5.284 -1.4178  0.0608  1.7121
15023TIP3    H266485   1.675   4.733   5.254 -0.2705  0.4183  0.1522
15024TIP3   OH266486   3.527   2.202  14.928  0.1653  0.5318 -0.0351
15024TIP3    H166487   3.595   2.262  14.898 -0.6507  0.8024 -1.4115
15024TIP3    H266488   3.533   2.127  14.869  0.0703  0.0052  0.6095
15025TIP3   OH266489   0.694   5.688  16.968  0.3018 -0.8134  0.3950
15025TIP3    H166490   0.666   5.599  16.949  0.4520 -0.8626  0.4036
15025TIP3    H266491   0.738   5.682  17.053  2.7932 -1.2418 -0.8919
15026TIP3   OH266492   6.426   0.664  10.828  0.4519 -0.3587  0.0318
15026TIP3    H166493   6.389   0.694  10.746  0.7784 -1.5334 -0.5565
15026TIP3    H266494   6.518   0.647  10.808  0.4710 -0.9096  0.5717
15027TIP3   OH266495   5.904   0.496  16.809  0.4961 -0.1692 -0.1410
15027TIP3    H166496   5.903   0.549  16.889 -1.5405  0.0426 -0.2784
15027TIP3    H266497   5.930   0.409  16.837 -0.9963 -0.2959  0.9220
15028TIP3   OH266498   2.019   5.724  13.175  0.1255  0.1844  0.4186
15028TIP3    H166499   2.062   5.672  13.242  0.1951  0.1380  0.3383
15028TIP3    H266500   1.945   5.670  13.146  0.1824  0.1402  0.3539
15029TIP3   OH266501   5.669   3.689  16.340 -0.1890  0.1937  0.1955
15029TIP3    H166502   5.621   3.644  16.410  1.4776  0.5533  1.6152
15029TIP3    H266503   5.644   3.781  16.350 -0.7758  0.0957 -0.3692
15030TIP3   OH266504   6.215   1.645  13.996 -0.5130  0.0960  0.2783
15030TIP3    H166505   6.262   1.566  13.970 -0.1177  0.1611  0.7944
15030TIP3    H266506   6.183   1.682  13.913  0.2948  0.0223 -0.0712
15031TIP3   OH266507   3.535   4.948  11.471  0.1476 -0.3308  0.0673
15031TIP3    H166508   3.580   4.893  11.406 -0.5316  0.2422 -0.8991
15031TIP3    H266509   3.572   5.035  11.457 -1.8086  0.3121 -1.2753
15032TIP3   OH266510   3.216   2.727  11.277  0.1166  0.0603  0.4858
15032TIP3    H166511   3.289   2.675  11.309  0.5728  1.0121  1.0091
15032TIP3    H266512   3.168   2.668  11.218  1.5214 -0.4444 -0.1561
15033TIP3   OH266513   3.128   0.520  11.862 -0.2490 -0.1955  0.7436
15033TIP3    H166514   3.165   0.448  11.912  0.0699 -0.3782  0.2461
15033TIP3    H266515   3.091   0.579  11.928  1.1136  0.0925  1.2487
15034TIP3   OH266516   2.881   5.117  10.535 -0.1718  0.2905  0.9144
15034TIP3    H166517   2.942   5.082  10.469 -0.9470 -0.6962  0.7042
15034TIP3    H266518   2.922   5.095  10.619 -0.9572 -1.7496  0.7968
15035TIP3   OH266519   1.393   2.955  15.268  0.1221  0.0391 -0.1235
15035TIP3    H166520   1.401   2.971  15.362  0.7343 -0.5537 -0.0750
15035TIP3    H266521   1.316   2.898  15.260  2.0516 -2.6856  0.3316
15036TIP3   OH266522   5.784   4.038  16.637  0.1174 -0.3282  0.4334
15036TIP3    H166523   5.859   3.979  16.641  0.7717  0.4225 -0.4457
15036TIP3    H266524   5.708   3.980  16.630  0.8169 -1.0673 -1.4129
15037TIP3   OH266525   4.614   5.998  13.905 -0.0752 -0.1418 -0.3488
15037TIP3    H166526   4.670   6.075  13.908 -1.9600  1.2560  0.2821
15037TIP3    H266527   4.654   5.937  13.966  1.0078  0.6487 -0.2540
15038TIP3   OH266528   1.385   4.269  15.512 -0.0321  0.5382 -0.0262
15038TIP3    H166529   1.333   4.311  15.443 -0.5396  1.8630  1.1355
15038TIP3    H266530   1.464   4.238  15.467 -0.9399  0.2338 -1.4354
15039TIP3   OH266531   2.001   1.110   2.267 -0.0708 -0.1686  0.1018
15039TIP3    H166532   2.000   1.144   2.178 -0.3471 -1.3687 -0.3628
15039TIP3    H266533   1.918   1.138   2.304 -0.8755 -1.4136 -0.7081
15040TIP3   OH266534   5.548   1.934  17.009 -0.2723  0.1774 -0.0915
15040TIP3    H166535   5.575   1.953  17.099  0.7494  0.4275 -0.4450
15040TIP3    H266536   5.526   2.020  16.972  1.2611  0.3254 -0.6983
15041TIP3   OH266537   5.876   3.757   1.042  0.2409  0.8221  0.3904
15041TIP3    H166538   5.857   3.833   1.098  1.6173  1.7406 -0.3694
15041TIP3    H266539   5.870   3.791   0.953 -0.1887 -0.2255  0.0166
15042TIP3   OH266540   0.906   2.241   1.116  0.6773  0.2930 -0.1912
15042TIP3    H166541   0.882   2.150   1.131  3.4112 -0.1543  1.8580
15042TIP3    H266542   0.831   2.291   1.150 -0.5219 -1.1257 -0.6676
15043TIP3   OH266543   1.867   6.014  11.351 -0.8456 -0.2353 -0.4233
15043TIP3    H166544   1.791   6.061  11.317 -1.2396 -1.1722 -0.8585
15043TIP3    H266545   1.942   6.067  11.323 -1.2330 -0.3173 -1.6582
15044TIP3   OH266546   3.643   5.872   2.042  0.3310  0.2008  0.0997
15044TIP3    H166547   3.548   5.868   2.048  0.3768 -0.5202  0.3611
15044TIP3    H266548   3.661   5.867   1.948  0.1533 -0.6039  0.1098
15045TIP3   OH266549   5.585   3.805   0.421  0.0356 -0.5187 -0.7265
15045TIP3    H166550   5.677   3.780   0.418  0.3703  0.8088 -2.2033
15045TIP3    H266551   5.552   3.783   0.334 -1.0305 -0.9502 -0.2163
15046TIP3   OH266552   4.632   0.910   2.101  0.0080  0.2910  0.2011
15046TIP3    H166553   4.640   0.919   2.006  0.2337 -0.3412  0.1520
15046TIP3    H266554   4.638   0.815   2.116 -0.4426  0.3572  0.8087
15047TIP3   OH266555   2.651   4.864   4.076  0.3075  0.0237  0.1565
15047TIP3    H166556   2.736   4.900   4.052  0.0746 -1.0796 -2.5627
15047TIP3    H266557   2.614   4.927   4.137  3.1305  0.4284  1.5257
15048TIP3   OH266558   2.999   2.564  16.024 -0.5479  0.3023  0.0381
15048TIP3    H166559   2.980   2.561  16.118 -0.7651  0.3888 -0.0017
15048TIP3    H266560   2.935   2.505  15.985  0.1669 -0.4929  0.0457
15049TIP3   OH266561   6.287   1.495  15.470 -0.3015 -0.4036 -0.0397
15049TIP3    H166562   6.234   1.572  15.451 -1.4213 -1.1770 -0.0966
15049TIP3    H266563   6.377   1.526  15.462 -0.7191  1.1921  1.1039
15050TIP3   OH266564   0.411   2.730   2.953 -0.0029 -0.2958  0.3801
15050TIP3    H166565   0.480   2.736   2.886 -2.0998  0.9801 -1.7530
15050TIP3    H266566   0.375   2.642   2.941 -0.8276  0.1705 -0.6812
15051TIP3   OH266567   3.658   6.380  12.705  0.3798 -0.3802  0.5947
15051TIP3    H166568   3.747   6.367  12.737 -0.5070 -0.2958  3.2090
15051TIP3    H266569   3.616   6.295  12.713  0.2538 -0.4758 -0.8472
15052TIP3   OH266570   1.682   3.546   1.963  0.0224 -0.1159 -0.5068
15052TIP3    H166571   1.755   3.605   1.984  0.6399  0.4682 -3.8686
15052TIP3    H266572   1.719   3.458   1.969  0.7061  0.1303 -1.0072
15053TIP3   OH266573   5.652   5.104  14.354 -0.0460  0.1348 -0.6425
15053TIP3    H166574   5.699   5.183  14.380 -1.3039  0.8055 -0.3301
15053TIP3    H266575   5.719   5.045  14.321  1.1564  0.5651  0.9928
15054TIP3   OH266576   3.167   2.883  14.762 -0.3814  0.3221 -0.2775
15054TIP3    H166577   3.224   2.853  14.691 -1.7682 -1.7346 -0.5737
15054TIP3    H266578   3.196   2.972  14.780  2.4775 -0.4309 -0.8570
15055TIP3   OH266579   3.130   4.143   2.656  0.3397  0.1450 -0.1303
15055TIP3    H166580   3.218   4.133   2.691  0.3978 -0.3665 -0.4190
15055TIP3    H266581   3.097   4.223   2.697  0.4316 -0.3962  1.0178
15056TIP3   OH266582   3.995   1.988  11.670  0.6260  0.2414  0.0676
15056TIP3    H166583   3.977   1.896  11.690  1.2298 -0.0524 -0.7223
15056TIP3    H266584   4.091   1.995  11.675  0.4605  1.3835  2.5195
15057TIP3   OH266585   0.048   2.110  14.549  0.0503  0.5058 -0.2241
15057TIP3    H166586   0.093   2.176  14.602  0.7350  0.8642 -1.2476
15057TIP3    H266587   0.094   2.028  14.568  0.5922  0.7182 -0.6203
15058TIP3   OH266588   3.059   3.217   2.863 -0.5100 -0.5632  0.0588
15058TIP3    H166589   3.103   3.157   2.804 -0.4996 -1.8171  1.3119
15058TIP3    H266590   3.105   3.300   2.853  0.9587 -1.3805  0.0216
15059TIP3   OH266591   0.392   6.087   3.505 -0.4785  0.4195 -0.5484
15059TIP3    H166592   0.414   6.153   3.571 -0.0781  0.5492 -0.8123
15059TIP3    H266593   0.475   6.045   3.484 -1.1181 -2.1737  1.7513
15060TIP3   OH266594   0.012   5.482   0.391  0.3495 -0.3356 -0.4335
15060TIP3    H166595   0.001   5.441   0.478 -0.0276 -0.9501 -0.7642
15060TIP3    H266596   0.103   5.509   0.389 -0.1260  1.4559  0.9182
15061TIP3   OH266597   3.901   1.767  16.870  0.2185 -0.2426 -0.5336
15061TIP3    H166598   3.879   1.824  16.944  1.1359 -0.5065 -0.0385
15061TIP3    H266599   3.868   1.812  16.793  0.7445  0.8617 -0.1238
15062TIP3   OH266600   5.182   0.982  14.976  0.1241 -0.1881  0.2300
15062TIP3    H166601   5.265   0.956  15.014 -0.2055  0.3062  1.3296
15062TIP3    H266602   5.143   1.040  15.042 -0.8510 -0.0012 -0.4961
15063TIP3   OH266603   6.516   4.106  12.226 -0.7177  0.0242 -0.3368
15063TIP3    H166604   6.445   4.055  12.187 -1.5813 -0.3155  1.6093
15063TIP3    H266605   6.484   4.196  12.229 -0.5051  0.1159 -0.7190
15064TIP3   OH266606   4.587   4.564   3.926  0.5443  0.2428  0.2354
15064TIP3    H166607   4.676   4.531   3.923  0.2985 -0.3755 -0.5397
15064TIP3    H266608   4.567   4.571   4.020  0.2336 -2.8936  0.4487
15065TIP3   OH266609   5.015   5.945   3.673  0.1295  0.4475  0.4925
15065TIP3    H166610   4.955   5.931   3.746 -1.1983 -0.4451 -0.7363
15065TIP3    H266611   4.967   6.004   3.614  1.6978  2.2147  0.9238
15066TIP3   OH266612   3.953   4.994   0.006  1.1064  0.1572  0.4178
15066TIP3    H166613   3.861   5.017  -0.006  1.4590  0.4714 -2.0132
15066TIP3    H266614   3.952   4.918   0.065 -0.5961  1.0706  1.5817
15067TIP3   OH266615   6.741   3.918   3.674  0.1049  0.2885 -0.0819
15067TIP3    H166616   6.817   3.908   3.732 -0.1170  0.4289  0.2377
15067TIP3    H266617   6.764   3.989   3.615  0.1677  0.4211  0.1024
15068TIP3   OH266618   0.593   2.719  16.039  0.2455 -0.4481  0.2817
15068TIP3    H166619   0.548   2.802  16.019  0.2786 -0.2664  0.9509
15068TIP3    H266620   0.676   2.746  16.079  0.0780 -0.8118  0.8759
15069TIP3   OH266621   1.567   2.080   1.229  0.6276  0.2191  0.0125
15069TIP3    H166622   1.512   2.154   1.254 -1.1577 -0.2240 -2.4084
15069TIP3    H266623   1.646   2.120   1.192  1.2435  0.8707  1.9870
15070TIP3   OH266624   1.967   2.536   0.327 -0.4914  0.1603  0.0584
15070TIP3    H166625   1.972   2.575   0.414 -0.8286  0.5741 -0.1045
15070TIP3    H266626   2.058   2.516   0.305 -0.4162 -0.0526  0.5507
15071TIP3   OH266627   0.475   2.966  12.293 -0.5184 -0.0803  0.4170
15071TIP3    H166628   0.561   2.926  12.288 -0.9815 -1.1348  0.6232
15071TIP3    H266629   0.481   3.027  12.366 -0.0649 -0.4450  0.6865
15072TIP3   OH266630   1.668   0.992   0.263 -0.7803  0.1902 -0.0236
15072TIP3    H166631   1.672   0.935   0.339  2.9506 -0.2327 -0.4469
15072TIP3    H266632   1.707   0.941   0.192 -1.8814  1.4931 -1.6287
15073TIP3   OH266633   1.811   1.935  13.851 -0.1100 -0.7955 -0.6186
15073TIP3    H166634   1.723   1.944  13.813  0.4964  0.2574 -1.8054
15073TIP3    H266635   1.824   2.017  13.898  0.8885 -0.2492 -1.8290
15074TIP3   OH266636   1.049   0.921  13.421  0.0154  0.1684 -0.0244
15074TIP3    H166637   1.106   0.877  13.358 -0.7061  0.4377 -0.8815
15074TIP3    H266638   1.061   0.872  13.503  1.0301 -0.1274 -0.3406
15075TIP3   OH266639   3.872   1.183   4.020 -0.2439 -0.6328 -0.3894
15075TIP3    H166640   3.929   1.144   4.087  2.3557  2.2241 -0.8558
15075TIP3    H266641   3.922   1.175   3.939 -1.0033  0.8963 -1.0079
15076TIP3   OH266642   3.396   4.271   2.744 -0.4310 -0.0528 -0.3417
15076TIP3    H166643   3.440   4.354   2.725  1.0965 -0.2006  2.2615
15076TIP3    H266644   3.375   4.275   2.837 -1.1529 -2.2171 -0.3683
15077TIP3   OH266645   0.795   1.402  12.180  0.2769 -0.1855  0.0067
15077TIP3    H166646   0.774   1.410  12.086 -2.2098  1.0285  0.6250
15077TIP3    H266647   0.885   1.369  12.181  0.8964  1.2203 -2.8119
15078TIP3   OH266648   2.608   3.926   4.607 -0.3328 -0.0884 -0.5473
15078TIP3    H166649   2.662   3.975   4.545  0.8060 -0.0573  0.4440
15078TIP3    H266650   2.671   3.871   4.655 -1.0864  0.4493  1.0977
15079TIP3   OH266651   0.708   6.349  16.312  0.2556 -0.3613  0.2380
15079TIP3    H166652   0.751   6.273  16.273  1.2485  0.5051 -0.3926
15079TIP3    H266653   0.674   6.398  16.238 -1.3467 -0.7403  0.7039
15080TIP3   OH266654   4.597   6.419  11.231 -0.2495 -0.5547 -0.1892
15080TIP3    H166655   4.559   6.467  11.304  0.7429  1.7065 -1.0972
15080TIP3    H266656   4.683   6.460  11.218  0.4499 -2.3009 -1.3006
15081TIP3   OH266657   4.879   2.675  10.968 -0.6143  0.0585  0.2762
15081TIP3    H166658   4.884   2.730  11.046  3.1653  0.2842 -0.0614
15081TIP3    H266659   4.922   2.593  10.993 -2.4279 -1.2021 -0.5568
15082TIP3   OH266660   0.226   0.881   0.446  0.5023 -0.1135  0.1035
15082TIP3    H166661   0.191   0.812   0.502  1.2928 -0.7040 -0.1193
15082TIP3    H266662   0.200   0.857   0.358 -2.2722  1.7448  0.3499
15083TIP3   OH266663   5.383   5.887   2.828  0.0902  0.0942 -0.1085
15083TIP3    H166664   5.383   5.963   2.887  1.9776  0.5680 -0.6880
15083TIP3    H266665   5.346   5.920   2.746  1.1907  0.4781 -0.4570
15084TIP3   OH266666   3.911   1.743   0.436 -0.2399  0.4905  0.0605
15084TIP3    H166667   3.896   1.654   0.466 -1.1473  0.8174  0.5994
15084TIP3    H266668   4.006   1.750   0.427 -0.3474 -1.5309 -3.1383
15085TIP3   OH266669   4.488   4.359   1.129  0.2483  0.7053 -0.3236
15085TIP3    H166670   4.447   4.375   1.044  1.0085 -0.1668 -0.8641
15085TIP3    H266671   4.557   4.295   1.111  0.0554  0.0859  1.0515
15086TIP3   OH266672   3.109   3.028  10.798 -0.6734 -0.2742 -0.0106
15086TIP3    H166673   3.189   3.073  10.824 -1.0281  0.5584 -0.3705
15086TIP3    H266674   3.050   3.038  10.872 -0.4026 -1.0022  0.3083
15087TIP3   OH266675   3.216   0.327  13.979 -0.1240  0.1539  0.3982
15087TIP3    H166676   3.183   0.412  14.008  0.7917  0.1917  1.3541
15087TIP3    H266677   3.148   0.265  14.006 -0.3545  0.4709  0.5562
15088TIP3   OH266678   1.868   6.020  17.152  0.1451 -0.0885 -0.1565
15088TIP3    H166679   1.945   5.987  17.108 -0.3155 -2.9341  1.0760
15088TIP3    H266680   1.794   5.978  17.108 -0.4845 -0.4309  1.1936
15089TIP3   OH266681   4.887   5.244  12.856 -0.3071 -0.1236 -0.9598
15089TIP3    H166682   4.952   5.307  12.825 -0.4462  0.6500  0.2717
15089TIP3    H266683   4.810   5.298  12.876 -0.8670 -0.8573 -1.1160
15090TIP3   OH266684   2.875   6.179  14.207  0.1527  0.1177 -0.1341
15090TIP3    H166685   2.841   6.162  14.119 -2.2154  2.2567  0.2935
15090TIP3    H266686   2.943   6.245  14.195  0.0934  0.1299 -0.4047
15091TIP3   OH266687   2.086   2.256   2.026  0.1323  0.3100  0.2138
15091TIP3    H166688   2.137   2.331   2.059  1.4725 -0.7206  0.5454
15091TIP3    H266689   2.112   2.248   1.934 -0.0812  0.3151  0.1537
15092TIP3   OH266690   3.299   5.240  15.245 -0.3498 -0.3325 -0.1425
15092TIP3    H166691   3.264   5.320  15.283 -0.4303 -0.6264  0.4181
15092TIP3    H266692   3.394   5.249  15.252 -0.3446 -0.0933 -0.4937
15093TIP3   OH266693   2.527   3.042   3.646 -0.2301  0.0987 -0.1524
15093TIP3    H166694   2.470   3.034   3.570  1.1070 -0.4969 -1.1235
15093TIP3    H266695   2.607   3.083   3.611  0.3658 -0.1139  0.9350
15094TIP3   OH266696   3.139   4.827   1.257  0.1718 -0.1490  0.1620
15094TIP3    H166697   3.076   4.801   1.324  0.7946 -0.0365  0.7900
15094TIP3    H266698   3.218   4.851   1.305  0.4854  0.3438 -0.5818
15095TIP3   OH266699   3.548   5.058   3.888  0.2137  0.4862 -0.6523
15095TIP3    H166700   3.543   5.079   3.981  3.4319  3.1506 -0.9885
15095TIP3    H266701   3.570   4.964   3.886  0.2920  0.4425  1.2631
15096TIP3   OH266702   3.706   1.731   1.615  0.0616  0.1803  0.0439
15096TIP3    H166703   3.650   1.799   1.653 -0.6868  1.1923 -2.7117
15096TIP3    H266704   3.665   1.649   1.641 -1.1663  0.8719  0.3344
15097TIP3   OH266705   4.725   2.978  11.010  0.6995  0.5628 -0.1962
15097TIP3    H166706   4.634   2.996  11.035 -0.0887 -1.1946 -1.7081
15097TIP3    H266707   4.718   2.916  10.937  3.1334 -0.0651  0.0690
15098TIP3   OH266708   3.096   1.784  14.392 -0.3745  0.3548  0.4212
15098TIP3    H166709   3.013   1.826  14.367 -0.1144  0.0664 -0.9206
15098TIP3    H266710   3.155   1.801  14.319  0.5924  0.0766  1.1288
15099TIP3   OH266711   6.756   2.430  13.179 -0.0402 -0.1483  0.0511
15099TIP3    H166712   6.756   2.390  13.092  0.9768  0.6710 -0.3297
15099TIP3    H266713   6.680   2.488  13.179  1.3019  1.6830 -1.1649
15100TIP3   OH266714   3.593   3.529   5.976 -0.2045  0.3954  0.0543
15100TIP3    H166715   3.510   3.484   5.994 -0.9189  1.5140 -0.3545
15100TIP3    H266716   3.640   3.471   5.916  0.3595 -1.3689  2.1558
15101TIP3   OH266717   6.627   1.580  12.839  0.3142 -0.5384 -0.7200
15101TIP3    H166718   6.626   1.647  12.908 -0.2762 -0.0619 -1.1877
15101TIP3    H266719   6.611   1.629  12.759 -0.7450 -1.3297 -0.9945
15102TIP3   OH266720   4.509   1.659   5.444  0.2047  0.0718 -0.1721
15102TIP3    H166721   4.567   1.644   5.518  1.5369 -1.1831 -1.4469
15102TIP3    H266722   4.450   1.583   5.444 -0.3215  0.4790  0.0885
15103TIP3   OH266723   5.309   5.042   5.403 -0.2704 -0.5672  0.1078
15103TIP3    H166724   5.355   5.080   5.328 -1.7392  1.8504  0.3732
15103TIP3    H266725   5.236   4.994   5.364 -1.8455  1.8281 -0.0291
15104TIP3   OH266726   0.853   4.657   5.392  0.0491  0.0125  0.2866
15104TIP3    H166727   0.835   4.742   5.351 -1.1637 -0.6029 -0.4855
15104TIP3    H266728   0.942   4.635   5.363 -1.0569 -0.7861 -2.7597
15105TIP3   OH266729   3.868   5.271  14.349  0.6022  0.5586  1.0247
15105TIP3    H166730   3.806   5.302  14.416  1.5034  0.4670  1.9257
15105TIP3    H266731   3.829   5.191  14.315  0.1305  0.6028  1.4549
15106TIP3   OH266732   1.113   5.988   6.015  0.4337 -0.2578  0.0301
15106TIP3    H166733   1.104   5.901   5.976 -0.5148  0.3858 -1.2272
15106TIP3    H266734   1.129   5.970   6.108 -1.4431 -1.7842  0.1213
15107TIP3   OH266735   0.750   5.336   4.564  0.2923  0.0456  0.8924
15107TIP3    H166736   0.660   5.332   4.533  0.5506  0.2362  0.1108
15107TIP3    H266737   0.803   5.333   4.484  0.9720  0.0649  1.3411
15108TIP3   OH266738   4.430   5.635   1.480 -0.3403  0.0885 -0.2030
15108TIP3    H166739   4.463   5.697   1.544 -1.9971 -0.0957  0.8601
15108TIP3    H266740   4.415   5.554   1.529  0.9687 -0.9006 -1.3952
15109TIP3   OH266741   2.146   1.355   4.075 -0.0496  0.1008  0.2815
15109TIP3    H166742   2.060   1.327   4.044  0.3348  0.1106 -0.8244
15109TIP3    H266743   2.175   1.283   4.132 -0.1501 -0.6035 -0.5422
15110TIP3   OH266744   4.645   3.542   5.604 -0.4709  0.3405  0.0868
15110TIP3    H166745   4.676   3.452   5.614 -0.8202  0.2866  0.7774
15110TIP3    H266746   4.655   3.561   5.511 -2.7117 -1.2655 -0.5211
15111TIP3   OH266747   5.360   5.295   4.544  0.1767  0.1484  0.0458
15111TIP3    H166748   5.385   5.225   4.604  1.4973  0.7977  0.2742
15111TIP3    H266749   5.264   5.296   4.545  0.1339 -2.0534 -0.4269
15112TIP3   OH266750   5.622   3.308  13.036  0.3686 -0.2805  0.0390
15112TIP3    H166751   5.643   3.216  13.051 -1.1589 -0.7885 -0.7276
15112TIP3    H266752   5.597   3.341  13.122 -1.1662 -1.1803 -0.0336
15113TIP3   OH266753   6.548   6.381   3.818 -0.3867 -0.0207 -0.3879
15113TIP3    H166754   6.483   6.323   3.778  0.7920 -2.1294  0.7147
15113TIP3    H266755   6.597   6.325   3.879  1.9645  1.6908 -0.6306
15114TIP3   OH266756   2.754   0.629  16.859  0.5749  0.6198  0.6513
15114TIP3    H166757   2.718   0.564  16.920 -1.4552  1.8535  0.8234
15114TIP3    H266758   2.824   0.582  16.813  0.1146 -1.2506  1.7794
15115TIP3   OH266759   1.526   4.947   4.603  0.1655 -0.7321 -0.3124
15115TIP3    H166760   1.450   4.922   4.655  0.7570  0.2266  1.0268
15115TIP3    H266761   1.491   4.960   4.515 -0.8513 -2.3103 -0.1712
15116TIP3   OH266762   1.393   4.893   5.097 -0.1447  0.2677 -0.4264
15116TIP3    H166763   1.338   4.968   5.121 -1.1065 -0.8117  0.8661
15116TIP3    H266764   1.447   4.924   5.024  1.3880  3.0510  1.7989
15117TIP3   OH266765   4.274   2.329   3.389 -0.0322  0.7874  0.3172
15117TIP3    H166766   4.195   2.298   3.345 -0.7209  1.4566  1.0620
15117TIP3    H266767   4.286   2.268   3.463 -0.1987  1.0475  0.5598
15118TIP3   OH266768   4.745   3.415   2.215 -0.1294  0.0292  0.3961
15118TIP3    H166769   4.680   3.372   2.160 -0.2885  0.0184  0.5942
15118TIP3    H266770   4.743   3.507   2.187 -0.1808  0.0160  0.3572
15119TIP3   OH266771   0.793   5.972  13.056 -0.3130  0.0519  0.0573
15119TIP3    H166772   0.809   5.913  13.129  3.0012 -0.5719 -1.1118
15119TIP3    H266773   0.846   6.050  13.076  0.0790  0.1523 -1.3441
15120TIP3   OH266774   4.925   0.805  16.414 -0.1653  0.3134  0.6776
15120TIP3    H166775   4.975   0.841  16.488 -0.0213  0.2283  0.6199
15120TIP3    H266776   4.991   0.785  16.348 -0.5406  2.8906 -0.5235
15121TIP3   OH266777   1.300   4.013  15.945 -0.5444  0.5488  0.3219
15121TIP3    H166778   1.243   4.057  16.008 -1.3039  0.4779 -0.3058
15121TIP3    H266779   1.308   4.074  15.872  1.7438  1.3577  1.2175
15122TIP3   OH266780   4.605   2.000  11.328  0.0362 -0.2053  0.1281
15122TIP3    H166781   4.598   1.949  11.409 -1.8509 -0.7134 -0.3324
15122TIP3    H266782   4.611   1.935  11.259  1.4854  0.2307 -0.1818
15123TIP3   OH266783   6.520   2.895  12.183  0.1463  0.6387  1.1855
15123TIP3    H166784   6.607   2.908  12.145 -0.4107 -0.2848 -0.4409
15123TIP3    H266785   6.504   2.975  12.234  1.1911  1.6235  0.0091
15124TIP3   OH266786   5.100   6.504   3.160 -0.0642 -0.0751  0.0934
15124TIP3    H166787   5.023   6.465   3.201 -0.5597  1.3060  0.5345
15124TIP3    H266788   5.165   6.508   3.230  0.8851 -2.4705 -0.6277
15125TIP3   OH266789   5.922   0.413  13.257  0.0956  0.3009 -0.2798
15125TIP3    H166790   5.829   0.395  13.244  0.2359  0.0763 -1.0049
15125TIP3    H266791   5.961   0.399  13.171  0.4558  2.6494 -0.5309
15126TIP3   OH266792   6.535   2.582  12.668  0.0562 -0.2378 -0.3250
15126TIP3    H166793   6.591   2.504  12.664 -1.0279 -0.9576 -2.4361
15126TIP3    H266794   6.573   2.642  12.604 -0.0034  0.3713  0.2047
15127TIP3   OH266795   6.365   6.200   5.061 -0.4603  0.2213 -0.0261
15127TIP3    H166796   6.322   6.169   4.982 -1.5302 -1.0473  1.0083
15127TIP3    H266797   6.293   6.230   5.117  0.0034 -1.3506  1.4815
15128TIP3   OH266798   2.263   0.760  15.107 -0.1287 -0.6678 -0.2467
15128TIP3    H166799   2.341   0.815  15.119 -0.3401 -0.0346 -1.6491
15128TIP3    H266800   2.201   0.793  15.172  1.0630 -1.7629  1.4865
15129TIP3   OH266801   1.136   0.732   5.312  0.3657 -0.0027  0.2832
15129TIP3    H166802   1.225   0.761   5.329  0.1212  0.2028  1.2584
15129TIP3    H266803   1.082   0.809   5.330  0.1524  0.5129 -2.3758
15130TIP3   OH266804   3.591   5.393  16.329 -0.1555 -0.0261 -0.4994
15130TIP3    H166805   3.600   5.299  16.314  1.9600 -0.1701  1.4247
15130TIP3    H266806   3.669   5.431  16.289 -0.5326  0.8195 -0.4430
15131TIP3   OH266807   6.231   2.282  13.512 -0.6669  0.1205  0.1320
15131TIP3    H166808   6.234   2.372  13.542  1.1822  0.3568 -0.7367
15131TIP3    H266809   6.228   2.288  13.417  1.5100 -0.7523 -0.0108
15132TIP3   OH266810   4.785   0.676   2.372  0.1939 -0.2754  0.2819
15132TIP3    H166811   4.722   0.727   2.423  0.9302  2.0827 -1.0911
15132TIP3    H266812   4.741   0.592   2.357 -2.1471  0.8897  0.3569
15133TIP3   OH266813   5.276   4.419  13.691  0.7198 -0.3131  0.0560
15133TIP3    H166814   5.333   4.462  13.755  0.9525 -1.3403  0.5549
15133TIP3    H266815   5.194   4.405  13.737  0.5450 -0.1285 -0.2002
15134TIP3   OH266816   1.531   0.671  12.764  0.0277  0.2178  0.2588
15134TIP3    H166817   1.440   0.693  12.745  0.1436  0.4677  0.0009
15134TIP3    H266818   1.534   0.662  12.859 -0.1773  0.6022  0.3018
15135TIP3   OH266819   4.413   5.576   4.587 -0.7829  0.5203 -0.1132
15135TIP3    H166820   4.360   5.656   4.598 -0.8495  0.2959  1.3203
15135TIP3    H266821   4.454   5.563   4.672 -1.4309 -1.4505 -0.0713
15136TIP3   OH266822   2.163   0.392   1.399 -0.1880 -0.7775  0.4331
15136TIP3    H166823   2.229   0.384   1.330 -0.9378  0.9181 -0.4995
15136TIP3    H266824   2.172   0.482   1.431  0.4404 -1.6626  2.8663
15137TIP3   OH266825   6.205   3.836   4.646  0.0090  0.3476  0.1803
15137TIP3    H166826   6.291   3.859   4.610 -0.1586  0.9038  0.1375
15137TIP3    H266827   6.206   3.740   4.649  0.9347  0.3731  0.9284
15138TIP3   OH266828   5.667   2.096  13.502 -0.1373 -0.2035 -0.1461
15138TIP3    H166829   5.613   2.061  13.573 -1.3994 -0.9843 -1.4706
15138TIP3    H266830   5.652   2.036  13.429  2.8938 -0.7008 -0.4135
15139TIP3   OH266831   4.120   0.844  12.469 -0.2056  0.1634  0.5230
15139TIP3    H166832   4.050   0.890  12.422  1.7533  0.5783 -2.0845
15139TIP3    H266833   4.086   0.755  12.481 -0.7837  0.0507 -1.7058
15140TIP3   OH266834   5.664   3.763  13.757  0.2732  0.1676 -0.5462
15140TIP3    H166835   5.629   3.809  13.681  1.4109  1.4582 -0.3009
15140TIP3    H266836   5.609   3.792  13.830 -0.3243 -0.4772 -0.7287
15141TIP3   OH266837   5.601   3.337   6.415 -0.5510 -0.2888 -0.1668
15141TIP3    H166838   5.665   3.332   6.344  1.5499  0.6978  1.6177
15141TIP3    H266839   5.581   3.431   6.421 -1.2342 -0.4536  0.1111
15142TIP3   OH266840   2.974   5.744   1.098 -0.4154 -0.4803 -0.0630
15142TIP3    H166841   3.010   5.831   1.082  1.8347 -1.3491  0.1466
15142TIP3    H266842   3.002   5.723   1.187 -0.8494 -1.4891 -0.1617
15143TIP3   OH266843   1.389   1.722   5.411  0.3089  0.4821 -0.0803
15143TIP3    H166844   1.400   1.692   5.501  2.2165 -0.6613 -0.6467
15143TIP3    H266845   1.416   1.814   5.412 -0.3299  0.6629  0.6403
15144TIP3   OH266846   5.794   3.686  11.801  0.1241 -0.2000  0.5304
15144TIP3    H166847   5.874   3.732  11.828 -0.3465  0.1356  1.4014
15144TIP3    H266848   5.760   3.738  11.728 -0.5318  0.9986  1.6675
15145TIP3   OH266849   5.703   5.652   1.925 -0.3907 -0.7437  0.4617
15145TIP3    H166850   5.608   5.643   1.929 -0.5878  0.8701 -0.3334
15145TIP3    H266851   5.719   5.708   1.849  1.2294 -1.4402  0.2650
15146TIP3   OH266852   1.060   5.479   0.670 -0.2391 -0.4670  0.6378
15146TIP3    H166853   1.034   5.550   0.730  0.1966  1.3182 -1.2395
15146TIP3    H266854   1.154   5.492   0.658 -0.2341 -1.1407 -0.0229
15147TIP3   OH266855   4.066   4.219   1.734  0.6441  0.4112  0.6181
15147TIP3    H166856   4.107   4.171   1.661  0.0232 -0.0852  0.5917
15147TIP3    H266857   3.973   4.223   1.710  0.8480  2.5672  0.0945
15148TIP3   OH266858   3.201   3.039  15.294 -0.5348 -0.5232  0.2637
15148TIP3    H166859   3.283   3.048  15.343 -1.3277  0.2314  1.4725
15148TIP3    H266860   3.205   2.951  15.257  1.4859  0.0387 -0.9085
15149TIP3   OH266861   1.485   1.470   2.364  0.0037  0.1817 -0.2440
15149TIP3    H166862   1.398   1.432   2.367 -0.3250  0.9743  0.3943
15149TIP3    H266863   1.485   1.522   2.284  0.0217 -0.1217 -0.4427
15150TIP3   OH266864   0.022   5.222   0.098  0.2898 -0.0875  0.0034
15150TIP3    H166865   0.032   5.142   0.046 -0.7910 -1.5247  1.9733
15150TIP3    H266866  -0.042   5.274   0.049  0.0174 -0.9882 -0.6138
15151TIP3   OH266867   1.120   1.760  14.852  0.1630 -0.3038 -0.3330
15151TIP3    H166868   1.209   1.743  14.821 -0.8235 -2.0366 -2.2890
15151TIP3    H266869   1.129   1.765  14.947  2.4315  0.0998 -0.5393
15152TIP3   OH266870   1.774   3.476   5.598  0.1797 -0.4306 -0.4678
15152TIP3    H166871   1.702   3.419   5.626 -0.3677  1.3236  1.8753
15152TIP3    H266872   1.851   3.420   5.601 -0.3409 -1.0951  1.7998
15153TIP3   OH266873   1.641   6.081   4.043 -0.3440 -0.0195 -1.1628
15153TIP3    H166874   1.652   6.023   3.968  1.4761  0.0335 -0.9601
15153TIP3    H266875   1.711   6.147   4.033 -0.4572  0.3354  0.2471
15154TIP3   OH266876   3.786   3.547   1.859 -0.0948  0.1926 -0.2016
15154TIP3    H166877   3.848   3.614   1.828  1.0416 -0.5810  0.3696
15154TIP3    H266878   3.823   3.464   1.830 -1.3127 -0.2222 -0.5875
15155TIP3   OH266879   6.100   4.487  12.748  0.0863 -0.0602 -0.0743
15155TIP3    H166880   6.044   4.443  12.812  1.3931 -0.7923  0.5766
15155TIP3    H266881   6.128   4.417  12.689  0.8830  0.1787  0.0147
15156TIP3   OH266882   4.896   2.908   3.163 -0.0159 -0.2890 -0.2863
15156TIP3    H166883   4.889   2.970   3.091 -2.8146 -1.2796 -0.9307
15156TIP3    H266884   4.846   2.832   3.135  0.2994 -1.4005  1.9871
15157TIP3   OH266885   0.236   3.640   1.015 -0.4170 -0.0346 -0.2351
15157TIP3    H166886   0.296   3.586   0.963 -1.0265 -2.5073  1.5400
15157TIP3    H266887   0.293   3.682   1.080 -0.0716  0.7850 -1.0500
15158TIP3   OH266888   6.347   4.262   3.820 -0.0259 -0.0987 -0.5500
15158TIP3    H166889   6.330   4.192   3.882  0.9497  0.2081  0.0753
15158TIP3    H266890   6.395   4.328   3.870 -0.2157  0.6563 -1.3394
15159TIP3   OH266891   5.928   3.150   3.508 -0.6763 -0.6166 -0.7255
15159TIP3    H166892   5.925   3.126   3.415 -0.4687 -0.9340 -0.6481
15159TIP3    H266893   5.998   3.097   3.544 -1.4468 -1.2643 -0.1578
15160TIP3   OH266894   4.594   6.582   1.709  0.7006 -0.2145 -0.4611
15160TIP3    H166895   4.683   6.598   1.739  0.4950 -2.9503  1.8146
15160TIP3    H266896   4.538   6.634   1.767  0.4559 -3.7159  2.6081
15161TIP3   OH266897   3.659   0.095   0.732  0.1719 -0.1737 -0.1830
15161TIP3    H166898   3.706   0.045   0.665  2.2928 -0.1407  1.2270
15161TIP3    H266899   3.719   0.166   0.755 -1.1006  0.5997  0.7747
15162TIP3   OH266900   2.480   2.780  16.856 -0.1099  0.0150  0.6171
15162TIP3    H166901   2.532   2.762  16.778 -0.5792 -3.4869  1.0363
15162TIP3    H266902   2.521   2.857  16.895  0.2382  1.7419 -2.9351
15163TIP3   OH266903   1.147   1.031   2.269  0.7430  0.3066  0.3691
15163TIP3    H166904   1.229   1.071   2.298  1.9095 -1.8772  0.2021
15163TIP3    H266905   1.110   0.991   2.348  0.9883 -0.6695 -0.0107
15164TIP3   OH266906   6.377   3.384  15.426  0.2329 -0.4308  0.5636
15164TIP3    H166907   6.426   3.371  15.345 -1.5598 -1.8669 -0.3382
15164TIP3    H266908   6.385   3.478  15.445  2.7005 -0.5259  0.0715
15165TIP3   OH266909   5.633   5.902   4.140  0.3372  0.4160  0.4275
15165TIP3    H166910   5.728   5.910   4.126  0.2800 -1.0026 -0.8492
15165TIP3    H266911   5.625   5.878   4.233  1.2156  0.7854  0.6047
15166TIP3   OH266912   4.336   0.206  11.356  0.8648 -0.1815  0.0332
15166TIP3    H166913   4.286   0.189  11.276  0.1828 -1.0811  0.6435
15166TIP3    H266914   4.306   0.140  11.418  1.5644  0.3580  0.9653
15167TIP3   OH266915   6.600   0.191  12.838 -0.3334  0.0900  0.4501
15167TIP3    H166916   6.686   0.208  12.877  0.8662  0.0805 -2.1112
15167TIP3    H266917   6.563   0.278  12.823  0.7726  0.2204 -1.7168
15168TIP3   OH266918   5.431   0.620  16.611 -0.6114  0.1228  0.2786
15168TIP3    H166919   5.413   0.637  16.704  2.2298 -0.3879  0.9680
15168TIP3    H266920   5.438   0.706  16.571  1.6296  0.4322  1.2773
15169TIP3   OH266921   5.457   5.196  15.540  0.6057 -0.0213 -0.0484
15169TIP3    H166922   5.467   5.102  15.523  1.0947  0.4149 -2.4507
15169TIP3    H266923   5.540   5.223  15.579  0.6234 -0.5095  0.2462
15170TIP3   OH266924   5.784   4.132  12.272 -0.3698 -0.4587 -0.5874
15170TIP3    H166925   5.783   4.193  12.198 -1.4879 -0.8732 -0.9243
15170TIP3    H266926   5.859   4.159  12.325 -0.2924  0.6088 -1.2354
15171TIP3   OH266927   6.419   1.776   4.114  0.0133 -0.0146 -0.2009
15171TIP3    H166928   6.393   1.779   4.022 -0.7355 -0.2986 -0.0073
15171TIP3    H266929   6.439   1.867   4.136 -2.2535  0.4625  0.0201
15172TIP3   OH266930   6.302   3.880   3.566 -0.3301  0.0441  0.0879
15172TIP3    H166931   6.321   3.803   3.512  0.5622 -0.5409  1.2161
15172TIP3    H266932   6.206   3.882   3.572 -0.3388 -1.3885  0.6013
15173TIP3   OH266933   5.927   3.359   0.751  0.1247  0.1440  0.3094
15173TIP3    H166934   5.868   3.326   0.818  1.5752  0.4638  1.7793
15173TIP3    H266935   5.901   3.313   0.671 -3.1202  1.4182  0.5412
15174TIP3   OH266936   0.313   5.164  13.782 -0.1461 -0.1942  0.0984
15174TIP3    H166937   0.356   5.142  13.700 -2.0199  0.4378 -1.0753
15174TIP3    H266938   0.354   5.246  13.810  0.1778 -0.1770 -0.4378
15175TIP3   OH266939   4.056   6.614   4.800 -0.2477  0.4976 -0.1157
15175TIP3    H166940   4.026   6.528   4.830  1.0052  0.4003  0.9567
15175TIP3    H266941   4.042   6.614   4.706 -2.0757 -0.1308  0.1393
15176TIP3   OH266942   3.952   0.140   3.002  0.1346 -0.3204 -0.4308
15176TIP3    H166943   3.982   0.053   3.031  1.0030  0.0816 -0.1019
15176TIP3    H266944   3.858   0.139   3.018  0.6092 -0.0331  2.6869
15177TIP3   OH266945   0.186   0.947   4.321  0.3965  0.0262  0.0799
15177TIP3    H166946   0.143   1.009   4.380  0.9873  0.2698  0.2645
15177TIP3    H266947   0.217   1.001   4.248 -1.7185 -0.5066 -1.2642
15178TIP3   OH266948   2.203   5.097  13.908  0.1286 -0.3009  0.2584
15178TIP3    H166949   2.294   5.089  13.939 -0.0479 -1.2333  0.5624
15178TIP3    H266950   2.151   5.104  13.987 -0.1279 -0.5459  0.1133
15179TIP3   OH266951   6.786   6.084   2.231 -0.1737  0.0124 -0.7169
15179TIP3    H166952   6.713   6.146   2.235 -0.3728 -0.2496 -0.2350
15179TIP3    H266953   6.744   5.999   2.218  0.0130 -0.2205  0.2288
15180TIP3   OH266954   0.498   1.159   5.275 -0.4369  0.3133 -0.3952
15180TIP3    H166955   0.451   1.122   5.349 -1.4516 -2.2186 -2.2096
15180TIP3    H266956   0.587   1.126   5.284 -0.4696  0.3008 -0.1162
15181TIP3   OH266957   6.111   3.126   3.128  0.0668 -0.2428  0.1563
15181TIP3    H166958   6.023   3.106   3.158 -0.5956  2.9150  0.4556
15181TIP3    H266959   6.123   3.219   3.145  2.6737 -0.1178 -1.8556
15182TIP3   OH266960   6.499   5.204   5.765  0.0261  0.5316  0.2013
15182TIP3    H166961   6.485   5.278   5.825  2.1247  0.0538  1.3626
15182TIP3    H266962   6.441   5.135   5.796 -1.8185  1.6205 -0.7840
15183TIP3   OH266963   2.579   5.787  14.391 -0.1150  0.0972 -0.3418
15183TIP3    H166964   2.607   5.862  14.339 -0.0122  1.2346  1.2918
15183TIP3    H266965   2.611   5.807  14.479 -1.5199 -1.0825  0.4469
15184TIP3   OH266966   6.525   1.229  15.670 -0.4081 -0.7706  0.0985
15184TIP3    H166967   6.584   1.172  15.621  0.7126 -0.6032  1.2266
15184TIP3    H266968   6.484   1.171  15.734  1.3532 -0.2055  1.8053
15185TIP3   OH266969   3.083   2.468   0.403 -0.4823  0.0959  0.1976
15185TIP3    H166970   3.062   2.413   0.478  0.0057 -1.9008 -1.0695
15185TIP3    H266971   3.172   2.498   0.419 -0.2859 -0.5355  0.3048
15186TIP3   OH266972   4.021   5.734   4.497 -0.5023 -0.1442  0.5576
15186TIP3    H166973   4.107   5.762   4.529 -0.7712 -0.5416  1.6531
15186TIP3    H266974   4.040   5.678   4.422  0.1972 -0.1860  0.7616
15187TIP3   OH266975   5.018   0.438   1.886  0.4306 -0.2432 -0.4421
15187TIP3    H166976   5.097   0.429   1.939  0.4735  1.0036 -0.2667
15187TIP3    H266977   4.968   0.507   1.930  0.4989  0.8548 -2.0451
15188TIP3   OH266978   5.745   0.508   4.284  0.7478  0.0933 -0.5008
15188TIP3    H166979   5.675   0.454   4.321  1.9698 -1.5480 -0.5162
15188TIP3    H266980   5.727   0.511   4.191  0.1122  0.5587 -0.3628
15189TIP3   OH266981   5.899   0.681  12.369  0.0359 -0.1625 -0.6597
15189TIP3    H166982   5.982   0.727  12.353  2.1176 -3.2093  0.9247
15189TIP3    H266983   5.868   0.717  12.453  1.5469 -1.4178  0.4655
15190TIP3   OH266984   3.178   5.116  12.424 -0.7784  0.9395 -0.3718
15190TIP3    H166985   3.121   5.159  12.361 -0.2354  2.0400 -0.1197
15190TIP3    H266986   3.198   5.183  12.489  0.1880  0.3502 -0.0415
15191TIP3   OH266987   2.571   3.482  15.430 -0.3437 -0.0269 -0.5115
15191TIP3    H166988   2.496   3.424  15.446  0.5555 -1.5065 -1.5064
15191TIP3    H266989   2.627   3.470  15.507 -1.8695  2.3380  1.0250
15192TIP3   OH266990   3.703   5.068   3.518  0.0336 -0.4753 -0.0745
15192TIP3    H166991   3.766   5.005   3.554 -0.9532 -0.4588  1.7402
15192TIP3    H266992   3.684   5.127   3.591 -0.9204  0.4352 -1.0517
15193TIP3   OH266993   2.702   3.717   4.309  0.5215 -0.2883  0.0195
15193TIP3    H166994   2.643   3.643   4.322  0.6844 -0.6055 -1.0079
15193TIP3    H266995   2.788   3.678   4.296  0.2531 -0.0828 -2.8300
15194TIP3   OH266996   4.826   3.881   4.602  0.4528 -0.2437 -0.2474
15194TIP3    H166997   4.903   3.937   4.607 -0.0873  0.4261  1.2279
15194TIP3    H266998   4.793   3.892   4.513  0.8256  1.1840 -0.2202
15195TIP3   OH266999   6.300   2.738  14.188 -0.3831 -0.1892  0.0916
15195TIP3    H167000   6.294   2.695  14.273 -0.0549  0.3403  0.3842
15195TIP3    H267001   6.357   2.814  14.203 -0.3970 -0.0430 -0.5755
15196TIP3   OH267002   4.381   3.022   1.087  0.1220 -0.0360 -0.4196
15196TIP3    H167003   4.348   3.101   1.130  0.7651  0.8193 -1.4834
15196TIP3    H267004   4.338   3.021   1.002  2.0512  0.5742 -1.4347
15197TIP3   OH267005   0.968   1.858   2.015  0.6468 -0.6128 -0.1659
15197TIP3    H167006   1.059   1.853   1.985  1.3045  0.5776  1.5714
15197TIP3    H267007   0.973   1.902   2.099 -1.6879  0.6417 -0.6467
15198TIP3   OH267008   2.994   6.441  14.191 -0.1762 -0.5917 -0.7050
15198TIP3    H167009   3.047   6.382  14.244  0.1177  0.2487 -0.0516
15198TIP3    H267010   3.010   6.528  14.229 -1.2102 -0.1990 -1.1670
15199TIP3   OH267011   1.978   5.279  16.611 -0.4643  0.1265  0.4519
15199TIP3    H167012   2.043   5.350  16.611 -1.2231  0.8589 -1.4250
15199TIP3    H267013   1.976   5.248  16.701 -0.0648  2.4516  1.2868
15200TIP3   OH267014   2.858   0.843   5.603  0.2681 -0.0607 -0.4871
15200TIP3    H167015   2.852   0.807   5.514 -0.8501  2.5155 -1.5214
15200TIP3    H267016   2.950   0.834   5.626  0.2828 -2.2653 -1.2176
15201TIP3   OH267017   1.898   5.408  15.017  0.1331 -0.6683  0.1218
15201TIP3    H167018   1.883   5.408  15.111  1.4783 -0.3336  0.3521
15201TIP3    H267019   1.813   5.389  14.978 -0.7245  0.5915  1.3553
15202TIP3   OH267020   4.559   6.417  12.332  0.0588  0.3136 -0.2864
15202TIP3    H167021   4.565   6.350  12.264  0.1239 -0.0529  0.0742
15202TIP3    H267022   4.646   6.456  12.336  0.3199 -0.3038  0.2252
15203TIP3   OH267023   0.489   3.772  16.959 -0.1157 -0.5877  0.3766
15203TIP3    H167024   0.530   3.830  16.896 -1.7196  0.0445 -0.1020
15203TIP3    H267025   0.471   3.827  17.035  2.1872 -1.4372  1.5977
15204TIP3   OH267026   6.521   2.717   2.440  0.3114  0.2269  0.1410
15204TIP3    H167027   6.496   2.791   2.496  0.9587 -1.1678  2.3704
15204TIP3    H267028   6.552   2.651   2.502  0.0009 -1.8083 -1.8277
15205TIP3   OH267029   1.058   6.475   3.748  0.5823 -0.7297 -0.3341
15205TIP3    H167030   1.031   6.535   3.818 -0.6509  1.6058 -2.6986
15205TIP3    H267031   1.153   6.485   3.744  0.6673 -0.8958  0.9975
15206TIP3   OH267032   5.904   3.837  16.419  0.1998 -0.4107 -0.7737
15206TIP3    H167033   5.872   3.796  16.339  0.1722  2.4790 -2.2980
15206TIP3    H267034   5.971   3.899  16.390 -1.4324  2.3805  1.1452
15207TIP3   OH267035   2.130   5.094   0.837 -0.3054 -0.1523  0.4207
15207TIP3    H167036   2.183   5.169   0.865 -0.5010  0.2457 -0.2675
15207TIP3    H267037   2.066   5.132   0.777  0.7324 -1.1341 -1.3412
15208TIP3   OH267038   0.085   2.743   4.192 -0.5146  0.5842  0.2243
15208TIP3    H167039   0.083   2.838   4.177 -0.2224  0.3639 -1.3766
15208TIP3    H267040   0.048   2.706   4.112  0.6170 -0.7033  0.2762
15209TIP3   OH267041   0.527   4.232  11.624 -0.7026  0.2538 -0.1239
15209TIP3    H167042   0.521   4.286  11.545 -2.0975  0.1991 -0.0675
15209TIP3    H267043   0.557   4.291  11.692 -0.2422  0.4811 -0.5228
15210TIP3   OH267044   6.246   1.809  11.569 -0.0322 -0.8213  0.0275
15210TIP3    H167045   6.185   1.876  11.540  2.0099  1.0233 -0.1755
15210TIP3    H267046   6.238   1.809  11.665 -1.3789 -1.6371 -0.0724
15211TIP3   OH267047   4.424   6.507  14.918  0.1458 -0.0255 -0.4015
15211TIP3    H167048   4.458   6.462  14.995 -1.2538  1.1159  0.9161
15211TIP3    H267049   4.497   6.508  14.856  1.3560 -0.7542  0.9944
15212TIP3   OH267050   3.821   3.166   5.402 -0.4269  0.3718 -0.6141
15212TIP3    H167051   3.774   3.165   5.318 -1.0843 -0.6653 -0.2361
15212TIP3    H267052   3.811   3.256   5.433  0.6096  1.0088 -2.0905
15213TIP3   OH267053   2.735   4.640  13.119  0.2277 -0.3177  0.0124
15213TIP3    H167054   2.725   4.586  13.198  1.1354 -1.1162 -0.4066
15213TIP3    H267055   2.798   4.592  13.065 -0.1024  0.4186 -1.0336
15214TIP3   OH267056   2.448   1.351   4.190  0.4368  0.7044  0.1203
15214TIP3    H167057   2.356   1.325   4.185  0.2858  0.9393  1.3315
15214TIP3    H267058   2.496   1.270   4.202  0.4808  0.4902 -1.4925
15215TIP3   OH267059   0.174   5.087  14.017 -0.4128  0.1215 -0.1314
15215TIP3    H167060   0.241   5.051  13.959 -0.3599 -0.0843  0.0535
15215TIP3    H267061   0.104   5.022  14.016  0.2279 -0.6094  1.2024
15216TIP3   OH267062   3.582   2.183   2.150 -0.4948 -0.1765 -0.3157
15216TIP3    H167063   3.624   2.172   2.236 -0.0353 -2.0859 -0.7650
15216TIP3    H267064   3.607   2.105   2.101 -2.2156  0.0550 -1.5945
15217TIP3   OH267065   1.076   3.284   5.286 -0.0900 -0.1674 -0.1774
15217TIP3    H167066   1.153   3.311   5.236  0.0059 -0.0400  0.0356
15217TIP3    H267067   1.041   3.366   5.322  1.1641 -0.4674  1.8413
15218TIP3   OH267068   4.039   3.380  15.490  0.3989 -0.7489  0.7773
15218TIP3    H167069   3.986   3.432  15.550  0.4333  0.7611 -0.4595
15218TIP3    H267070   3.975   3.338  15.432  0.4835  0.7475 -0.4531
15219TIP3   OH267071   4.997   2.468   2.358 -0.2956 -0.5584 -1.0762
15219TIP3    H167072   4.909   2.439   2.333 -0.4426 -0.2040 -0.9826
15219TIP3    H267073   5.010   2.433   2.446 -1.1769  1.1060 -0.2406
15220TIP3   OH267074   0.066   1.631  14.830 -0.3763  0.5300  0.5450
15220TIP3    H167075   0.102   1.658  14.746 -1.4853  0.8698  0.1604
15220TIP3    H267076   0.035   1.712  14.870 -2.3490  0.0525  0.0509
15221TIP3   OH267077   6.412   3.130  12.330 -0.0395 -0.7476  0.1977
15221TIP3    H167078   6.366   3.161  12.252  1.2556 -0.8537 -0.6379
15221TIP3    H267079   6.398   3.200  12.394  0.5304  0.2943 -0.7802
15222TIP3   OH267080   0.448   3.204   2.234 -0.1839 -0.2533 -0.1439
15222TIP3    H167081   0.360   3.201   2.272 -0.0289 -1.3448  0.1480
15222TIP3    H267082   0.457   3.294   2.203 -2.0559 -0.5575 -1.6899
15223TIP3   OH267083   0.529   5.028   1.963  0.1383 -0.1041 -0.0247
15223TIP3    H167084   0.522   4.963   1.892 -0.9010  1.0794 -1.0465
15223TIP3    H267085   0.563   5.107   1.920 -0.4676  0.6207  0.8010
15224TIP3   OH267086   0.556   2.666  11.036 -0.2561  0.2891 -0.6683
15224TIP3    H167087   0.516   2.597  10.984 -0.0854  0.0121 -0.4317
15224TIP3    H267088   0.650   2.656  11.021 -0.3381  1.9580 -2.5226
15225TIP3   OH267089   0.582   3.633   4.473 -0.0511 -0.0295  0.0951
15225TIP3    H167090   0.580   3.548   4.517 -0.5910  0.3849  0.8985
15225TIP3    H267091   0.669   3.639   4.435  0.4223 -0.4093  1.1042
15226TIP3   OH267092   6.537   3.104  16.060  0.2790 -0.8405 -0.6081
15226TIP3    H167093   6.626   3.079  16.087 -0.5783 -3.3149  0.0762
15226TIP3    H267094   6.488   3.109  16.143  0.5297  4.0305 -0.5887
15227TIP3   OH267095   0.014   4.720   5.292  0.6753  0.7495 -0.6951
15227TIP3    H167096   0.027   4.806   5.333 -0.5104  0.1212  1.0514
15227TIP3    H267097   0.087   4.667   5.324 -0.9158 -0.1020  1.7085
15228TIP3   OH267098   0.686   0.753   2.087 -0.0686 -0.3297 -0.6701
15228TIP3    H167099   0.715   0.740   2.178 -0.9890  2.3425  0.0517
15228TIP3    H267100   0.606   0.806   2.094 -0.1132 -0.0132 -3.0354
15229TIP3   OH267101   3.081   5.080   0.542 -0.1176  0.3854 -0.5400
15229TIP3    H167102   3.031   5.046   0.615 -1.7351 -1.9140 -2.6225
15229TIP3    H267103   3.173   5.068   0.567 -0.6464  0.5030  1.4743
15230TIP3   OH267104   1.042   4.187  15.776  0.1482 -0.3758 -0.6025
15230TIP3    H167105   1.130   4.222  15.783  0.0682 -0.2691 -0.1267
15230TIP3    H267106   1.010   4.219  15.692 -0.7245  2.5291  0.7481
15231TIP3   OH267107   0.692   0.547  11.424 -0.1111 -1.0669  0.0304
15231TIP3    H167108   0.771   0.494  11.417 -0.2713 -1.3593  0.3853
15231TIP3    H267109   0.662   0.558  11.334  0.8269 -0.2032 -0.1779
15232TIP3   OH267110   6.020   5.406   5.090  0.5796 -0.0984 -0.0112
15232TIP3    H167111   6.084   5.362   5.034 -2.1580 -2.4981 -1.3842
15232TIP3    H267112   6.009   5.493   5.051 -0.9018 -1.5433 -2.9773
15233TIP3   OH267113   1.044   4.109  13.672 -0.2557  0.1191 -0.1516
15233TIP3    H167114   1.103   4.033  13.674  0.9033  1.0144  0.4819
15233TIP3    H267115   0.962   4.075  13.636  0.2625 -1.4240  0.0827
15234TIP3   OH267116   5.794   5.710   3.660 -0.4757 -0.1779 -0.5014
15234TIP3    H167117   5.805   5.615   3.655 -0.0188 -0.1103 -0.7749
15234TIP3    H267118   5.743   5.731   3.581 -0.1343 -0.1325 -0.7120
15235TIP3   OH267119   3.231   4.550  15.361  0.0077 -0.1942  0.6278
15235TIP3    H167120   3.139   4.576  15.371 -0.1437 -0.0174 -1.0565
15235TIP3    H267121   3.251   4.499  15.439 -0.7224  2.0813  2.3313
15236TIP3   OH267122   0.586   6.447   3.391  0.5786 -0.3920 -0.1792
15236TIP3    H167123   0.624   6.402   3.316  2.1526  2.5550 -1.2131
15236TIP3    H267124   0.520   6.505   3.353  1.1552  0.8834  0.7287
15237TIP3   OH267125   2.015   3.445   5.913 -0.1006  0.4185 -0.0710
15237TIP3    H167126   1.972   3.361   5.896  0.1206  0.7167 -2.3445
15237TIP3    H267127   2.022   3.451   6.008 -0.1402 -2.1271  0.1112
15238TIP3   OH267128   2.460   3.060  12.288 -0.3075 -0.8398  0.3246
15238TIP3    H167129   2.372   3.076  12.255 -0.6621 -3.4447 -0.1034
15238TIP3    H267130   2.510   3.137  12.260 -2.0110 -0.1872 -1.0315
15239TIP3   OH267131   2.027   1.283  16.007 -0.0467  0.4348  0.6199
15239TIP3    H167132   2.016   1.195  16.043 -0.7074  0.1875 -0.1851
15239TIP3    H267133   1.939   1.311  15.985  0.0634  1.6571  1.6929
15240TIP3   OH267134   0.746   3.583  16.568 -0.3457 -0.7139  0.4236
15240TIP3    H167135   0.726   3.626  16.651  2.3167 -1.8880  1.7224
15240TIP3    H267136   0.666   3.534  16.546 -1.6940  1.0091  1.3523
15241TIP3   OH267137   5.310   2.846   2.800 -0.2097 -0.3070  0.2627
15241TIP3    H167138   5.338   2.755   2.810 -0.5975 -0.5868 -1.1378
15241TIP3    H267139   5.215   2.840   2.785  0.0205  0.2251 -1.4122
15242TIP3   OH267140   2.962   5.944  15.812  0.1247  0.2163  0.4252
15242TIP3    H167141   2.954   5.863  15.761  0.5704  0.5092 -0.1168
15242TIP3    H267142   2.902   5.932  15.886 -1.1191  0.1057 -0.5845
15243TIP3   OH267143   0.786   2.085   1.895 -0.5134  0.2685 -0.5605
15243TIP3    H167144   0.797   1.992   1.914 -0.0217  0.8467  2.3984
15243TIP3    H267145   0.871   2.123   1.918 -1.1633  1.6194 -0.3694
15244TIP3   OH267146   2.189   6.326   0.979  0.0076 -0.2401  0.0600
15244TIP3    H167147   2.212   6.358   0.892  0.0051 -0.5107 -0.0423
15244TIP3    H267148   2.117   6.264   0.963  0.4142 -0.7481  0.1904
15245TIP3   OH267149   3.371   3.727  15.321  0.4332  0.5174  0.3321
15245TIP3    H167150   3.444   3.767  15.273  1.1928  0.8604  1.7601
15245TIP3    H267151   3.363   3.640  15.282 -0.0023  1.3480 -1.5029
15246TIP3   OH267152   6.385   2.795  16.247  0.3818  0.3748  0.2630
15246TIP3    H167153   6.388   2.799  16.342  0.7631 -0.5490  0.2955
15246TIP3    H267154   6.366   2.884  16.219  1.4099  0.8741  1.1551
15247TIP3   OH267155   0.717   5.022   0.847  0.0391 -0.4506  0.1950
15247TIP3    H167156   0.666   5.092   0.890  0.9493 -0.5044  1.4000
15247TIP3    H267157   0.748   5.062   0.766 -2.0247 -0.4631 -0.6250
15248TIP3   OH267158   4.711   2.117   5.844 -0.1758  0.1334 -0.6636
15248TIP3    H167159   4.627   2.138   5.884 -0.3763  1.2481 -1.6433
15248TIP3    H267160   4.737   2.197   5.800  1.0159 -0.4601 -1.0568
15249TIP3   OH267161   3.537   3.670   1.572  0.4238  0.3906  0.3590
15249TIP3    H167162   3.518   3.760   1.598  0.3180  0.6454 -0.5745
15249TIP3    H267163   3.624   3.674   1.534  0.1957  0.2004 -0.1891
15250TIP3   OH267164   2.800   5.832   3.932 -0.4556  1.2977  0.1580
15250TIP3    H167165   2.854   5.774   3.986  1.9813  2.1160 -1.3322
15250TIP3    H267166   2.800   5.916   3.979 -0.6980  1.2119  0.3121
15251TIP3   OH267167   4.262   3.716   2.064  0.0148  0.3015 -0.6604
15251TIP3    H167168   4.170   3.722   2.038  0.2499  0.4899 -1.4437
15251TIP3    H267169   4.289   3.629   2.034  0.4039  0.6859 -1.4190
15252TIP3   OH267170   2.526   1.355   3.907  0.1017 -0.1637 -0.2255
15252TIP3    H167171   2.497   1.395   3.989  0.1412 -1.2918  0.3615
15252TIP3    H267172   2.539   1.262   3.930  0.2421 -0.4584 -1.4748
15253TIP3   OH267173   5.898   5.752   5.204  0.3199 -0.0764 -0.4796
15253TIP3    H167174   5.840   5.761   5.279  0.7290  0.7572 -0.2595
15253TIP3    H267175   5.986   5.768   5.239  0.5221  0.2040 -1.1061
15254TIP3   OH267176   5.405   5.797   0.887  0.0675  0.5044 -0.1262
15254TIP3    H167177   5.405   5.892   0.879  1.3236  0.5518  0.2447
15254TIP3    H267178   5.456   5.767   0.812 -0.9270  0.0736 -0.6421
15255TIP3   OH267179   5.240   6.293  13.277 -0.0068 -0.5311  0.3997
15255TIP3    H167180   5.326   6.267  13.311 -0.4118 -2.4906 -0.0058
15255TIP3    H267181   5.221   6.228  13.209 -1.7740 -0.0824  0.4434
15256TIP3   OH267182   2.367   0.019   5.272  0.0033  0.2601 -0.0835
15256TIP3    H167183   2.364  -0.063   5.321 -0.5117 -0.2067 -0.8823
15256TIP3    H267184   2.282   0.023   5.227  1.1101 -0.1763 -2.3069
15257TIP3   OH267185   3.587   2.089   5.595 -0.4539 -0.5253 -0.0636
15257TIP3    H167186   3.586   2.184   5.592  1.3850 -0.4902 -0.1255
15257TIP3    H267187   3.676   2.065   5.571 -1.5463 -2.3739 -2.4789
15258TIP3   OH267188   3.574   4.177  17.078  0.7996  0.0525  0.2636
15258TIP3    H167189   3.481   4.153  17.073  0.4839  1.1320  0.6403
15258TIP3    H267190   3.617   4.120  17.015 -0.2451  0.1157 -0.5280
15259TIP3   OH267191   2.100   6.420  11.387 -0.1328 -0.2817  0.1153
15259TIP3    H167192   2.098   6.399  11.480 -0.1378 -1.0976 -0.0629
15259TIP3    H267193   2.122   6.337  11.344  0.8921  0.3065 -0.5432
15260TIP3   OH267194   2.994   4.857   3.604 -0.1235  0.4145 -0.4223
15260TIP3    H167195   2.994   4.889   3.514  0.3265 -1.1812 -1.0023
15260TIP3    H267196   2.929   4.787   3.604 -0.1924  0.4787  0.5179
15261TIP3   OH267197   1.723   4.373  12.193  0.0442  0.5515 -0.0802
15261TIP3    H167198   1.768   4.306  12.245 -0.3299 -0.5792 -1.1787
15261TIP3    H267199   1.761   4.365  12.106 -2.2117 -0.4043 -1.0251
15262TIP3   OH267200   4.468   2.091   1.948  0.4555 -0.4346  0.0177
15262TIP3    H167201   4.438   2.154   2.013 -0.3160  0.0835 -0.8275
15262TIP3    H267202   4.547   2.130   1.911 -0.6476  0.5751 -1.2958
15263TIP3   OH267203   6.095   0.429  11.238 -0.0956 -0.0089  0.4139
15263TIP3    H167204   6.178   0.475  11.228 -0.8322  1.9260  2.6223
15263TIP3    H267205   6.058   0.464  11.319 -1.1416 -3.8941  1.7226
15264TIP3   OH267206   2.278   3.081   5.292 -0.3937 -0.1768 -0.6333
15264TIP3    H167207   2.187   3.066   5.267 -0.2165 -1.7252 -0.4131
15264TIP3    H267208   2.324   3.002   5.263  1.1159  1.1223 -1.8947
15265TIP3   OH267209   2.589   6.447   4.497 -1.3107 -0.1140  0.1143
15265TIP3    H167210   2.504   6.448   4.452 -2.0816 -1.8617  1.5053
15265TIP3    H267211   2.644   6.391   4.442 -2.0062 -1.5647  0.8697
15266TIP3   OH267212   4.246   2.448   6.114 -1.0395  0.6064  0.1952
15266TIP3    H167213   4.218   2.388   6.045 -0.3624  0.9303 -0.3660
15266TIP3    H267214   4.292   2.392   6.177  0.8543  0.7421 -1.0354
15267TIP3   OH267215   4.689   1.471   5.202  0.7512 -0.7073  0.4379
15267TIP3    H167216   4.669   1.551   5.153 -0.1535 -0.9198  0.4482
15267TIP3    H267217   4.756   1.497   5.264  1.3908 -0.2591 -0.4230
15268TIP3   OH267218   5.219   5.834  10.823 -0.4792 -0.2637 -0.0033
15268TIP3    H167219   5.311   5.862  10.822  0.4235 -3.0879 -0.6686
15268TIP3    H267220   5.171   5.908  10.786  1.7549  0.5668 -1.3473
15269TIP3   OH267221   1.569   2.787   4.723  0.0698  0.6740 -0.0941
15269TIP3    H167222   1.627   2.828   4.659  0.2353 -0.6169 -0.7787
15269TIP3    H267223   1.577   2.693   4.706 -1.9478  0.4561  0.0273
15270TIP3   OH267224   5.125   1.600  11.743 -0.2071  0.3732 -0.3805
15270TIP3    H167225   5.083   1.597  11.829 -1.0521 -1.7007 -0.8243
15270TIP3    H267226   5.052   1.611  11.681  0.2027 -0.1316 -0.9547
15271TIP3   OH267227   2.505   5.631   1.692  0.1098  0.2204 -0.0638
15271TIP3    H167228   2.515   5.562   1.626 -1.0748  0.2365 -0.2627
15271TIP3    H267229   2.411   5.639   1.704  0.3285 -0.3132  2.1916
15272TIP3   OH267230   4.578   3.996  10.862 -0.3697 -0.6349  0.9110
15272TIP3    H167231   4.524   3.947  10.924  0.0358 -1.6090  0.4943
15272TIP3    H267232   4.538   3.981  10.777 -0.8691  0.6335  0.9014
15273TIP3   OH267233   5.680   5.029   5.301 -0.6444 -0.5236  0.5662
15273TIP3    H167234   5.642   5.084   5.233 -1.7764 -0.4566  1.2270
15273TIP3    H267235   5.695   5.089   5.375  2.2320 -0.2223 -0.1939
15274TIP3   OH267236   3.272   5.537  12.093 -0.0142 -0.2550 -0.6032
15274TIP3    H167237   3.219   5.609  12.061  0.2087  0.8228  1.3270
15274TIP3    H267238   3.309   5.497  12.015 -1.8934  0.3490 -1.8292
15275TIP3   OH267239   2.736   2.379  14.325 -0.5155  0.2384 -0.4926
15275TIP3    H167240   2.727   2.284  14.312 -0.4577  0.3588 -1.4460
15275TIP3    H267241   2.658   2.404  14.375 -0.0250 -0.4771  0.6397
15276TIP3   OH267242   0.417   3.858  12.441 -0.0757  0.0448 -0.4918
15276TIP3    H167243   0.429   3.894  12.353  0.6259  1.5186  0.1891
15276TIP3    H267244   0.359   3.920  12.484  0.3093 -0.1989  0.3801
15277TIP3   OH267245   1.412   4.076  13.310 -0.1807  0.1983 -0.3538
15277TIP3    H167246   1.340   4.139  13.317  1.2510  1.7260  0.9160
15277TIP3    H267247   1.477   4.120  13.254  1.1279  0.1380  1.1038
15278TIP3   OH267248   1.874   5.113  15.675  0.3965 -0.4905 -0.2542
15278TIP3    H167249   1.906   5.173  15.608 -0.5641 -0.6261 -0.8300
15278TIP3    H267250   1.915   5.029  15.654  0.8835 -0.2998 -0.0799
15279TIP3   OH267251   5.351   2.193   2.462  0.1437 -0.3345 -0.1943
15279TIP3    H167252   5.428   2.137   2.465  0.2839 -0.1068  0.6922
15279TIP3    H267253   5.359   2.249   2.539 -0.5957  0.1044 -0.4292
15280TIP3   OH267254   4.584   2.079  15.764  0.4186  0.6296  0.8231
15280TIP3    H167255   4.649   2.010  15.752  0.1199  0.3522  0.8101
15280TIP3    H267256   4.550   2.095  15.676  1.6615  1.9434  0.5602
15281TIP3   OH267257   3.910   3.828  14.376  0.5695  0.2692  0.4187
15281TIP3    H167258   3.831   3.864  14.416 -1.0247 -1.3550 -1.1589
15281TIP3    H267259   3.896   3.841  14.282  2.6037  0.7571  0.1731
15282TIP3   OH267260   0.568   3.907   5.075  0.2188  0.1253  0.3037
15282TIP3    H167261   0.662   3.900   5.094  0.2501  1.4615  0.6590
15282TIP3    H267262   0.552   3.836   5.013  1.4567 -0.1726  0.3002
15283TIP3   OH267263   3.260   0.026   3.276  0.2845 -0.0540  0.7046
15283TIP3    H167264   3.189   0.053   3.218  0.8007  0.0421  0.1137
15283TIP3    H267265   3.336   0.018   3.218  0.3347 -1.9616  0.9898
15284TIP3   OH267266   3.322   4.119   0.081  0.6343 -0.4736  0.1687
15284TIP3    H167267   3.316   4.176   0.158 -0.8189 -0.7062  0.2450
15284TIP3    H267268   3.300   4.177   0.007  0.7959 -0.5415  0.0693
15285TIP3   OH267269   0.602   0.606   2.804  0.0057  0.0284 -0.0315
15285TIP3    H167270   0.565   0.677   2.858 -0.1914  0.0892 -0.2445
15285TIP3    H267271   0.554   0.612   2.721 -0.2666 -0.5846  0.0769
15286TIP3   OH267272   0.657   1.516  11.645 -0.0831 -0.2078 -0.5659
15286TIP3    H167273   0.679   1.597  11.599  2.0761 -0.9315 -0.8517
15286TIP3    H267274   0.639   1.453  11.576  1.2189 -0.7667 -0.4085
15287TIP3   OH267275   0.283   3.633   5.412 -0.5763 -0.0697 -0.0129
15287TIP3    H167276   0.189   3.649   5.402 -0.0406  2.3554 -1.4700
15287TIP3    H267277   0.314   3.613   5.324  0.6378  1.3877  0.0474
15288TIP3   OH267278   1.243   3.813  10.532  0.2470  0.3502 -1.0913
15288TIP3    H167279   1.162   3.857  10.560  0.6110 -0.0737  0.6869
15288TIP3    H267280   1.313   3.866  10.570  0.6922 -1.8534  1.3320
15289TIP3   OH267281   1.267   3.851  17.166 -0.5056  0.0691  0.1081
15289TIP3    H167282   1.322   3.860  17.088 -0.7499 -0.2583 -0.1023
15289TIP3    H267283   1.188   3.902  17.147 -0.3194  0.4564  0.3743
15290TIP3   OH267284   3.367   1.937  12.165 -0.4221 -0.5179  0.0290
15290TIP3    H167285   3.280   1.900  12.150 -0.5396  0.6385 -2.3785
15290TIP3    H267286   3.426   1.881  12.115 -0.4446  1.6601 -2.5508
15291TIP3   OH267287   0.416   0.152   2.500 -0.3366  0.2816 -0.1340
15291TIP3    H167288   0.408   0.166   2.405  1.4471  1.2667 -0.1582
15291TIP3    H267289   0.344   0.203   2.537 -1.6607 -0.9185 -1.0017
15292TIP3   OH267290   5.602   4.475   3.401 -0.0988 -0.1385  0.1307
15292TIP3    H167291   5.572   4.417   3.471 -0.7347 -0.7881 -0.6664
15292TIP3    H267292   5.553   4.446   3.323  1.9248 -0.6256 -1.0044
15293TIP3   OH267293   1.888   6.442   0.397 -0.0055  0.2977  0.5770
15293TIP3    H167294   1.969   6.482   0.429  0.0102  0.4796  0.3094
15293TIP3    H267295   1.907   6.421   0.306 -0.1335 -0.0026  0.6182
15294TIP3   OH267296   3.175   4.384   1.513 -0.4407 -0.6154  0.1466
15294TIP3    H167297   3.209   4.319   1.575  2.0589 -0.9091 -1.4961
15294TIP3    H267298   3.097   4.418   1.556  0.7263 -1.4673  3.0784
15295TIP3   OH267299   5.135   1.845   0.709 -0.5585 -0.8346 -0.0264
15295TIP3    H167300   5.094   1.851   0.623  0.2358 -0.7108 -0.4038
15295TIP3    H267301   5.080   1.784   0.758 -1.2634 -0.5586 -0.4786
15296TIP3   OH267302   4.861   6.128  12.458  0.2681 -0.9900  0.3277
15296TIP3    H167303   4.808   6.049  12.465  1.1000 -1.5570  0.3444
15296TIP3    H267304   4.876   6.138  12.364 -2.3376  0.8509  0.0583
15297TIP3   OH267305   5.279   0.583   4.975 -0.0727 -0.5210  0.1889
15297TIP3    H167306   5.368   0.556   4.954  0.2068 -0.6301  1.4797
15297TIP3    H267307   5.224   0.513   4.941  0.3811 -0.7990  0.0267
15298TIP3   OH267308   2.188   5.500  16.643  0.1459 -0.6827 -0.5266
15298TIP3    H167309   2.173   5.477  16.735 -1.9798 -0.2674 -0.7644
15298TIP3    H267310   2.201   5.595  16.645 -2.0706 -0.3630 -0.9190
15299TIP3   OH267311   4.335   5.001   0.246 -0.4307 -0.1926 -0.2014
15299TIP3    H167312   4.262   4.956   0.290 -0.5301  0.6100  0.4825
15299TIP3    H267313   4.305   5.013   0.156 -0.8532 -0.5166 -0.1059
15300TIP3   OH267314   2.163   0.136  13.155 -0.1820  0.1751  0.3392
15300TIP3    H167315   2.240   0.189  13.174 -0.6917  0.7999  0.6677
15300TIP3    H267316   2.195   0.046  13.156  0.5375  0.4305  0.4944
15301TIP3   OH267317   3.828   0.529  15.101  0.4033 -0.0288  0.0278
15301TIP3    H167318   3.796   0.471  15.032 -1.1746 -0.0778  0.7969
15301TIP3    H267319   3.877   0.597  15.054 -0.2225 -0.3426 -1.0904
15302TIP3   OH267320   4.689   0.931  15.978  0.4411 -0.0497 -0.1320
15302TIP3    H167321   4.647   0.933  15.892  0.3720  0.3076 -0.0923
15302TIP3    H267322   4.726   0.843  15.985  2.0789  0.4988 -1.3266
15303TIP3   OH267323   5.008   6.735  11.298  0.1409  0.1714 -0.3122
15303TIP3    H167324   5.050   6.678  11.362  1.7520 -0.7333 -2.1140
15303TIP3    H267325   5.065   6.812  11.293  0.4491 -0.1010 -1.1858
15304TIP3   OH267326   4.598   0.609   2.858  0.4379 -0.3631  0.3176
15304TIP3    H167327   4.615   0.681   2.797 -0.7883 -1.1005 -0.9242
15304TIP3    H267328   4.677   0.555   2.854  0.7297  0.0828  0.0707
15305TIP3   OH267329   2.387   3.446  14.583 -0.0949  0.1588  1.0053
15305TIP3    H167330   2.443   3.506  14.632  0.3503 -0.8519  1.7531
15305TIP3    H267331   2.436   3.363  14.582  0.2695  0.3803 -1.8397
15306TIP3   OH267332   4.430   1.096   5.738  0.5856 -0.2498  0.4421
15306TIP3    H167333   4.447   1.146   5.817  0.4662  0.3991  0.0593
15306TIP3    H267334   4.380   1.156   5.682  0.3547 -0.8262  0.0251
15307TIP3   OH267335   0.594   1.160   1.251 -0.6338 -0.5089  0.5286
15307TIP3    H167336   0.678   1.136   1.290 -0.9510 -0.4386  1.2601
15307TIP3    H267337   0.530   1.146   1.321 -1.1369  0.1123  0.1991
15308TIP3   OH267338   2.199   2.279  12.819 -0.3426 -0.1992  0.2067
15308TIP3    H167339   2.283   2.233  12.826  1.4206  2.8147 -0.2261
15308TIP3    H267340   2.166   2.282  12.909  0.2799 -0.8620  0.4669
15309TIP3   OH267341   3.271   2.826  15.128 -0.0375 -0.2990  0.2373
15309TIP3    H167342   3.304   2.899  15.075 -0.9376 -1.0121 -1.3553
15309TIP3    H267343   3.345   2.766  15.134  0.0019 -0.3341 -0.4674
15310TIP3   OH267344   4.515   5.125  15.123  0.0587  0.3237 -0.2312
15310TIP3    H167345   4.491   5.131  15.216 -1.3368  1.4148 -0.6490
15310TIP3    H267346   4.611   5.123  15.124  0.0364 -0.6794  1.2828
15311TIP3   OH267347   3.193   3.727   4.403 -0.1544  0.1500 -0.0663
15311TIP3    H167348   3.209   3.648   4.454  0.3031  0.5649  0.4431
15311TIP3    H267349   3.104   3.753   4.425  0.0190  0.2870  0.4649
15312TIP3   OH267350   4.002   3.557   5.973 -0.1766 -0.7170  0.2207
15312TIP3    H167351   3.941   3.564   6.046 -1.1030 -0.0579 -0.6063
15312TIP3    H267352   3.947   3.541   5.896  0.8400 -2.1768 -0.2341
15313TIP3   OH267353   2.384   5.950   5.115 -0.1071 -0.1757  0.1972
15313TIP3    H167354   2.305   5.910   5.152 -0.3311  0.3913  0.3419
15313TIP3    H267355   2.366   6.044   5.117  0.6762 -0.0275  0.4632
15314TIP3   OH267356   0.421   6.493  12.169  0.3902  0.6780 -0.1060
15314TIP3    H167357   0.475   6.549  12.224  0.3615  0.5935  0.0097
15314TIP3    H267358   0.482   6.456  12.105  0.8699 -1.0055  1.2708
15315TIP3   OH267359   0.549   2.792   5.320 -0.1047  0.3351  0.0523
15315TIP3    H167360   0.506   2.877   5.322  1.5329  1.1632  0.4922
15315TIP3    H267361   0.492   2.735   5.371 -1.6042  0.9748 -0.8938
15316TIP3   OH267362   4.720   2.648  15.677 -0.0747 -0.3537  0.1975
15316TIP3    H167363   4.698   2.741  15.674 -0.5480 -0.4713 -0.0017
15316TIP3    H267364   4.681   2.612  15.597  1.6259 -0.3994 -0.6549
15317TIP3   OH267365   6.035   5.823   3.161  0.2055  0.3650  0.2654
15317TIP3    H167366   6.006   5.873   3.085  1.1133  0.0165 -0.3210
15317TIP3    H267367   6.131   5.822   3.153  0.3487  0.9176  1.7796
15318TIP3   OH267368   4.328   0.736  14.739 -0.2838 -0.4130  0.0980
15318TIP3    H167369   4.340   0.754  14.832  0.8129 -1.1037  0.0988
15318TIP3    H267370   4.380   0.803  14.695  1.9309 -2.0973  0.0618
15319TIP3   OH267371   6.124   3.208   0.848  0.2430 -0.6275 -0.3528
15319TIP3    H167372   6.072   3.258   0.786  1.1690  1.6525  0.6550
15319TIP3    H267373   6.103   3.117   0.829 -2.4146  0.1625 -1.4327
15320TIP3   OH267374   3.576   6.088  11.986  0.2178 -0.4866 -0.2928
15320TIP3    H167375   3.581   6.147  12.061 -1.8530 -0.5129 -0.0935
15320TIP3    H267376   3.663   6.093  11.946  1.3692 -0.4798  2.0924
15321TIP3   OH267377   1.930   1.318   0.102  0.2396  0.5771 -0.0793
15321TIP3    H167378   1.897   1.281   0.184  0.3101 -0.2119 -0.4022
15321TIP3    H267379   2.025   1.317   0.111  0.2026  1.8674  0.4258
15322TIP3   OH267380   0.834   0.710  17.100  0.3014 -0.0104  0.1404
15322TIP3    H167381   0.764   0.644  17.094  0.6707 -0.4818  0.9909
15322TIP3    H267382   0.799   0.786  17.053 -1.1574  0.0798  1.3456
15323TIP3   OH267383   2.347   6.067   3.743  0.3140 -0.1175 -0.1152
15323TIP3    H167384   2.303   5.983   3.750 -1.0865  0.7098  1.4669
15323TIP3    H267385   2.378   6.085   3.832  0.0922  1.2888 -0.3137
15324TIP3   OH267386   6.319   3.803  16.455 -0.1177 -0.0023 -0.5610
15324TIP3    H167387   6.298   3.732  16.395 -0.7736  0.2682 -0.6446
15324TIP3    H267388   6.403   3.777  16.494 -2.0648 -2.5810  2.0890
15325TIP3   OH267389   1.132   5.406  15.360  0.3614  0.9738  0.1420
15325TIP3    H167390   1.067   5.410  15.290 -1.4146  0.7526  1.7148
15325TIP3    H267391   1.178   5.324  15.346 -2.3076 -0.7834  1.1618
15326TIP3   OH267392   1.788   5.247   5.211  0.0756  0.0713 -0.0385
15326TIP3    H167393   1.693   5.260   5.206  0.0354  0.6853  1.8089
15326TIP3    H267394   1.809   5.263   5.303  1.7831 -1.4075 -0.1470
15327TIP3   OH267395   0.754   5.303   3.799  0.3489 -0.0861  0.7050
15327TIP3    H167396   0.690   5.247   3.842  1.3274 -1.8671 -0.1008
15327TIP3    H267397   0.782   5.254   3.722  0.6446  1.8721 -0.4655
15328TIP3   OH267398   0.898   4.743  11.188  0.0052 -0.1073 -0.1202
15328TIP3    H167399   0.905   4.796  11.268 -0.1897  0.2852 -0.3629
15328TIP3    H267400   0.888   4.653  11.220 -0.3492  0.0787  0.3025
15329TIP3   OH267401   5.581   5.850  14.374  0.0740  0.0038 -0.1618
15329TIP3    H167402   5.590   5.847  14.279 -0.4911 -1.1766 -0.1849
15329TIP3    H267403   5.493   5.816  14.391 -0.2871  1.3185  0.7158
15330TIP3   OH267404   2.167   4.544   1.561 -0.3442 -0.2151  0.3720
15330TIP3    H167405   2.213   4.552   1.477  1.2268 -0.0374  1.2294
15330TIP3    H267406   2.107   4.618   1.562  0.9079  0.8168  0.1726
15331TIP3   OH267407   1.102   4.130  12.269  0.0625 -0.7418 -0.1722
15331TIP3    H167408   1.181   4.184  12.267 -0.5868  0.2658  0.8753
15331TIP3    H267409   1.133   4.042  12.246  1.2472 -0.0932 -1.1479
15332TIP3   OH267410   5.760   0.472  10.321  0.0460 -0.0899 -0.2308
15332TIP3    H167411   5.731   0.391  10.363 -0.6978  0.3692  0.1473
15332TIP3    H267412   5.824   0.509  10.381 -0.3899  0.1345  0.0966
15333TIP3   OH267413   3.411   1.075   0.524 -0.0770  0.0429  0.3110
15333TIP3    H167414   3.339   1.135   0.505 -0.7194 -0.5404  0.9066
15333TIP3    H267415   3.371   0.988   0.523  0.6264 -0.2884  0.6224
15334TIP3   OH267416   6.349   4.899  16.706  0.3464 -0.5985  0.1268
15334TIP3    H167417   6.294   4.825  16.679 -0.1299  0.0120 -0.6018
15334TIP3    H267418   6.426   4.894  16.649  0.0835 -0.2408 -0.2586
15335TIP3   OH267419   5.776   1.029   3.974 -0.6479  0.2161 -0.3432
15335TIP3    H167420   5.730   0.967   3.917 -1.1927 -0.0238  0.3578
15335TIP3    H267421   5.800   1.101   3.916  0.4067 -0.8623 -1.2786
15336TIP3   OH267422   6.500   6.499  13.781 -0.5163  1.0536 -0.1481
15336TIP3    H167423   6.506   6.417  13.732  0.1869  0.7452  0.4266
15336TIP3    H267424   6.533   6.566  13.722 -0.2288  0.7744 -0.3035
15337TIP3   OH267425   4.107   6.227   5.463  0.2108 -0.2258 -0.6472
15337TIP3    H167426   4.165   6.303   5.460 -0.8595  0.6803  0.9269
15337TIP3    H267427   4.165   6.153   5.479  0.8119  0.8320  2.2516
15338TIP3   OH267428   6.475   4.722   3.129  0.1451  0.3155  0.1921
15338TIP3    H167429   6.456   4.667   3.052 -1.1400 -0.4028  1.0145
15338TIP3    H267430   6.568   4.707   3.146  0.2567 -0.1271 -0.7459
15339TIP3   OH267431   3.140   4.502  15.093 -0.5449 -0.2867 -0.0806
15339TIP3    H167432   3.082   4.439  15.135 -1.2997  0.6386  0.2927
15339TIP3    H267433   3.180   4.550  15.166  0.5042 -0.7521 -0.3431
15340TIP3   OH267434   6.269   3.573   5.847  0.6385 -0.0757 -0.3922
15340TIP3    H167435   6.269   3.581   5.751  0.7289 -2.4636 -0.6028
15340TIP3    H267436   6.325   3.645   5.876  0.0240  1.1350 -2.0703
15341TIP3   OH267437   3.743   1.520   1.271 -0.1079  0.1017  0.0521
15341TIP3    H167438   3.693   1.599   1.293 -1.5962 -0.7903 -0.1012
15341TIP3    H267439   3.683   1.466   1.220  1.7935  0.0748 -2.2850
15342TIP3   OH267440   1.488   0.662  15.854 -0.2145 -0.7669 -0.2097
15342TIP3    H167441   1.473   0.570  15.835  1.4169 -1.1774  0.4442
15342TIP3    H267442   1.518   0.700  15.772  0.4711 -1.1161 -0.1161
15343TIP3   OH267443   1.918   5.858   2.188 -0.6405  0.0879 -0.7698
15343TIP3    H167444   1.971   5.790   2.146 -0.3642  0.6762 -1.3896
15343TIP3    H267445   1.981   5.907   2.242 -1.0634 -0.9078  0.6654
15344TIP3   OH267446   6.688   2.244  16.600 -0.9257 -0.4237 -0.4607
15344TIP3    H167447   6.696   2.276  16.690  1.4455 -0.3720 -0.6638
15344TIP3    H267448   6.714   2.152  16.606  3.9464  0.7192 -1.8010
15345TIP3   OH267449   0.309   4.232  16.083  0.7623  0.4522  0.2861
15345TIP3    H167450   0.310   4.218  16.178  0.1187 -2.1254 -0.0493
15345TIP3    H267451   0.387   4.186  16.052 -0.0048 -0.2702 -0.6011
15346TIP3   OH267452   2.425   4.018   3.766  0.6424 -0.2501 -0.5081
15346TIP3    H167453   2.521   4.028   3.767  0.6530 -0.3522  0.8505
15346TIP3    H267454   2.394   4.089   3.823 -0.1264  0.1096 -1.3766
15347TIP3   OH267455   4.185   2.194  14.176  0.2097  0.4237  0.0478
15347TIP3    H167456   4.189   2.274  14.229  0.1242  0.6770 -0.3296
15347TIP3    H267457   4.113   2.210  14.115 -0.1461 -0.1491  0.3118
15348TIP3   OH267458   2.132   5.034  13.106 -0.7464  0.2871 -0.7522
15348TIP3    H167459   2.040   5.054  13.089 -1.3320 -0.8476  0.9062
15348TIP3    H267460   2.175   5.119  13.112 -1.5334  0.8093 -2.2688
15349TIP3   OH267461   1.488   0.837  14.477 -0.4745 -0.0439  0.1127
15349TIP3    H167462   1.427   0.800  14.542 -0.7571 -1.7463 -1.0822
15349TIP3    H267463   1.441   0.831  14.394 -0.1445  2.1954 -0.2544
15350TIP3   OH267464   1.472   5.881  14.979 -0.0536  0.2168 -0.1090
15350TIP3    H167465   1.556   5.916  15.008 -0.6316  0.7763  0.9274
15350TIP3    H267466   1.438   5.946  14.917 -0.6347  0.9990  1.0033
15351TIP3   OH267467   4.406   1.694   6.277 -0.0350  0.2597 -0.0234
15351TIP3    H167468   4.387   1.700   6.371 -0.4838 -0.0459 -0.0915
15351TIP3    H267469   4.363   1.613   6.249  1.0690 -0.2543 -0.2655
15352TIP3   OH267470   2.230   5.330   5.307  0.8949  0.0566 -0.5255
15352TIP3    H167471   2.319   5.297   5.293  0.9300 -0.0824 -0.0105
15352TIP3    H267472   2.195   5.342   5.219  2.0945  1.9898 -0.7661
15353TIP3   OH267473   1.745   6.570   1.377  0.0159  0.1515  0.2695
15353TIP3    H167474   1.793   6.555   1.296 -0.7258  0.3734 -0.2164
15353TIP3    H267475   1.790   6.644   1.418  0.0841  0.3697 -0.1923
15354TIP3   OH267476   3.126   5.110  16.424 -0.4448 -0.8914  0.2323
15354TIP3    H167477   3.081   5.185  16.385  1.0590 -0.2129 -0.2200
15354TIP3    H267478   3.083   5.034  16.386 -2.0942 -0.2774  0.8076
15355TIP3   OH267479   3.078   1.247   2.233  0.5472  0.0877  0.3144
15355TIP3    H167480   3.061   1.250   2.327 -1.9054  1.3827 -0.1175
15355TIP3    H267481   3.023   1.316   2.197  0.2872 -1.3811 -2.2319
15356TIP3   OH267482   4.691   6.692   3.641  0.0760 -0.0924  0.4481
15356TIP3    H167483   4.638   6.694   3.720 -2.0905  1.9630 -0.9792
15356TIP3    H267484   4.652   6.623   3.588 -0.5444  0.7012 -0.1497
15357TIP3   OH267485   3.937   5.430   5.519 -0.8442  0.1713 -0.2425
15357TIP3    H167486   3.906   5.424   5.610 -0.1586 -0.3014 -0.0317
15357TIP3    H267487   3.985   5.512   5.516  2.9441 -1.8606  1.0547
15358TIP3   OH267488   2.981   2.557   0.152  0.5812 -0.5417  0.5615
15358TIP3    H167489   2.942   2.473   0.128  0.6474 -0.1928 -0.7627
15358TIP3    H267490   3.014   2.542   0.241  2.0916 -2.4166 -0.2829
15359TIP3   OH267491   2.603   2.026  12.131  0.5468  0.1288 -0.6562
15359TIP3    H167492   2.615   1.945  12.082 -0.5341 -0.8252  0.6364
15359TIP3    H267493   2.578   1.998  12.219 -1.0064  1.8759 -0.4994
15360TIP3   OH267494   5.755   6.582   5.434 -0.4023  0.7668  0.4053
15360TIP3    H167495   5.694   6.534   5.378  1.4099  0.0833 -1.0167
15360TIP3    H267496   5.725   6.563   5.523 -1.6978 -0.3076 -0.2407
15361TIP3   OH267497   3.556   1.706   3.938 -0.4110 -0.3930  0.3699
15361TIP3    H167498   3.464   1.679   3.929 -0.1571 -0.8027 -1.0672
15361TIP3    H267499   3.593   1.695   3.851  0.9209  0.1295  0.8578
15362TIP3   OH267500   4.120   3.427   6.201 -0.0887 -0.4034 -0.7199
15362TIP3    H167501   4.154   3.468   6.280  0.9018 -0.7773 -0.9435
15362TIP3    H267502   4.097   3.500   6.143 -0.5521 -0.1340 -0.1953
15363TIP3   OH267503   6.335   3.408  17.111  0.0794  0.0101  0.1787
15363TIP3    H167504   6.303   3.404  17.201 -1.4140 -1.2776 -0.3878
15363TIP3    H267505   6.430   3.411  17.120 -0.0296 -0.8174  1.7923
15364TIP3   OH267506   6.093   2.645   0.692  0.5746  0.2771 -0.1586
15364TIP3    H167507   6.037   2.719   0.715 -0.7194 -0.9461  0.7261
15364TIP3    H267508   6.038   2.568   0.707  2.1348 -0.8987 -0.3658
15365TIP3   OH267509   6.023   3.745   5.733  0.3481 -0.1092 -0.1164
15365TIP3    H167510   5.995   3.671   5.680  0.6352  0.0202 -0.4526
15365TIP3    H267511   6.008   3.717   5.823  1.5696 -1.0528 -0.1806
15366TIP3   OH267512   4.904   2.843  14.371  0.4686  0.3394 -0.2338
15366TIP3    H167513   4.981   2.879  14.326  0.6302  0.0734 -0.1738
15366TIP3    H267514   4.836   2.908  14.358  0.5839  0.3742 -0.6602
15367TIP3   OH267515   4.257   0.662  14.121 -0.1899  0.0339  0.1213
15367TIP3    H167516   4.335   0.609  14.109 -0.3858 -0.3802  0.6542
15367TIP3    H267517   4.288   0.752  14.114  0.2245 -0.1353 -0.2958
15368TIP3   OH267518   5.729   3.848   6.283  0.4178 -0.0913 -0.1227
15368TIP3    H167519   5.652   3.904   6.271 -0.5328 -1.5119 -0.8358
15368TIP3    H267520   5.768   3.842   6.196  0.9424  0.0822  0.1032
15369TIP3   OH267521   1.978   0.610   4.674 -0.3393 -0.0751  0.3147
15369TIP3    H167522   1.971   0.546   4.603  0.7863  2.2561 -1.9582
15369TIP3    H267523   2.066   0.597   4.709  0.7373  1.6543 -1.6262
15370TIP3   OH267524   5.710   6.092   4.972  0.1834 -0.1408  0.0347
15370TIP3    H167525   5.615   6.105   4.971  0.4032  1.5555  0.0054
15370TIP3    H267526   5.733   6.085   4.879 -0.1287 -2.4726  0.0869
15371TIP3   OH267527   0.749   2.704  11.701  0.1470 -0.5157  0.5412
15371TIP3    H167528   0.792   2.774  11.652  1.0124 -1.2717  0.2081
15371TIP3    H267529   0.820   2.661  11.748 -0.6224 -0.0608  2.1400
15372TIP3   OH267530   5.725   0.226   5.528  0.0668  0.0645  1.0719
15372TIP3    H167531   5.819   0.233   5.542  0.0596 -0.0676  1.1811
15372TIP3    H267532   5.687   0.296   5.582  0.0253 -0.5782  1.8783
15373TIP3   OH267533   1.025   6.552   4.959  0.3192  0.4712  0.0386
15373TIP3    H167534   1.046   6.642   4.981 -0.3676  0.9356 -1.1185
15373TIP3    H267535   1.009   6.509   5.043  0.3437  1.5034  0.5779
15374TIP3   OH267536   3.171   2.736  16.331 -0.2342 -0.8325 -0.6875
15374TIP3    H167537   3.139   2.668  16.390 -2.1993 -0.9930 -1.8767
15374TIP3    H267538   3.099   2.749  16.269  0.5886  1.4853 -1.2021
15375TIP3   OH267539   2.680   0.283   1.369  0.2672 -0.0093  0.2913
15375TIP3    H167540   2.741   0.272   1.441  0.0648 -0.4376  0.4019
15375TIP3    H267541   2.655   0.375   1.372 -0.2284 -0.1716  1.1688
15376TIP3   OH267542   5.786   0.084   5.142  0.6365  0.0957  0.2587
15376TIP3    H167543   5.755   0.152   5.083  0.3493  1.6310  2.1376
15376TIP3    H267544   5.824   0.018   5.084 -0.0072  1.3504 -1.6552
15377TIP3   OH267545   3.777   5.458   2.189  0.1539 -0.0253  0.2112
15377TIP3    H167546   3.773   5.417   2.276 -0.6462 -2.2998 -0.8501
15377TIP3    H267547   3.866   5.441   2.158  0.2629  0.2896  0.3490
15378TIP3   OH267548   0.973   5.141  11.034 -0.0602  0.6887 -0.3883
15378TIP3    H167549   0.910   5.132  10.962  0.8508 -0.3825 -1.0643
15378TIP3    H267550   1.020   5.057  11.035  1.2278  1.4096  0.2250
15379TIP3   OH267551   4.513   4.977   2.250  0.2273  0.3270 -0.2293
15379TIP3    H167552   4.455   4.904   2.272  0.6626 -0.1190 -0.5449
15379TIP3    H267553   4.537   5.015   2.335 -1.7895  1.5198 -0.1670
15380TIP3   OH267554   6.612   4.839  16.585 -0.2845  0.8357 -0.3091
15380TIP3    H167555   6.620   4.745  16.569 -0.5160  0.4494  1.7636
15380TIP3    H267556   6.699   4.873  16.568  0.3071 -0.0614  0.8138
15381TIP3   OH267557   2.092   2.423  11.553  0.9165 -0.1012  0.4646
15381TIP3    H167558   2.146   2.439  11.631  0.3922  1.4845  0.5277
15381TIP3    H267559   2.006   2.457  11.577  1.0843  1.6432 -1.2691
15382TIP3   OH267560   3.487   3.599  14.282  0.1977  0.2576  0.2057
15382TIP3    H167561   3.535   3.559  14.354 -0.9496  0.3372  1.0500
15382TIP3    H267562   3.468   3.528  14.222  0.4096  0.0196  0.4233
15383TIP3   OH267563   2.195   3.766  14.204 -0.0829  0.2675 -0.0075
15383TIP3    H167564   2.182   3.834  14.138 -1.1433  1.3634  1.2895
15383TIP3    H267565   2.237   3.811  14.277  1.7209 -1.0848 -0.1820
15384TIP3   OH267566   1.161   5.957   1.143  0.4677  0.1028  0.4398
15384TIP3    H167567   1.245   6.002   1.138 -0.3244  1.4987 -0.7527
15384TIP3    H267568   1.100   6.023   1.176 -0.5276 -0.3164 -0.5036
15385TIP3   OH267569   2.157   3.714   2.801  0.3957 -0.2530  0.3206
15385TIP3    H167570   2.148   3.640   2.861 -1.2457 -0.2321  0.1224
15385TIP3    H267571   2.229   3.690   2.743 -0.1650 -1.7415  0.2193
15386TIP3   OH267572   1.717   2.233  13.173 -0.5720  0.4976  0.1369
15386TIP3    H167573   1.646   2.205  13.115  0.2803 -4.0598  1.1303
15386TIP3    H267574   1.794   2.188  13.140  0.7262  0.9339  2.4846
15387TIP3   OH267575   4.186   5.631  15.643  0.5201 -0.0048  0.0608
15387TIP3    H167576   4.195   5.726  15.650  1.8969 -0.0234 -1.2125
15387TIP3    H267577   4.109   5.619  15.588  0.0316  0.3496  0.6498
15388TIP3   OH267578   0.396   2.399   3.560  0.5711  0.2004  1.3204
15388TIP3    H167579   0.381   2.477   3.615 -0.9036  0.4356  0.6090
15388TIP3    H267580   0.478   2.362   3.593  2.4633  3.2578  0.2813
15389TIP3   OH267581   4.104   3.698  12.682  0.1369 -0.0330 -0.6712
15389TIP3    H167582   4.140   3.785  12.699 -0.8147  0.7264 -2.3739
15389TIP3    H267583   4.012   3.704  12.707  0.3968 -1.0035  0.5916
15390TIP3   OH267584   0.494   6.077  17.219 -0.7798  0.2188  0.5739
15390TIP3    H167585   0.576   6.124  17.233 -0.9144  0.5794  0.1851
15390TIP3    H267586   0.461   6.059  17.307 -1.1389  1.5879  0.7344
15391TIP3   OH267587   0.525   1.438   1.049 -0.1296 -0.1062  0.2354
15391TIP3    H167588   0.570   1.402   0.972  2.1317  0.6643  1.1545
15391TIP3    H267589   0.483   1.517   1.016  1.3069  0.5368 -0.1240
15392TIP3   OH267590   2.525   3.277   4.150  0.1386 -0.1548 -0.4824
15392TIP3    H167591   2.579   3.244   4.078  0.1749  0.0840 -0.5652
15392TIP3    H267592   2.475   3.201   4.179 -1.5238  0.2414 -2.2147
15393TIP3   OH267593   5.982   2.594  15.639  0.3630 -0.0683 -0.4411
15393TIP3    H167594   6.032   2.512  15.641 -0.5521 -0.6185  0.2350
15393TIP3    H267595   6.044   2.660  15.669  0.7447 -0.7299  0.2680
15394TIP3   OH267596   4.316   4.796   5.116  0.1081 -0.2212  0.0653
15394TIP3    H167597   4.240   4.835   5.159 -0.0988 -0.9546  0.3737
15394TIP3    H267598   4.391   4.825   5.168 -0.0549 -0.3483  0.3722
15395TIP3   OH267599   1.968   3.563  15.861  0.1392  0.4326 -0.0181
15395TIP3    H167600   2.050   3.598  15.896 -0.0884 -0.1059  1.0656
15395TIP3    H267601   1.947   3.621  15.787 -0.3974  2.8001  1.9299
15396TIP3   OH267602   4.051   5.946   3.582  0.1564  0.2835 -0.5042
15396TIP3    H167603   3.959   5.965   3.603 -0.4196 -3.9625  1.3122
15396TIP3    H267604   4.088   5.914   3.664  2.2206 -1.7506 -2.1764
15397TIP3   OH267605   5.069   2.067  14.603 -0.3069 -0.2185  0.0025
15397TIP3    H167606   5.081   2.111  14.688  1.4242 -0.6576  0.0069
15397TIP3    H267607   4.976   2.078  14.584 -0.8521 -0.5771  2.2328
15398TIP3   OH267608   5.326   5.479   2.931 -0.2302  0.2422  0.2461
15398TIP3    H167609   5.274   5.416   2.980 -0.7456  0.2519 -0.2851
15398TIP3    H267610   5.385   5.425   2.877 -0.0866  0.2250  0.4227
15399TIP3   OH267611   5.733   1.452   2.043  0.3023  0.0858 -0.5028
15399TIP3    H167612   5.652   1.426   2.086  0.2675 -0.4472 -0.8876
15399TIP3    H267613   5.797   1.386   2.071  0.4033  0.0297 -0.8632
15400TIP3   OH267614   4.162   4.759   2.337  0.2833  0.3517  0.2343
15400TIP3    H167615   4.082   4.710   2.354 -0.0203  0.2320 -1.4376
15400TIP3    H267616   4.231   4.712   2.385 -0.5774  0.2489  1.3792
15401TIP3   OH267617   6.067   3.235  12.365 -0.4093 -0.1275  0.3715
15401TIP3    H167618   6.095   3.159  12.416 -0.0178 -0.5734 -0.4988
15401TIP3    H267619   5.978   3.252  12.395 -0.7676 -1.3887  0.0576
15402TIP3   OH267620   0.781   5.741   5.886 -0.1434 -0.3159  0.5589
15402TIP3    H167621   0.739   5.671   5.836 -0.1067 -1.0471  1.5253
15402TIP3    H267622   0.808   5.698   5.967  1.2373  0.4673  0.5257
15403TIP3   OH267623   3.018   3.036   3.727 -0.3603  0.2080  0.0174
15403TIP3    H167624   3.066   3.001   3.653  1.8617  1.2143  0.9340
15403TIP3    H267625   3.006   2.962   3.786  0.2442 -0.0161 -0.1393
15404TIP3   OH267626   6.282   0.174   4.610 -0.6316 -0.2847  0.1334
15404TIP3    H167627   6.329   0.236   4.666  1.2119  0.2034 -1.8881
15404TIP3    H267628   6.207   0.223   4.578  0.7742  0.9115 -1.3897
15405TIP3   OH267629   3.825   6.232   6.390 -0.3625  0.4232  0.1268
15405TIP3    H167630   3.902   6.175   6.387  0.0371  0.9331  0.6283
15405TIP3    H267631   3.860   6.320   6.376 -0.6161  0.8665  2.0937
15406TIP3   OH267632   5.541   0.030  13.522 -0.4206  0.4250  0.2976
15406TIP3    H167633   5.628   0.017  13.559 -0.0129  0.8851 -0.4943
15406TIP3    H267634   5.500  -0.057  13.528  0.4627 -0.0480 -0.2743
15407TIP3   OH267635   0.123   0.764  15.371 -0.0682  0.2819 -0.4526
15407TIP3    H167636   0.093   0.812  15.449  0.2118 -0.7214  0.2749
15407TIP3    H267637   0.140   0.833  15.306 -1.9069  1.0279 -0.1917
15408TIP3   OH267638   5.615   3.978   5.343  0.0076 -0.5325 -0.3754
15408TIP3    H167639   5.579   4.006   5.259  0.8087 -0.8136 -0.8116
15408TIP3    H267640   5.643   3.888   5.329 -1.1358 -1.0621  0.5989
15409TIP3   OH267641   5.734   4.798   1.108  0.8187  0.3361  0.5010
15409TIP3    H167642   5.663   4.829   1.052 -0.5012 -1.8006  0.9498
15409TIP3    H267643   5.708   4.827   1.196  2.2494  2.5510  0.2517
15410TIP3   OH267644   4.829   1.151   5.359 -0.0273  0.3818  0.1594
15410TIP3    H167645   4.905   1.098   5.334 -0.4247  0.2471 -0.7892
15410TIP3    H267646   4.805   1.198   5.279 -2.1968 -1.1436 -0.1318
15411TIP3   OH267647   0.174   5.922  17.164  0.2635  0.1067 -0.1827
15411TIP3    H167648   0.152   5.830  17.180  2.0021 -0.7753 -2.5308
15411TIP3    H267649   0.206   5.955  17.247 -0.8095 -1.2733  0.7969
15412TIP3   OH267650   1.536   2.764   0.918 -0.4394  0.3328  0.1385
15412TIP3    H167651   1.495   2.834   0.867 -0.1976  0.9117  0.7349
15412TIP3    H267652   1.463   2.708   0.944 -0.7079  0.6963  0.1775
15413TIP3   OH267653   0.266   3.057   1.979  0.1305  0.4096  0.0840
15413TIP3    H167654   0.297   3.026   2.064 -2.2706 -0.0626  0.8131
15413TIP3    H267655   0.201   3.124   1.999 -1.2830 -0.4967 -1.3568
15414TIP3   OH267656   4.620   3.793   0.840  0.0463  0.4264  0.0711
15414TIP3    H167657   4.703   3.764   0.803 -0.5871 -0.2708 -0.8422
15414TIP3    H267658   4.630   3.887   0.850  1.1559  0.2677  0.5147
15415TIP3   OH267659   4.163   3.406   1.443 -0.5884 -0.6779 -0.1429
15415TIP3    H167660   4.114   3.454   1.509  0.5690  0.8060 -0.3463
15415TIP3    H267661   4.121   3.429   1.360  1.1206  1.5046 -0.4410
15416TIP3   OH267662   3.229   3.527  14.911  0.5120  0.0816 -0.1761
15416TIP3    H167663   3.253   3.517  14.819  0.1187  0.7224 -0.3531
15416TIP3    H267664   3.303   3.574  14.950  0.4109  0.3409 -0.2975
15417TIP3   OH267665   3.502   6.624  12.351 -0.4594  0.0477 -0.0228
15417TIP3    H167666   3.503   6.664  12.438  1.2983 -0.6345  0.2960
15417TIP3    H267667   3.456   6.541  12.363 -2.0522  0.8851 -0.1989
15418TIP3   OH267668   1.348   4.734  13.667  0.3507 -0.8440 -0.2701
15418TIP3    H167669   1.362   4.641  13.655  0.0640 -1.0226  0.6789
15418TIP3    H267670   1.360   4.773  13.581  0.1957 -1.7941 -0.7178
15419TIP3   OH267671   6.348   6.249  12.326  0.6268 -0.0009  0.1090
15419TIP3    H167672   6.389   6.335  12.331 -0.2317  0.4527 -0.5410
15419TIP3    H267673   6.421   6.187  12.331  1.2978  0.7773 -0.0328
15420TIP3   OH267674   3.006   4.801  13.202 -0.4244 -0.3544  0.0347
15420TIP3    H167675   3.039   4.711  13.211 -0.8617 -0.5883 -0.6700
15420TIP3    H267676   3.048   4.834  13.124 -1.3162 -0.4178 -0.4796
15421TIP3   OH267677   5.203   2.682  16.689 -0.6065 -0.4573  0.5627
15421TIP3    H167678   5.145   2.696  16.614  1.3313 -2.1753 -1.3685
15421TIP3    H267679   5.158   2.617  16.743 -0.9863 -0.9674 -0.3528
15422TIP3   OH267680   0.064   2.394   1.155 -0.3955 -0.6493  0.1596
15422TIP3    H167681   0.121   2.344   1.096  1.6527  2.1981 -0.3640
15422TIP3    H267682   0.095   2.371   1.243  1.2707  0.4490 -0.1054
15423TIP3   OH267683   4.267   1.930   4.357 -0.4851  0.2483  0.5518
15423TIP3    H167684   4.254   1.838   4.335  0.6726  0.2639 -0.2002
15423TIP3    H267685   4.253   1.977   4.274  1.3789  0.5294  0.3843
15424TIP3   OH267686   0.290   4.451  15.784  0.5632 -0.0472 -0.9237
15424TIP3    H167687   0.249   4.441  15.870 -0.6580  1.2940 -1.3280
15424TIP3    H267688   0.376   4.487  15.803  0.6439 -0.6155 -0.1991
15425TIP3   OH267689   4.605   0.077   6.353 -0.4790  0.4454 -0.1846
15425TIP3    H167690   4.584   0.170   6.347  0.0836  0.5677 -0.2082
15425TIP3    H267691   4.527   0.038   6.393 -0.3067  1.0653  0.7633
15426TIP3   OH267692   3.229   2.115   0.825  0.2895 -0.5779 -0.3865
15426TIP3    H167693   3.208   2.209   0.827  2.7694  0.0098 -0.1048
15426TIP3    H267694   3.153   2.073   0.864 -0.1758  1.4746  1.0286
15427TIP3   OH267695   5.449   3.644   4.420 -0.4426  0.4861 -0.1129
15427TIP3    H167696   5.497   3.568   4.388 -2.0426 -0.0460 -1.2902
15427TIP3    H267697   5.439   3.701   4.344  1.1622  2.1240  0.8701
15428TIP3   OH267698   3.815   3.701   1.219  0.4268  0.4266  0.0085
15428TIP3    H167699   3.819   3.782   1.270  0.5606  0.6764 -0.3885
15428TIP3    H267700   3.900   3.660   1.232  0.6507  0.7445 -0.4137
15429TIP3   OH267701   1.187   0.364  10.969 -0.4842  0.9818 -0.2216
15429TIP3    H167702   1.244   0.302  10.923 -0.9815  0.0089  0.4589
15429TIP3    H267703   1.211   0.449  10.933 -0.4742  0.2969 -1.8716
15430TIP3   OH267704   4.773   1.431   3.689 -0.0538  0.0773 -0.3539
15430TIP3    H167705   4.729   1.380   3.622 -0.8043 -0.0998  0.2678
15430TIP3    H267706   4.704   1.456   3.750  0.6467  0.1029  0.4399
15431TIP3   OH267707   1.147   0.061   3.548  0.7974  0.3051 -0.1494
15431TIP3    H167708   1.156  -0.033   3.529  1.9914  0.2482  0.6163
15431TIP3    H267709   1.232   0.098   3.523  0.0183  1.3546 -1.3377
15432TIP3   OH267710   0.085   4.949  12.461 -0.4701  0.4153 -0.0424
15432TIP3    H167711   0.022   5.014  12.431 -2.0798 -1.4761 -0.8842
15432TIP3    H267712   0.032   4.887  12.512  1.0178 -0.2651  0.7060
15433TIP3   OH267713   6.402   0.381   0.781  0.3627  0.2860 -0.3363
15433TIP3    H167714   6.441   0.457   0.824  2.1474 -1.3985  1.1062
15433TIP3    H267715   6.328   0.357   0.838 -0.1596  0.8647 -0.7555
15434TIP3   OH267716   1.200   1.149   0.325  0.4789 -0.3120  0.3563
15434TIP3    H167717   1.191   1.122   0.416  1.2733 -0.9697  0.2523
15434TIP3    H267718   1.260   1.224   0.328  1.1689 -0.8566  0.3004
15435TIP3   OH267719   4.981   3.591  11.081 -0.4398  0.5647  0.3090
15435TIP3    H167720   5.024   3.528  11.023 -1.9913 -0.5881  0.3963
15435TIP3    H267721   4.931   3.648  11.022 -0.4029  0.6525  0.3621
15436TIP3   OH267722   5.369   1.346  12.287 -0.5203 -0.5597 -0.5902
15436TIP3    H167723   5.345   1.263  12.329  2.2052  0.0640  2.4404
15436TIP3    H267724   5.459   1.331  12.257 -0.5401  0.8173 -1.3482
15437TIP3   OH267725   0.376   1.506  12.701 -0.0027 -0.2990 -0.5737
15437TIP3    H167726   0.407   1.589  12.663 -0.7738 -0.1486 -0.8748
15437TIP3    H267727   0.282   1.518  12.711 -0.2564 -1.4836 -1.4781
15438TIP3   OH267728   3.339   4.677   5.303  0.2277 -0.1624  0.5734
15438TIP3    H167729   3.309   4.675   5.394 -0.7198 -1.2662  0.2524
15438TIP3    H267730   3.283   4.742   5.260  1.9947  1.8399  1.1984
15439TIP3   OH267731   4.574   0.953  17.120 -0.3709 -0.5929 -0.5703
15439TIP3    H167732   4.484   0.987  17.124  1.4281  4.5400  0.8863
15439TIP3    H267733   4.604   0.979  17.033  0.7128  0.7493  0.1863
15440TIP3   OH267734   0.989   0.377  15.113  0.5660  1.0775 -0.6938
15440TIP3    H167735   1.062   0.421  15.156 -0.0863  1.1390  0.3810
15440TIP3    H267736   0.911   0.423  15.145 -0.0337  0.0634 -0.6644
15441TIP3   OH267737   5.726   1.720   0.392 -0.0237  0.2414  0.2261
15441TIP3    H167738   5.777   1.692   0.316  2.6851  0.8805  1.7512
15441TIP3    H267739   5.730   1.646   0.452  0.2134  0.7788  0.8798
15442TIP3   OH267740   6.124   4.654  15.425 -0.5712 -0.2219  0.4739
15442TIP3    H167741   6.219   4.651  15.441 -0.4365 -1.3705 -0.4814
15442TIP3    H267742   6.089   4.702  15.501  0.9757  2.0729 -0.1854
15443TIP3   OH267743   5.483   2.632  13.105  0.6014 -0.1221  0.0991
15443TIP3    H167744   5.439   2.568  13.161  0.2118  0.3193  0.3003
15443TIP3    H267745   5.515   2.581  13.031  0.0741 -0.5114  0.1353
15444TIP3   OH267746   5.317   0.026  14.861 -0.2670  0.3130 -0.2497
15444TIP3    H167747   5.317   0.095  14.927 -2.7050  0.3463 -0.2477
15444TIP3    H267748   5.264  -0.044  14.900 -1.2930  0.1193 -1.9320
15445TIP3   OH267749   6.124   3.171   5.245 -0.1224  0.6546  0.0504
15445TIP3    H167750   6.110   3.082   5.214  0.5730  0.6285 -0.1884
15445TIP3    H267751   6.077   3.226   5.182  0.7938  0.5637 -0.7194
15446TIP3   OH267752   3.211   5.755   4.116 -0.0378  0.1186 -0.0841
15446TIP3    H167753   3.222   5.752   4.211 -0.3571 -0.2434 -0.0579
15446TIP3    H267754   3.267   5.828   4.087 -1.3295  1.4064  0.5878
15447TIP3   OH267755   2.560   1.241  15.242 -0.0248  0.0527 -0.4630
15447TIP3    H167756   2.598   1.327  15.256  0.0412 -0.0607  0.0864
15447TIP3    H267757   2.467   1.257  15.230 -0.1633  0.1221  0.6131
15448TIP3   OH267758   3.545   5.736   0.727  0.2354  0.0274  0.0641
15448TIP3    H167759   3.627   5.740   0.678  0.3419  0.7632  0.2985
15448TIP3    H267760   3.557   5.797   0.799 -0.3728 -0.1585  0.3301
15449TIP3   OH267761   4.503   3.679  14.489  0.0611  0.2536 -0.0921
15449TIP3    H167762   4.587   3.723  14.497 -0.5791  1.6730 -0.9836
15449TIP3    H267763   4.438   3.749  14.494 -1.1381 -0.9291  1.5952
15450TIP3   OH267764   1.831   2.818  14.746  0.0829  0.3849  0.1566
15450TIP3    H167765   1.911   2.866  14.763 -0.4899  0.5066  2.7294
15450TIP3    H267766   1.781   2.874  14.687 -0.0205  2.4193  2.0991
15451TIP3   OH267767   3.744   6.738   5.914  0.2677 -0.0048 -0.1525
15451TIP3    H167768   3.782   6.754   6.001 -3.3961  1.2242  1.3385
15451TIP3    H267769   3.794   6.795   5.856  1.4002  0.7726  1.5214
15452TIP3   OH267770   0.308   1.634  14.986  0.0111  0.0153  0.0143
15452TIP3    H167771   0.324   1.539  14.991  0.6596  0.0097 -1.7949
15452TIP3    H267772   0.230   1.642  14.932 -0.9570  0.4652  1.4507
15453TIP3   OH267773   4.791   3.644   1.919  0.0848 -0.1758 -0.4463
15453TIP3    H167774   4.820   3.689   1.998 -1.0825  1.4146 -0.8930
15453TIP3    H267775   4.872   3.611   1.879  0.9959  1.6928 -0.1890
15454TIP3   OH267776   4.820   4.355   0.368 -0.1940 -0.3329  0.2154
15454TIP3    H167777   4.907   4.392   0.384  1.0444 -2.9458 -0.3065
15454TIP3    H267778   4.767   4.431   0.343  2.2163  1.1511 -0.6316
15455TIP3   OH267779   3.526   5.627   1.823 -0.2253  0.2558 -0.0239
15455TIP3    H167780   3.568   5.712   1.816  1.5976 -0.6725 -0.5339
15455TIP3    H267781   3.595   5.568   1.855 -0.7027 -1.6044 -2.2658
15456TIP3   OH267782   0.716   2.718  14.682  0.3605 -0.5955  0.6941
15456TIP3    H167783   0.730   2.728  14.588 -0.0442  0.3168  0.7228
15456TIP3    H267784   0.758   2.635  14.705 -1.3469 -1.8687 -0.6848
15457TIP3   OH267785   0.520   4.541  14.586 -0.6930  0.4851 -0.0430
15457TIP3    H167786   0.595   4.500  14.629 -0.0208  1.7562  0.0211
15457TIP3    H267787   0.445   4.513  14.638 -0.3898 -1.5478 -0.6561
15458TIP3   OH267788   5.427   4.692   5.041  0.7572  0.3037 -0.0548
15458TIP3    H167789   5.351   4.657   4.994  0.4733  1.3108 -0.3581
15458TIP3    H267790   5.417   4.787   5.035 -0.6439  0.5071  4.2634
15459TIP3   OH267791   1.231   5.575   1.576  0.1303 -0.2961  0.0657
15459TIP3    H167792   1.140   5.548   1.585 -0.0948  0.0881 -1.0050
15459TIP3    H267793   1.239   5.651   1.634  0.6740 -2.3774  2.8081
15460TIP3   OH267794   2.984   3.834   4.544  0.4209  0.5502 -0.1277
15460TIP3    H167795   3.029   3.884   4.612 -0.6901  1.2768  0.0866
15460TIP3    H267796   2.916   3.785   4.591  0.0574  0.5738 -0.6263
15461TIP3   OH267797   4.806   5.351   3.529 -0.0792 -0.5511 -0.1437
15461TIP3    H167798   4.862   5.278   3.502  0.3692  0.3185 -1.6163
15461TIP3    H267799   4.720   5.311   3.542  0.7561 -1.8335  1.8130
15462TIP3   OH267800   1.853   6.338  12.984  0.5104  0.2609 -0.0124
15462TIP3    H167801   1.934   6.381  12.956  0.8732 -1.0339 -0.9741
15462TIP3    H267802   1.855   6.253  12.941 -0.7660 -0.2703  0.9540
15463TIP3   OH267803   6.284   1.737  14.469  0.1532 -0.0257 -0.3680
15463TIP3    H167804   6.308   1.818  14.513 -1.4106  1.1377 -1.5661
15463TIP3    H267805   6.304   1.668  14.532 -1.2985  1.5300  1.8900
15464TIP3   OH267806   0.491   0.815  12.427  0.3175 -0.1351  0.1341
15464TIP3    H167807   0.425   0.767  12.478 -0.6903 -0.7215 -1.6659
15464TIP3    H267808   0.465   0.907  12.435  0.7593 -0.1173  1.4872
15465TIP3   OH267809   1.033   5.912  11.634 -0.5264 -0.2028 -0.0656
15465TIP3    H167810   0.992   5.827  11.618  1.1481 -1.1753  0.7013
15465TIP3    H267811   1.027   5.924  11.729 -1.4607  0.9285 -0.2431
15466TIP3   OH267812   5.858   4.339  15.757  0.4315 -0.8549 -0.0664
15466TIP3    H167813   5.875   4.255  15.714  0.2329 -0.1589 -1.5437
15466TIP3    H267814   5.768   4.361  15.733  0.1559 -0.6897  1.1155
15467TIP3   OH267815   6.097   3.173  15.838 -0.1266  0.0179  0.2129
15467TIP3    H167816   6.136   3.159  15.752 -1.6680  1.4044 -0.7463
15467TIP3    H267817   6.093   3.269  15.847 -0.9130 -0.1134  1.3979
15468TIP3   OH267818   5.176   2.800  13.169 -0.2008 -0.4010 -0.6304
15468TIP3    H167819   5.180   2.706  13.152  1.8564 -0.2205 -1.3323
15468TIP3    H267820   5.182   2.841  13.083 -0.9007  0.3908 -0.3182
15469TIP3   OH267821   5.714   5.225  14.662  0.0074  0.0547  0.3647
15469TIP3    H167822   5.742   5.195  14.749 -1.2457 -0.9197  0.4540
15469TIP3    H267823   5.775   5.183  14.601 -0.5738 -1.1876  0.6257
15470TIP3   OH267824   6.176   6.333  13.505 -0.2388 -0.7908 -0.3713
15470TIP3    H167825   6.265   6.368  13.516 -0.6050  0.4716 -1.3868
15470TIP3    H267826   6.171   6.261  13.569  1.0551 -0.0119  0.6352
15471TIP3   OH267827   6.135   5.134   5.750  0.0589 -0.9219 -0.1774
15471TIP3    H167828   6.165   5.222   5.773 -2.7056  0.1924 -0.5196
15471TIP3    H267829   6.171   5.118   5.663 -0.7608  0.6078 -0.8256
15472TIP3   OH267830   5.700   5.517  12.526 -0.0766 -1.3871  0.3794
15472TIP3    H167831   5.676   5.602  12.489 -0.2654 -1.5420  0.1494
15472TIP3    H267832   5.642   5.455  12.484 -0.5908 -1.5094  1.2693
15473TIP3   OH267833   2.986   1.506  15.249 -0.2296 -0.1916 -0.4101
15473TIP3    H167834   3.046   1.468  15.313 -0.8004 -0.5415 -0.0726
15473TIP3    H267835   3.012   1.468  15.165  1.6457  1.6105 -0.6654
15474TIP3   OH267836   5.123   4.105   3.735  0.8042 -0.3624 -0.4848
15474TIP3    H167837   5.040   4.133   3.775  0.9494  0.4830 -0.7680
15474TIP3    H267838   5.128   4.012   3.755  0.0136 -0.3233 -0.0506
15475TIP3   OH267839   0.727   3.283   3.249  0.0473 -0.2892 -0.1266
15475TIP3    H167840   0.645   3.333   3.254  0.0825 -0.2746  0.3169
15475TIP3    H267841   0.753   3.290   3.157  0.2117  0.7740 -0.0101
15476TIP3   OH267842   5.539   5.449   4.883 -0.6110 -0.3906 -0.3099
15476TIP3    H167843   5.472   5.381   4.885  0.6180 -1.5611  1.0289
15476TIP3    H267844   5.618   5.407   4.914  0.2618  1.5495  0.1730
15477TIP3   OH267845   0.962   3.643   5.639 -0.0794 -0.1805 -0.2509
15477TIP3    H167846   0.985   3.735   5.650 -1.1052  0.1159 -0.5247
15477TIP3    H267847   1.021   3.596   5.698 -0.3450  0.7484  0.7674
15478TIP3   OH267848   3.448   3.856  16.983 -0.3965 -0.0498 -0.3387
15478TIP3    H167849   3.523   3.798  16.994  0.1849  0.6825 -0.4065
15478TIP3    H267850   3.452   3.883  16.892  0.5862  1.7962  0.2345
15479TIP3   OH267851   4.781   4.508   2.073  0.1654  0.2236 -0.1026
15479TIP3    H167852   4.783   4.458   2.155  0.7209  0.3930 -0.0170
15479TIP3    H267853   4.829   4.454   2.010 -0.5570 -0.0727 -0.4164
15480TIP3   OH267854   4.401   0.821   4.589 -0.6192 -0.5257  0.2261
15480TIP3    H167855   4.407   0.738   4.637  1.6125  0.2737  1.3960
15480TIP3    H267856   4.387   0.887   4.657  1.3899  0.4876 -0.3330
15481TIP3   OH267857   5.859   6.649  14.216  0.2199 -0.2333 -0.2545
15481TIP3    H167858   5.825   6.586  14.153  0.0258  0.5345 -0.9349
15481TIP3    H267859   5.806   6.728  14.202  0.4962  0.1006  0.5369
15482TIP3   OH267860   1.304   1.413  16.016  0.2579  0.0633  0.3856
15482TIP3    H167861   1.225   1.380  16.058  0.6593  1.6405  2.4705
15482TIP3    H267862   1.295   1.508  16.017  0.5012  0.1892 -2.7770
15483TIP3   OH267863   5.486   1.428  16.258  0.0512  0.5792 -0.2604
15483TIP3    H167864   5.467   1.507  16.206  1.3451  0.9560 -0.1759
15483TIP3    H267865   5.401   1.402  16.293 -0.7246  0.7097 -2.0200
15484TIP3   OH267866   1.252   0.892   2.063 -0.4550 -0.8280 -0.8790
15484TIP3    H167867   1.222   0.972   2.021 -0.6911 -0.5855 -0.2630
15484TIP3    H267868   1.203   0.888   2.145  0.1614 -1.1696 -0.5171
15485TIP3   OH267869   1.116   0.930  16.055  0.1241 -0.1163 -0.2582
15485TIP3    H167870   1.153   0.911  15.969 -0.3141 -0.3091 -0.4100
15485TIP3    H267871   1.187   0.915  16.116  0.4788  0.1592 -0.6028
15486TIP3   OH267872   0.992   2.812   1.717  0.5429 -0.0643  0.0163
15486TIP3    H167873   0.901   2.815   1.749  0.6762 -0.0940  0.3968
15486TIP3    H267874   1.026   2.899   1.734  0.5153  0.0151 -0.3358
15487TIP3   OH267875   2.696   0.710   6.194  0.3836  0.4087 -0.0580
15487TIP3    H167876   2.719   0.761   6.271  1.1101 -1.0920  0.7448
15487TIP3    H267877   2.606   0.735   6.174 -0.6823 -0.9257  2.7436
15488TIP3   OH267878   4.791   5.553  15.238 -0.5562 -0.0401 -0.2286
15488TIP3    H167879   4.797   5.503  15.319 -1.5958 -0.4516 -0.4025
15488TIP3    H267880   4.699   5.547  15.212 -0.1882 -0.1404 -1.5840
15489TIP3   OH267881   2.152   1.160   4.478 -0.2540  0.3402 -0.2230
15489TIP3    H167882   2.146   1.191   4.569  0.1780 -1.5899  0.4716
15489TIP3    H267883   2.062   1.155   4.448 -0.3792  1.4089 -0.0751
15490TIP3   OH267884   0.476   6.615  13.044 -0.4217  0.0702  0.3245
15490TIP3    H167885   0.419   6.567  12.984 -1.5460 -0.3210  1.6670
15490TIP3    H267886   0.549   6.645  12.990 -0.6551 -1.5533 -0.9151
15491TIP3   OH267887   3.658   4.404   0.399  0.1303 -0.2250  0.4256
15491TIP3    H167888   3.632   4.439   0.485  0.8095  0.5394  0.3354
15491TIP3    H267889   3.752   4.387   0.408  0.6729  1.9185 -0.8304
15492TIP3   OH267890   2.937   5.515  10.907  0.4353  0.9939  0.3412
15492TIP3    H167891   2.869   5.582  10.912  1.8390  2.4083  0.7612
15492TIP3    H267892   3.016   5.562  10.880  0.9914 -0.8211 -1.3631
15493TIP3   OH267893   3.031   1.902   3.426 -0.4131  0.2140 -0.0120
15493TIP3    H167894   3.102   1.838   3.437 -1.0458 -0.1007  2.6062
15493TIP3    H267895   2.961   1.854   3.384  0.4273  0.1607 -1.3675
15494TIP3   OH267896   3.545   2.021   0.070  0.3519 -0.2563  0.5870
15494TIP3    H167897   3.491   1.990   0.143  0.9160 -1.7922  0.3787
15494TIP3    H267898   3.493   2.003  -0.008  0.6602 -0.6197  0.4645
15495TIP3   OH267899   3.497   0.383  16.862  0.3501  0.3253 -0.0025
15495TIP3    H167900   3.543   0.409  16.782  0.1130  0.6431 -0.0362
15495TIP3    H267901   3.537   0.300  16.886  0.0388 -0.0404 -0.7526
15496TIP3   OH267902   1.231   2.761  12.978  0.5106  0.7608 -0.3467
15496TIP3    H167903   1.236   2.748  12.884  1.5158 -1.3785 -0.0283
15496TIP3    H267904   1.157   2.707  13.007  2.4048 -1.4897  0.5076
15497TIP3   OH267905   2.978   0.985   0.715  0.4639  0.0061 -0.1844
15497TIP3    H167906   2.929   1.049   0.664  1.3160  0.3158 -0.6383
15497TIP3    H267907   2.986   1.024   0.802  1.6675  0.9060 -0.6742
15498TIP3   OH267908   5.462   1.266  15.519 -0.4444 -0.0413 -0.0470
15498TIP3    H167909   5.556   1.247  15.521 -0.0140  2.0696  1.0993
15498TIP3    H267910   5.422   1.196  15.570  0.7687  0.3404  1.4525
15499TIP3   OH267911   5.854   5.726   0.700  0.2319  0.4978  0.6726
15499TIP3    H167912   5.939   5.721   0.742  0.4943 -1.1595 -0.0091
15499TIP3    H267913   5.791   5.723   0.772  0.7332  2.7513  1.2503
15500TIP3   OH267914   0.111   6.035  12.045 -0.1727  0.1512  0.2548
15500TIP3    H167915   0.156   6.023  11.961  0.0714 -0.4939  0.4775
15500TIP3    H267916   0.133   6.124  12.071  0.5101  0.0336  0.0852
15501TIP3   OH267917   5.646   3.562  12.503  0.0356 -0.1002  0.1093
15501TIP3    H167918   5.646   3.553  12.598  4.5226 -1.3703  0.0884
15501TIP3    H267919   5.691   3.644  12.486 -0.4232 -0.0552 -0.9368
15502TIP3   OH267920   6.389   5.538   0.755 -0.3507  0.6312  0.3534
15502TIP3    H167921   6.338   5.458   0.741  0.1912  0.6294 -1.7389
15502TIP3    H267922   6.324   5.605   0.776 -0.7138 -0.6143  3.6510
15503TIP3   OH267923   4.760   2.697   1.962  0.4527 -0.2812  0.1143
15503TIP3    H167924   4.704   2.772   1.982  1.1372  1.2885 -3.4271
15503TIP3    H267925   4.701   2.622   1.964 -1.5821  1.1633 -2.2050
15504TIP3   OH267926   3.797   0.888  11.766 -0.1358  0.2345 -0.0087
15504TIP3    H167927   3.744   0.849  11.696  0.7879  0.8601 -1.0726
15504TIP3    H267928   3.859   0.945  11.720  3.0378 -2.2797  1.0021
15505TIP3   OH267929   3.437   0.906   4.418 -1.0289 -0.1356 -0.2735
15505TIP3    H167930   3.422   0.813   4.431  0.6420 -0.3592  0.2058
15505TIP3    H267931   3.413   0.922   4.327 -1.8870 -0.9057 -0.1855
15506TIP3   OH267932   2.738   3.219  13.750  0.0054 -0.0532  0.5306
15506TIP3    H167933   2.727   3.308  13.784 -0.3239  0.4931 -0.9530
15506TIP3    H267934   2.809   3.182  13.802  0.5224  1.2742  0.7946
15507TIP3   OH267935   1.012   0.600  13.828  0.0723  0.4336  0.6012
15507TIP3    H167936   0.925   0.568  13.853  0.3857 -0.7904  0.1623
15507TIP3    H267937   1.072   0.543  13.876  0.6310  1.7611  1.4918
15508TIP3   OH267938   0.081   6.199   0.546  0.7551 -0.2017  0.4282
15508TIP3    H167939   0.122   6.261   0.486  2.7045  0.1976  2.1184
15508TIP3    H267940   0.137   6.121   0.541 -1.0076 -1.4319 -0.8005
15509TIP3   OH267941   1.082   0.682  10.765  0.6523 -0.9710 -0.4894
15509TIP3    H167942   1.148   0.650  10.826 -0.7112 -3.0334 -0.0443
15509TIP3    H267943   1.003   0.692  10.819  0.4808  1.0918 -1.0908
15510TIP3   OH267944   2.536   0.879  16.245  0.1765  0.2152 -0.3385
15510TIP3    H167945   2.498   0.800  16.285 -0.4510  1.5170  1.7072
15510TIP3    H267946   2.495   0.883  16.158  0.1462 -1.6439 -0.4418
15511TIP3   OH267947   3.125   3.232  17.009 -0.4183  0.1175  0.2827
15511TIP3    H167948   3.171   3.312  17.033  0.4579 -0.6611  1.2892
15511TIP3    H267949   3.034   3.259  16.994 -0.1571  1.2641  0.7361
15512TIP3   OH267950   1.807   4.136   3.219 -0.2924 -0.4864 -0.0176
15512TIP3    H167951   1.788   4.081   3.295 -0.2621  0.4256  0.6656
15512TIP3    H267952   1.903   4.138   3.214 -0.2824 -0.1422  0.2363
15513TIP3   OH267953   3.407   2.969   4.373 -0.3412  0.0305 -0.0024
15513TIP3    H167954   3.416   3.042   4.434 -1.6166  0.8058 -0.6946
15513TIP3    H267955   3.317   2.938   4.386  0.2993 -1.6696  0.5377
15514TIP3   OH267956   4.242   3.708   4.715  0.0191  0.3874  0.3614
15514TIP3    H167957   4.159   3.735   4.674 -0.3275 -0.7042  0.3239
15514TIP3    H267958   4.232   3.614   4.729  2.0123 -0.1407 -1.4402
15515TIP3   OH267959   3.454   1.327  16.374  0.2186 -0.4898  0.6294
15515TIP3    H167960   3.448   1.392  16.444 -0.6531  0.3489 -0.2039
15515TIP3    H267961   3.366   1.324  16.337  0.2897 -2.0716  0.5894
15516TIP3   OH267962   2.050   1.336  12.556  0.3293 -0.2429 -0.0964
15516TIP3    H167963   1.978   1.290  12.599  0.9344 -0.8343  0.3161
15516TIP3    H267964   2.049   1.304  12.466 -0.9709  1.0327 -0.5471
15517TIP3   OH267965   4.153   6.690   2.524  0.0935 -0.6407 -0.4958
15517TIP3    H167966   4.242   6.714   2.551  0.2417 -0.2762 -1.2806
15517TIP3    H267967   4.099   6.704   2.601  0.2822  1.6426 -0.7603
15518TIP3   OH267968   3.944   2.179   5.301 -0.1863  0.1224  0.0974
15518TIP3    H167969   4.039   2.186   5.313 -0.1163 -1.3891  0.5669
15518TIP3    H267970   3.913   2.269   5.302  1.0809  0.5584  1.3802
15519TIP3   OH267971   2.570   4.126  14.784 -0.6665  0.1517  0.0259
15519TIP3    H167972   2.624   4.175  14.847 -1.4816  1.5714 -0.3568
15519TIP3    H267973   2.524   4.062  14.838  0.0153  0.1483  0.6190
15520TIP3   OH267974   2.922   1.663   0.328  0.2539  0.2550 -0.1186
15520TIP3    H167975   3.016   1.648   0.342  0.2858 -0.8542 -1.4051
15520TIP3    H267976   2.917   1.694   0.237 -0.7581 -1.1261 -0.5431
15521TIP3   OH267977   3.932   3.971  17.019  0.4421 -0.2086 -0.1860
15521TIP3    H167978   3.924   3.879  17.042  0.3978 -0.4197 -1.0240
15521TIP3    H267979   3.844   3.997  16.993  0.2923  0.2763  0.7899
15522TIP3   OH267980   0.363   1.854   4.383  0.5233 -0.3213 -0.1320
15522TIP3    H167981   0.293   1.858   4.318  0.5540 -0.3181 -0.1651
15522TIP3    H267982   0.402   1.942   4.381  0.3391 -0.2343  0.0941
15523TIP3   OH267983   0.217   1.929  14.662 -0.0562 -0.0835  0.6869
15523TIP3    H167984   0.240   1.838  14.639 -0.0955  0.4417 -1.5492
15523TIP3    H267985   0.267   1.947  14.742  0.1843 -1.9705  0.9813
15524TIP3   OH267986   0.479   4.857  13.742 -0.4364  0.1338 -0.2557
15524TIP3    H167987   0.429   4.836  13.821  1.4225  1.1410  1.2117
15524TIP3    H267988   0.506   4.772  13.707 -0.1332 -0.2545  0.9259
15525TIP3   OH267989   4.165   3.972  11.786 -0.4204 -0.2550  0.3677
15525TIP3    H167990   4.250   4.012  11.767 -1.7248  2.0009 -0.8369
15525TIP3    H267991   4.163   3.967  11.882 -0.3534  2.9208  0.5976
15526TIP3   OH267992   1.424   0.221   5.174  0.3801 -0.3909 -0.3243
15526TIP3    H167993   1.518   0.230   5.158  1.3452 -0.9192  4.2757
15526TIP3    H267994   1.409   0.272   5.254 -3.2143 -0.5599 -0.8413
15527TIP3   OH267995   0.485   5.215  17.196  0.7312  0.1626  0.1248
15527TIP3    H167996   0.425   5.283  17.167  0.4911  0.4341  1.2124
15527TIP3    H267997   0.447   5.183  17.278  1.5725 -0.3211  0.3335
15528TIP3   OH267998   6.312   4.055   5.617 -0.7816  0.5797  0.7229
15528TIP3    H167999   6.405   4.031   5.617 -0.3918  2.0501  0.9613
15528TIP3    H268000   6.310   4.144   5.651 -2.0925  1.3375 -1.2456
15529TIP3   OH268001   1.632   3.697  15.787  0.3989 -0.0513 -0.4599
15529TIP3    H168002   1.647   3.699  15.881  2.6298  0.8687 -0.8051
15529TIP3    H268003   1.559   3.759  15.773  0.1011 -0.1448  0.6356
15530TIP3   OH268004   2.777   3.846  12.989  0.2473 -0.0328  0.0865
15530TIP3    H168005   2.720   3.785  13.035 -1.3402  1.3179 -0.0441
15530TIP3    H268006   2.792   3.917  13.052  1.3882 -0.1367 -0.0536
15531TIP3   OH268007   4.333   4.999  16.916 -0.5121 -0.1122 -0.7123
15531TIP3    H168008   4.400   5.026  16.979 -1.3230  0.7753 -0.2051
15531TIP3    H268009   4.320   4.906  16.933 -0.2677 -0.0208  0.0086
15532TIP3   OH268010   4.560   6.426   2.618  0.3416 -0.3087  0.6524
15532TIP3    H168011   4.506   6.488   2.569  0.5156 -0.5069  0.2096
15532TIP3    H268012   4.604   6.480   2.684 -0.2447 -0.1172  0.8843
15533TIP3   OH268013   1.078   2.086  14.503 -0.3926  0.4456  0.1308
15533TIP3    H168014   1.073   2.173  14.465 -0.3106  0.3695 -0.0551
15533TIP3    H268015   1.112   2.100  14.592  2.2788  0.3520 -0.8188
15534TIP3   OH268016   1.189   0.543   0.103  0.5152 -0.4756  0.0165
15534TIP3    H168017   1.275   0.528   0.063  0.6516  1.0783 -0.2853
15534TIP3    H268018   1.149   0.611   0.049 -1.2558 -1.7675 -0.3437
15535TIP3   OH268019   0.074   6.506  13.962 -0.3306  0.1100 -0.5807
15535TIP3    H168020   0.034   6.528  14.046  1.5770  1.6762 -0.0462
15535TIP3    H268021   0.144   6.445  13.984  0.8793  1.3753 -0.9006
15536TIP3   OH268022   5.533   1.424   2.979 -0.5965 -0.5407 -0.2591
15536TIP3    H168023   5.560   1.422   2.887 -0.4995  0.2571 -0.2568
15536TIP3    H268024   5.578   1.501   3.015 -0.9080 -0.6497  0.3664
15537TIP3   OH268025   0.050   3.667   1.541 -0.1710 -0.3027  0.4438
15537TIP3    H168026   0.079   3.716   1.464 -0.5670  0.0555  0.5222
15537TIP3    H268027  -0.014   3.724   1.584 -1.2061 -1.1910  0.1202
15538TIP3   OH268028   5.079   3.852  14.430  0.2517 -0.3297  0.1913
15538TIP3    H168029   5.116   3.893  14.508 -0.4650  1.0681 -0.1909
15538TIP3    H268030   5.010   3.794  14.463 -0.3872  0.6409  0.5669
15539TIP3   OH268031   4.307   1.242   5.523 -0.4053  0.1008 -0.2639
15539TIP3    H168032   4.246   1.314   5.540 -1.0077 -0.0382 -1.7578
15539TIP3    H268033   4.331   1.253   5.431  0.2750 -1.0274 -0.2248
15540TIP3   OH268034   0.407   3.152  15.177 -0.3031  0.0136  0.6485
15540TIP3    H168035   0.492   3.110  15.162  0.2837  1.5565 -0.5176
15540TIP3    H268036   0.374   3.110  15.256  0.7669 -1.8193  0.1693
15541TIP3   OH268037   3.184   5.605  13.767  0.0326 -0.2557  0.2797
15541TIP3    H168038   3.179   5.510  13.775  2.1487 -0.5415 -1.4914
15541TIP3    H268039   3.209   5.621  13.676 -1.1105  2.0270  0.3416
15542TIP3   OH268040   6.193   4.546   1.690  0.3121  0.6511 -0.2410
15542TIP3    H168041   6.190   4.465   1.638  1.2258  0.2306  0.3463
15542TIP3    H268042   6.169   4.518   1.778  1.0124  0.9501  0.0443
15543TIP3   OH268043   3.006   3.037  10.554 -0.0401  0.4610 -0.2310
15543TIP3    H168044   3.063   3.019  10.629  0.4877  1.7066 -0.3018
15543TIP3    H268045   2.928   2.984  10.568  1.4644 -1.8849 -0.5252
15544TIP3   OH268046   5.875   4.898  15.274  0.3630  0.2215  0.6433
15544TIP3    H168047   5.957   4.934  15.242  0.3288 -1.4467 -1.4307
15544TIP3    H268048   5.827   4.973  15.307  1.2654  1.7394 -1.3860
15545TIP3   OH268049   6.587   2.646   3.314 -0.2402  0.2712  0.4142
15545TIP3    H168050   6.506   2.598   3.293 -0.3682  0.3872  0.6376
15545TIP3    H268051   6.571   2.735   3.283  0.0986  0.1050 -0.2345
15546TIP3   OH268052   1.555   0.397  13.154  0.1180  0.0988  0.1800
15546TIP3    H168053   1.487   0.354  13.206  0.3413  0.6446  0.9272
15546TIP3    H268054   1.598   0.325  13.107 -0.4246 -0.3392  0.3474
15547TIP3   OH268055   5.058   1.089  14.731 -0.0586  0.4008 -0.3103
15547TIP3    H168056   5.076   1.101  14.824 -1.2672 -0.2420  0.0025
15547TIP3    H268057   5.073   1.176  14.693 -0.1748  0.8103  0.5690
15548TIP3   OH268058   3.213   4.639   2.637 -0.1253  0.1412  0.0975
15548TIP3    H168059   3.262   4.720   2.625  0.0558  0.1802  1.0812
15548TIP3    H268060   3.122   4.667   2.643 -0.0328  0.3056  0.7633
15549TIP3   OH268061   5.998   5.104   1.965 -0.7972 -0.4125  0.5463
15549TIP3    H168062   6.078   5.076   1.920  0.1759  2.4053  0.4223
15549TIP3    H268063   5.991   5.197   1.946 -2.2589  0.1252  3.3776
15550TIP3   OH268064   5.232   1.944   1.467 -0.6345 -0.2985  0.3470
15550TIP3    H168065   5.189   2.012   1.415 -1.2040 -0.3694  0.7138
15550TIP3    H268066   5.169   1.925   1.537  0.1008 -0.2312  1.0325
15551TIP3   OH268067   5.184   6.327   4.887 -0.0942 -0.2486 -0.1053
15551TIP3    H168068   5.189   6.396   4.822 -0.4424 -1.2891 -1.2489
15551TIP3    H268069   5.120   6.265   4.851 -3.0501  0.8927  2.8590
15552TIP3   OH268070   4.797   5.256   0.776 -0.0084  0.1140 -0.0551
15552TIP3    H168071   4.733   5.187   0.759 -0.5180  0.4590  0.4623
15552TIP3    H268072   4.751   5.318   0.833  0.7686  0.3921  0.2684
15553TIP3   OH268073   1.948   2.425   3.251  0.1100  0.5966 -0.2232
15553TIP3    H168074   2.000   2.484   3.197  0.8291  0.9447  0.8340
15553TIP3    H268075   2.004   2.347   3.261 -1.1085 -0.5928 -2.1923
15554TIP3   OH268076   5.715   2.580  12.036  0.5479 -0.0756  0.1253
15554TIP3    H168077   5.801   2.620  12.024 -0.2188  1.5381  0.0195
15554TIP3    H268078   5.728   2.518  12.108  1.4547  1.2127  1.0875
15555TIP3   OH268079   5.334   1.982   2.112  0.2428  0.5776 -0.4092
15555TIP3    H168080   5.239   1.975   2.103  0.0509  0.0586  1.6554
15555TIP3    H268081   5.352   2.076   2.109 -0.4213  0.7177 -0.1220
15556TIP3   OH268082   5.416   6.708   0.027  0.6519  0.2550 -0.2870
15556TIP3    H168083   5.429   6.709  -0.068 -0.4833  1.3090 -0.4405
15556TIP3    H268084   5.322   6.700   0.039  0.7519  0.4583  0.7499
15557TIP3   OH268085   4.324   2.847   3.890  0.2023 -0.5031 -0.2223
15557TIP3    H168086   4.419   2.859   3.889 -0.0056  1.1969  0.3727
15557TIP3    H268087   4.293   2.896   3.814 -0.2538 -0.6594 -0.1396
15558TIP3   OH268088   6.243   6.694  14.883 -0.1277 -0.4402  0.0814
15558TIP3    H168089   6.281   6.720  14.967 -0.8663 -1.1089  0.6279
15558TIP3    H268090   6.189   6.768  14.857 -0.0658 -0.3159  0.3016
15559TIP3   OH268091   2.275   4.846   1.344 -0.4875 -0.8394  0.0611
15559TIP3    H168092   2.275   4.751   1.343 -0.7347 -0.8697  1.5669
15559TIP3    H268093   2.196   4.870   1.392 -0.6834  0.1323 -0.7291
15560TIP3   OH268094   3.926   5.014  12.350  0.1789  0.1106  0.4071
15560TIP3    H168095   3.860   4.945  12.359  0.1643  0.0420 -0.1799
15560TIP3    H268096   3.879   5.086  12.306 -0.0858  0.8981  1.9400
15561TIP3   OH268097   3.386   0.929  14.709  0.4696  0.9058  0.6244
15561TIP3    H168098   3.342   0.859  14.661 -1.6512  1.4211  1.7565
15561TIP3    H268099   3.390   1.002  14.647 -0.1555  0.8080  0.4655
15562TIP3   OH268100   0.111   5.476   3.850 -0.2356 -0.0148 -0.1481
15562TIP3    H168101   0.082   5.537   3.918 -1.1252  0.1454 -0.6677
15562TIP3    H268102   0.200   5.505   3.828 -0.2146  0.3673  0.4347
15563TIP3   OH268103   0.999   6.237   5.049 -0.2923 -0.0249  0.0149
15563TIP3    H168104   1.084   6.230   5.006 -0.0590  1.3401  0.2024
15563TIP3    H268105   0.943   6.281   4.984 -0.9447 -1.2101 -0.2293
15564TIP3   OH268106   6.520   1.654  15.873 -0.4113  0.2003  0.1121
15564TIP3    H168107   6.543   1.658  15.780 -1.4597 -0.5549 -0.1933
15564TIP3    H268108   6.554   1.570  15.902  1.6592  1.2942  0.9098
15565TIP3   OH268109   6.144   4.042  12.472  0.2735  0.4458  0.7475
15565TIP3    H168110   6.065   4.001  12.506  1.2537 -1.3073  0.9498
15565TIP3    H268111   6.132   4.039  12.377 -0.3331  1.0669  0.7986
15566TIP3   OH268112   1.890   6.200   2.916  0.4156 -0.4929 -0.6062
15566TIP3    H168113   1.795   6.213   2.913  0.3830 -0.7748 -0.7761
15566TIP3    H268114   1.922   6.270   2.973 -0.0333 -1.1549  0.4789
15567TIP3   OH268115   6.655   6.519  14.766  0.0508  0.1507  0.5183
15567TIP3    H168116   6.634   6.521  14.673 -0.0900 -1.5102  0.5016
15567TIP3    H268117   6.647   6.427  14.790  4.3589 -0.1377  1.1813
15568TIP3   OH268118   2.967   1.779  15.280 -0.0749 -0.2831  0.2958
15568TIP3    H168119   2.975   1.685  15.268 -1.5673 -0.4016  0.1251
15568TIP3    H268120   3.040   1.802  15.337  0.0941 -1.5929  0.6268
15569TIP3   OH268121   6.059   5.753   5.446 -0.1428  0.6116  0.1910
15569TIP3    H168122   6.053   5.842   5.410  0.6283  0.4675 -0.2861
15569TIP3    H268123   6.107   5.703   5.381 -0.9759 -0.2849  0.2440
15570TIP3   OH268124   0.681   1.721  14.989  0.1634 -0.3307 -0.2113
15570TIP3    H168125   0.631   1.730  15.070  1.3066 -1.0228  0.5808
15570TIP3    H268126   0.698   1.812  14.962  2.7632 -0.0412  2.2061
15571TIP3   OH268127   4.461   1.665  14.854 -0.1292 -0.4859 -0.2628
15571TIP3    H168128   4.523   1.733  14.878 -1.5720  0.3374  1.2341
15571TIP3    H268129   4.430   1.690  14.767 -1.0660  1.0881  0.5101
15572TIP3   OH268130   4.303   3.782   3.242 -0.5397  0.0975  0.2802
15572TIP3    H168131   4.329   3.761   3.332 -0.6279  0.0960  0.3047
15572TIP3    H268132   4.290   3.697   3.200  1.6901  0.0348 -0.3655
15573TIP3   OH268133   1.802   4.759  11.585  0.2683 -0.2630  0.3899
15573TIP3    H168134   1.741   4.727  11.519  0.7902  0.5211 -0.4816
15573TIP3    H268135   1.852   4.681  11.611  0.4251 -0.4682 -0.5257
15574TIP3   OH268136   5.334   3.747   2.081 -0.0860  0.2957  0.2277
15574TIP3    H168137   5.323   3.689   2.006  0.7798  1.9706 -1.2386
15574TIP3    H268138   5.332   3.689   2.157 -0.5596 -1.4794 -1.1068
15575TIP3   OH268139   1.064   6.168  15.304  0.2301  0.2842 -0.3405
15575TIP3    H168140   1.125   6.164  15.231  0.1478 -2.0262 -0.3166
15575TIP3    H268141   0.978   6.177  15.263  0.3459  0.7084 -0.4821
15576TIP3   OH268142   2.049   1.469   5.136 -0.0675 -0.2443  0.7466
15576TIP3    H168143   2.060   1.448   5.229  0.3263 -0.8555  0.5670
15576TIP3    H268144   1.962   1.435   5.114 -0.1710 -0.0780  0.8994
15577TIP3   OH268145   1.642   3.228  15.984  0.5924 -0.6083 -0.4198
15577TIP3    H168146   1.702   3.303  15.987  0.8267 -0.7697 -0.9366
15577TIP3    H268147   1.697   3.154  16.010  0.2677 -0.5383  0.4459
15578TIP3   OH268148   3.669   4.392   5.295  0.4197  0.0266 -0.5560
15578TIP3    H168149   3.614   4.460   5.257  1.5475  0.8322 -0.7848
15578TIP3    H268150   3.695   4.338   5.221 -0.7820 -0.8885 -0.3214
15579TIP3   OH268151   1.826   2.478   4.721  0.0128 -0.0566 -0.7252
15579TIP3    H168152   1.768   2.414   4.680 -1.7945 -0.0571  1.6843
15579TIP3    H268153   1.800   2.478   4.813  1.9543  2.0389 -0.1285
15580TIP3   OH268154   6.223   2.651  11.462 -0.2603 -0.1202  0.1277
15580TIP3    H168155   6.301   2.622  11.509 -0.0803 -3.1534 -1.8794
15580TIP3    H268156   6.246   2.642  11.369 -2.2051  1.1827 -0.5113
15581TIP3   OH268157   2.633   1.704  12.454  0.1979  0.4266  0.3299
15581TIP3    H168158   2.697   1.634  12.448 -0.4301  0.1039 -4.5418
15581TIP3    H268159   2.682   1.784  12.436 -0.2014  0.5383 -0.2659
15582TIP3   OH268160   4.402   2.469   5.653  0.4620  0.8754 -0.3602
15582TIP3    H168161   4.384   2.465   5.747 -0.8638  1.4611 -0.5681
15582TIP3    H268162   4.388   2.379   5.623 -2.3300  1.3121 -0.5118
15583TIP3   OH268163   0.290   2.076  13.443 -0.2790 -0.1920  0.0919
15583TIP3    H168164   0.242   2.101  13.521  0.5034 -0.6214  0.7150
15583TIP3    H268165   0.232   2.099  13.370 -0.8568  0.5304  0.7802
15584TIP3   OH268166   5.514   4.958  15.436 -0.3660  0.5394 -0.5109
15584TIP3    H168167   5.490   4.923  15.350  0.0498 -2.8187  0.7027
15584TIP3    H268168   5.584   4.901  15.467  1.7333  3.6656  0.7126
15585TIP3   OH268169   6.109   4.692  14.498 -0.1410 -0.7160 -1.2570
15585TIP3    H168170   6.101   4.761  14.433  1.3470 -0.9588 -1.7050
15585TIP3    H268171   6.167   4.627  14.458 -0.7502 -1.7684 -0.4551
15586TIP3   OH268172   1.225   1.012  13.695  0.3717  0.2968  0.3133
15586TIP3    H168173   1.174   0.932  13.681 -0.3659  0.8755 -0.3639
15586TIP3    H268174   1.183   1.055  13.769  1.0532 -0.1777  0.9706
15587TIP3   OH268175   3.693   3.400   5.527 -0.1324 -0.1733  0.3865
15587TIP3    H168176   3.697   3.478   5.471 -0.4017 -1.3847 -1.3676
15587TIP3    H268177   3.610   3.359   5.504  0.3140 -1.3359  0.8324
15588TIP3   OH268178   4.860   2.345  13.959 -0.1428  0.9330 -0.8759
15588TIP3    H168179   4.785   2.290  13.983  0.1867  1.3103  1.1525
15588TIP3    H268180   4.826   2.407  13.896 -1.4935  0.9388 -0.1521
15589TIP3   OH268181   2.725   0.597   3.375 -0.2938  0.0030  0.5436
15589TIP3    H168182   2.692   0.669   3.320  0.2913 -0.8908 -0.9895
15589TIP3    H268183   2.694   0.518   3.332 -0.2568 -0.7057  1.7992
15590TIP3   OH268184   5.721   4.811   5.850 -0.3905  0.1078  0.2506
15590TIP3    H168185   5.803   4.854   5.822  0.4174  0.8414  3.5484
15590TIP3    H268186   5.653   4.872   5.824  0.3746  1.0251  0.3461
15591TIP3   OH268187   1.525   3.483   2.190  0.9377 -0.3823  0.1335
15591TIP3    H168188   1.499   3.570   2.220  1.7124 -0.2481  0.4382
15591TIP3    H268189   1.584   3.500   2.116 -0.0975 -0.6886 -0.7800
15592TIP3   OH268190   2.481   1.479   4.797  0.0598  0.5024 -0.4265
15592TIP3    H168191   2.435   1.544   4.850  0.0980 -0.0498  0.2912
15592TIP3    H268192   2.523   1.530   4.728 -0.9152  1.0982 -0.5805
15593TIP3   OH268193   1.899   4.504   1.932  0.2976 -0.0154  0.3890
15593TIP3    H168194   1.859   4.515   2.018  0.2447 -1.8577  0.6101
15593TIP3    H268195   1.846   4.436   1.889  0.1050  1.1239 -1.2261
15594TIP3   OH268196   2.120   5.474  14.659 -0.4833 -0.2615 -0.0159
15594TIP3    H168197   2.167   5.535  14.716  0.6473  0.8774 -2.1141
15594TIP3    H268198   2.040   5.521  14.634  0.3324  0.3380 -1.5388
15595TIP3   OH268199   2.324   4.916   4.640  0.1650 -0.1449 -0.1952
15595TIP3    H168200   2.371   4.888   4.562 -0.4308 -1.3596 -0.1416
15595TIP3    H268201   2.232   4.902   4.619 -0.3190  3.7444 -0.8814
15596TIP3   OH268202   0.248   3.622   0.338 -0.6840 -0.0780 -0.2592
15596TIP3    H168203   0.297   3.540   0.344  0.3150  0.4492 -1.0530
15596TIP3    H268204   0.314   3.690   0.347 -1.6057  0.6656  1.1629
15597TIP3   OH268205   2.760   1.298   5.186 -0.3009 -0.7757  0.2296
15597TIP3    H168206   2.784   1.320   5.096 -1.9128  0.9538  0.1769
15597TIP3    H268207   2.840   1.311   5.236  0.1387  0.1244 -0.6798
15598TIP3   OH268208   0.861   2.885  10.351 -0.0383 -0.5314 -0.1908
15598TIP3    H168209   0.815   2.887  10.434 -1.2860 -2.2517 -0.8153
15598TIP3    H268210   0.806   2.831  10.294  0.7935  0.5888 -2.1262
15599TIP3   OH268211   4.250   6.667   3.716  0.1724  0.5294  0.6068
15599TIP3    H168212   4.197   6.684   3.639 -0.2577  0.2666  0.8448
15599TIP3    H268213   4.289   6.581   3.700  1.9399  1.4690 -0.3655
15600TIP3   OH268214   3.243   0.749  13.863  0.4395 -0.1546 -0.4841
15600TIP3    H168215   3.200   0.789  13.939  1.7072  0.7261 -0.2275
15600TIP3    H268216   3.222   0.808  13.790  2.4214  1.0748 -0.0806
15601TIP3   OH268217   6.293   0.575   1.914 -0.3915 -0.2976 -0.1358
15601TIP3    H168218   6.260   0.613   1.995  0.3928 -1.4102  0.7226
15601TIP3    H268219   6.342   0.498   1.942  0.4248 -0.3346 -1.6228
15602TIP3   OH268220   2.380   0.754  14.832 -0.0908 -0.1549  0.2893
15602TIP3    H168221   2.363   0.676  14.780 -0.1028  0.2100 -0.2558
15602TIP3    H268222   2.321   0.746  14.908  0.5605 -1.1169  0.6972
15603TIP3   OH268223   5.003   3.239   3.048 -0.0750 -0.4225  0.1333
15603TIP3    H168224   4.929   3.249   2.988  1.6027  0.7223 -1.8357
15603TIP3    H268225   4.963   3.230   3.134 -2.4742  1.3158 -0.7313
15604TIP3   OH268226   1.372   5.021   4.383  0.1221  0.9423  0.4271
15604TIP3    H168227   1.297   5.054   4.334 -0.6531 -0.2239  0.7927
15604TIP3    H268228   1.401   4.944   4.334  1.0823  1.3769  0.2967
15605TIP3   OH268229   0.689   2.016  12.461 -0.1542 -0.3863  0.3712
15605TIP3    H168230   0.734   1.946  12.507  1.0070  0.0254 -0.1276
15605TIP3    H268231   0.685   2.088  12.525 -0.0064 -0.3887  0.3832
15606TIP3   OH268232   5.994   5.665   2.578 -0.5951 -0.1433  0.4111
15606TIP3    H168233   5.914   5.664   2.631 -2.5189  0.7931 -2.3452
15606TIP3    H268234   5.977   5.602   2.508  0.2941  1.4530 -1.2873
15607TIP3   OH268235   0.829   6.301  14.126  0.5076  0.0043 -0.3010
15607TIP3    H168236   0.813   6.392  14.101  1.5448  0.2050 -0.2449
15607TIP3    H268237   0.915   6.281  14.090 -0.3820 -1.4667 -1.7118
15608TIP3   OH268238   2.051   5.743   5.967 -0.2963 -0.4972  0.5920
15608TIP3    H168239   2.066   5.836   5.954  0.0341 -0.4872  1.0378
15608TIP3    H268240   2.103   5.721   6.044  1.3406 -1.5004 -0.7667
15609TIP3   OH268241   3.736   5.887   0.541  0.4798 -0.3226 -0.1113
15609TIP3    H168242   3.756   5.926   0.456 -1.5356 -0.7263 -0.8001
15609TIP3    H268243   3.655   5.930   0.568  1.0267 -0.2961  1.5538
15610TIP3   OH268244   1.682   3.269  14.909  0.2463  0.4118 -0.1271
15610TIP3    H168245   1.704   3.323  14.833  2.5514 -0.1078  0.1173
15610TIP3    H268246   1.688   3.329  14.984 -1.4268  0.7820 -0.2698
15611TIP3   OH268247   2.088   3.099  17.020  0.1474  0.1613  0.0079
15611TIP3    H168248   2.108   3.011  17.052  0.5913  0.5085  0.7058
15611TIP3    H268249   2.172   3.132  16.988 -0.1075  0.1715 -0.6719
15612TIP3   OH268250   6.781   6.480   2.585  0.3934 -0.2268  0.6981
15612TIP3    H168251   6.835   6.409   2.551  1.4866  0.2930  1.3402
15612TIP3    H268252   6.805   6.556   2.531 -0.4456 -0.2248  0.3108
15613TIP3   OH268253   5.503   4.384  14.883 -0.1010 -0.3300 -0.1501
15613TIP3    H168254   5.526   4.468  14.843 -0.3956 -0.0805  0.2058
15613TIP3    H268255   5.486   4.326  14.809  0.0143 -0.0528 -0.3937
15614TIP3   OH268256   4.719   1.987  12.438 -0.5415 -0.1108 -0.1372
15614TIP3    H168257   4.763   2.022  12.516 -0.3646  0.3255 -0.4326
15614TIP3    H268258   4.645   1.938  12.473  1.0023 -2.0915  0.4462
15615TIP3   OH268259   2.304   5.653   4.389 -0.5726  0.3405 -0.1017
15615TIP3    H168260   2.223   5.602   4.385 -2.0883  2.6411  0.5620
15615TIP3    H268261   2.353   5.626   4.311 -2.4087 -0.3127 -1.0602
15616TIP3   OH268262   0.878   6.181   0.912 -0.6518  0.6759  0.5537
15616TIP3    H168263   0.892   6.094   0.950  0.0133  1.0244  1.1278
15616TIP3    H268264   0.785   6.198   0.925 -0.6960  0.2372  0.8421
15617TIP3   OH268265   5.260   0.984   6.244 -0.5160  0.0100  0.5319
15617TIP3    H168266   5.354   0.972   6.232 -0.3898  0.9858  0.5079
15617TIP3    H268267   5.242   0.945   6.329  0.5544  3.0050  2.1973
15618TIP3   OH268268   2.443   3.394  13.556 -0.2065  0.0046 -0.9522
15618TIP3    H168269   2.521   3.348  13.526 -1.1550 -0.3960 -2.9045
15618TIP3    H268270   2.447   3.389  13.651  2.2775  0.2367 -1.0235
15619TIP3   OH268271   3.820   1.966   0.977 -0.6343 -0.4165  0.1003
15619TIP3    H168272   3.829   1.871   0.987  2.3687 -0.4928 -2.5421
15619TIP3    H268273   3.881   2.002   1.041 -0.2970 -0.3039 -0.2871
15620TIP3   OH268274   2.143   0.481   6.141 -0.0095 -1.4106 -0.1794
15620TIP3    H168275   2.225   0.448   6.104 -0.2860 -2.3425  0.0485
15620TIP3    H268276   2.134   0.437   6.225 -0.6759 -1.1985 -0.1334
15621TIP3   OH268277   3.448   0.207  14.040 -0.1486  0.0074  0.1359
15621TIP3    H168278   3.370   0.263  14.040 -0.2505 -0.1281 -0.6462
15621TIP3    H268279   3.453   0.173  14.130  0.4003  1.9247  0.8618
15622TIP3   OH268280   5.088   2.913  10.381 -0.1936  0.1328 -0.2009
15622TIP3    H168281   5.158   2.855  10.409 -0.3676 -1.1597 -2.3142
15622TIP3    H268282   5.125   3.001  10.388  1.0067 -0.4055  0.3956
15623TIP3   OH268283   4.521   2.831  13.849  0.1223  0.8435 -0.1635
15623TIP3    H168284   4.468   2.754  13.871  0.0797  0.9453  0.0996
15623TIP3    H268285   4.496   2.852  13.760 -0.8224  1.3276  0.2072
15624TIP3   OH268286   2.151   4.810  10.551  0.3942 -0.3830 -0.0897
15624TIP3    H168287   2.176   4.718  10.548  0.1652 -0.4426 -0.1733
15624TIP3    H268288   2.088   4.815  10.623 -0.2101 -0.4466 -0.6051
15625TIP3   OH268289   1.267   1.717   3.706  0.0408  0.2230 -0.2264
15625TIP3    H168290   1.198   1.666   3.749 -0.5237  0.2340 -1.1254
15625TIP3    H268291   1.343   1.658   3.706  0.9012  1.2243  3.3289
15626TIP3   OH268292   4.779   3.036  12.700  0.0096 -0.3616  0.7001
15626TIP3    H168293   4.704   3.006  12.752 -1.9750 -1.3758 -2.5913
15626TIP3    H268294   4.761   3.129  12.684 -0.8933 -0.7501 -0.6030
15627TIP3   OH268295   0.717   1.922   0.178 -0.2914 -0.1334  0.6270
15627TIP3    H168296   0.795   1.908   0.125 -0.3301  0.7230  0.3396
15627TIP3    H268297   0.652   1.862   0.142 -1.0269  2.0449 -1.7839
15628TIP3   OH268298   0.088   0.098   5.444 -0.1021 -0.5588 -0.8982
15628TIP3    H168299   0.008   0.144   5.420 -0.3385  0.0885  1.0146
15628TIP3    H268300   0.060   0.007   5.460 -0.4977 -0.3058 -0.1074
15629TIP3   OH268301   0.869   4.734   0.286  0.5218 -0.1749 -0.0094
15629TIP3    H168302   0.924   4.717   0.210 -0.6622  1.5001 -1.2729
15629TIP3    H268303   0.921   4.792   0.341  0.4364  0.5855 -0.7208
15630TIP3   OH268304   2.388   6.468   4.047 -0.1820  0.2059  0.5095
15630TIP3    H168305   2.424   6.519   4.119  0.1301 -1.0360  1.2371
15630TIP3    H268306   2.313   6.421   4.085  0.6933 -1.3709  0.3407
15631TIP3   OH268307   4.615   2.230   0.492  0.0036 -0.6378  0.2044
15631TIP3    H168308   4.581   2.219   0.403 -0.5678  1.1615  0.1954
15631TIP3    H268309   4.707   2.253   0.480 -0.2609  0.3445  0.0528
15632TIP3   OH268310   4.946   3.959   5.270  0.6465 -0.0705  0.1841
15632TIP3    H168311   4.926   3.949   5.363  1.4917  3.2274  0.7843
15632TIP3    H268312   4.883   4.024   5.239  2.1964  0.9343 -0.8870
15633TIP3   OH268313   1.806   3.009   4.196 -0.6474  0.7022 -0.7591
15633TIP3    H168314   1.822   2.915   4.190  1.8319  0.9521  1.2114
15633TIP3    H268315   1.812   3.040   4.106 -1.5775 -1.0142 -1.4390
15634TIP3   OH268316   6.633   2.662   1.719  0.3001  0.2307 -0.3192
15634TIP3    H168317   6.621   2.613   1.800  1.4224 -1.6914 -1.2682
15634TIP3    H268318   6.551   2.711   1.707  0.0105  0.2873  1.7783
15635TIP3   OH268319   5.741   3.792   5.568  0.0559  0.2089  0.1670
15635TIP3    H168320   5.811   3.728   5.557  0.2452  0.6540 -1.3097
15635TIP3    H268321   5.683   3.778   5.493  1.7338  3.7993 -1.9185
15636TIP3   OH268322   6.313   4.152   5.282  0.5243  0.4913  0.0461
15636TIP3    H168323   6.270   4.125   5.363  2.2980 -1.3224  0.4364
15636TIP3    H268324   6.274   4.097   5.215  1.4127 -0.3817  0.2279
15637TIP3   OH268325   1.842   0.038   1.854  0.3250  0.3636 -0.9939
15637TIP3    H168326   1.843   0.105   1.785 -0.0640  0.2113 -1.1510
15637TIP3    H268327   1.917  -0.018   1.834  2.2006  2.2296  0.6270
15638TIP3   OH268328   6.196   5.629  11.335  0.3899 -0.2711  0.4633
15638TIP3    H168329   6.205   5.724  11.324  0.5765 -0.1522  1.5122
15638TIP3    H268330   6.224   5.592  11.252 -1.7907  0.6929 -0.7371
15639TIP3   OH268331   2.281   4.600  16.066 -0.3429 -0.6674  0.8173
15639TIP3    H168332   2.275   4.677  16.123 -0.5440 -1.1897  1.5032
15639TIP3    H268333   2.306   4.529  16.124 -1.5261 -1.4139  0.4385
15640TIP3   OH268334   0.795   0.697  12.321 -0.0714 -0.6041  0.5405
15640TIP3    H168335   0.785   0.717  12.228  1.6504  0.3293  0.5355
15640TIP3    H268336   0.768   0.777  12.367 -0.4674 -0.8986  0.8264
15641TIP3   OH268337   6.210   3.784  13.311 -0.2687  0.3504  0.4006
15641TIP3    H168338   6.264   3.862  13.323  1.2767 -0.4686 -0.9733
15641TIP3    H268339   6.237   3.725  13.381 -0.2286  0.3954  0.4234
15642TIP3   OH268340   3.538   5.468   3.262  0.8369 -0.0965  0.0261
15642TIP3    H168341   3.628   5.440   3.279 -0.7318 -3.7064  3.0926
15642TIP3    H268342   3.497   5.393   3.219 -0.9518  1.2334 -0.6903
15643TIP3   OH268343   4.294   3.296  12.087 -0.2467 -0.0937 -0.8916
15643TIP3    H168344   4.309   3.385  12.119  0.0369  0.2480 -1.9538
15643TIP3    H268345   4.362   3.244  12.129 -0.6745  0.1010  0.0719
15644TIP3   OH268346   5.472   3.181  12.251  0.0129 -0.1135 -0.5849
15644TIP3    H168347   5.487   3.180  12.156  1.2449  2.2450 -0.4566
15644TIP3    H268348   5.461   3.274  12.272  2.1014 -0.4119  1.9359
15645TIP3   OH268349   6.152   1.483  12.938  0.3481 -0.0786  0.1828
15645TIP3    H168350   6.169   1.397  12.899 -0.2239 -0.3576  0.5301
15645TIP3    H268351   6.227   1.499  12.995  0.6247 -0.1912 -0.1485
15646TIP3   OH268352   6.605   4.117  13.173  0.4001  0.2479 -0.1603
15646TIP3    H168353   6.638   4.170  13.246 -0.7058 -1.9736  2.0322
15646TIP3    H268354   6.534   4.168  13.136 -0.7083  0.3095  1.9718
15647TIP3   OH268355   1.049   1.115   5.012  0.4390 -0.2920  0.8207
15647TIP3    H168356   0.996   1.154   5.081 -0.6830 -0.4742  0.0727
15647TIP3    H268357   1.102   1.187   4.979 -0.4438  0.2449  0.5555
15648TIP3   OH268358   6.340   4.954   4.736 -0.2899  0.2732  0.4312
15648TIP3    H168359   6.337   5.045   4.768 -1.6834 -0.1247  1.4985
15648TIP3    H268360   6.396   4.909   4.799  1.3577  0.6102 -0.7500
15649TIP3   OH268361   2.496   1.432   3.075 -0.4724  0.4540 -0.5857
15649TIP3    H168362   2.466   1.358   3.023 -0.0367 -0.9335  1.0768
15649TIP3    H268363   2.456   1.509   3.033 -1.6837 -0.7970 -1.7871
15650TIP3   OH268364   4.123   1.585  15.512  0.7854 -0.1272  0.2505
15650TIP3    H168365   4.112   1.502  15.557  2.1428 -1.6779 -2.1383
15650TIP3    H268366   4.126   1.562  15.419 -0.1944  2.7451 -0.5611
15651TIP3   OH268367   5.155   4.264   2.621 -0.3785  0.5325 -0.4147
15651TIP3    H168368   5.211   4.222   2.687 -0.9159 -0.6348 -0.6746
15651TIP3    H268369   5.066   4.256   2.657 -0.6508  0.0513 -1.1829
15652TIP3   OH268370   5.166   3.647   4.756  0.2443  0.3490 -0.4638
15652TIP3    H168371   5.174   3.732   4.798 -0.8004 -0.5415  1.6391
15652TIP3    H268372   5.104   3.599   4.811 -0.0038 -1.3995 -2.2130
15653TIP3   OH268373   6.566   6.499  16.189  0.7656 -0.3471 -0.2277
15653TIP3    H168374   6.574   6.574  16.248  1.3960 -1.4832  1.1835
15653TIP3    H268375   6.656   6.475  16.168  0.5860 -1.1399 -0.0982
15654TIP3   OH268376   0.796   6.007  14.690 -0.5167 -0.4676  0.4295
15654TIP3    H168377   0.878   5.965  14.714 -0.8611 -0.6114  1.3768
15654TIP3    H268378   0.729   5.941  14.706 -0.6929 -0.8684 -1.7702
15655TIP3   OH268379   0.303   0.537   2.192  0.4966 -0.3128  0.2088
15655TIP3    H168380   0.277   0.493   2.273  0.3858 -0.8812 -0.1314
15655TIP3    H268381   0.395   0.559   2.206  0.5006 -0.4817  0.4581
15656TIP3   OH268382   1.971   0.203  12.596  0.7043 -0.1679 -0.0526
15656TIP3    H168383   1.945   0.145  12.524 -1.8814  1.6152 -0.6125
15656TIP3    H268384   1.912   0.180  12.668 -1.5696  2.9135 -0.8516
15657TIP3   OH268385   2.802   6.170   5.603 -0.1356  0.5422 -0.2199
15657TIP3    H168386   2.854   6.182   5.683  4.4940 -0.1134 -2.9638
15657TIP3    H268387   2.799   6.075   5.591 -2.5683  0.5373  0.1875
15658TIP3   OH268388   6.513   1.153   0.834  0.3813 -0.3628 -0.3681
15658TIP3    H168389   6.527   1.141   0.740  3.9784 -0.3082  0.0801
15658TIP3    H268390   6.527   1.247   0.848  1.7682 -0.6676  0.4532
15659TIP3   OH268391   5.537   0.931  10.312  0.0320 -0.3818  0.4141
15659TIP3    H168392   5.628   0.904  10.303 -0.1408 -0.9555  0.3325
15659TIP3    H268393   5.533   0.974  10.397  0.0164 -1.9079  1.2083
15660TIP3   OH268394   3.934   1.238   0.543 -0.0622 -0.4330  0.5955
15660TIP3    H168395   3.992   1.263   0.615 -0.3755  1.5107  0.1999
15660TIP3    H268396   3.992   1.223   0.469  0.1705 -1.4263  0.9669
15661TIP3   OH268397   0.006   4.186  16.294  0.2807 -0.1397  0.1033
15661TIP3    H168398  -0.056   4.258  16.305 -0.4197 -0.1692 -3.1200
15661TIP3    H268399   0.084   4.215  16.342 -0.5888  1.9893  0.3089
15662TIP3   OH268400   3.802   0.009   6.634 -0.0229 -0.2103 -0.2372
15662TIP3    H168401   3.801  -0.063   6.571 -1.2765 -0.1934 -0.2332
15662TIP3    H268402   3.717   0.005   6.678  0.5893  0.1764  1.0168
15663TIP3   OH268403   0.841   0.798   1.758  0.0042 -0.2414  0.1308
15663TIP3    H168404   0.891   0.861   1.810 -1.1726  0.4186  0.4896
15663TIP3    H268405   0.822   0.727   1.819  0.5757 -0.5368 -0.0316
15664TIP3   OH268406   4.619   2.066   3.586 -0.1622 -0.7382 -0.5921
15664TIP3    H168407   4.570   2.021   3.655  1.2577 -1.8646 -0.2959
15664TIP3    H268408   4.559   2.067   3.511  0.0599 -3.9180 -0.8794
15665TIP3   OH268409   0.317   3.774   3.659  0.2136 -0.6285  1.1476
15665TIP3    H168410   0.221   3.777   3.652  0.2582  0.0282  0.7480
15665TIP3    H268411   0.344   3.866   3.654  1.0699 -0.9732 -1.7914
15666TIP3   OH268412   0.352   0.192  11.787 -0.4567  0.4694  0.2350
15666TIP3    H168413   0.327   0.126  11.723  0.2449  1.3288 -0.9537
15666TIP3    H268414   0.270   0.220  11.827 -0.7128 -1.4197  1.0743
15667TIP3   OH268415   2.468   2.444  15.977  0.3658 -0.4007  0.4694
15667TIP3    H168416   2.530   2.381  15.939  0.4916 -0.6299  1.0390
15667TIP3    H268417   2.389   2.392  15.994 -0.1008 -0.0307 -0.5699
15668TIP3   OH268418   3.692   1.251  16.500 -0.0891 -0.4697  0.1999
15668TIP3    H168419   3.607   1.262  16.458  0.7621  2.2230 -0.9218
15668TIP3    H268420   3.750   1.222  16.430  0.3580 -0.4153  0.5447
15669TIP3   OH268421   1.354   6.509  15.861 -0.2110  0.3188 -0.8959
15669TIP3    H168422   1.425   6.444  15.869 -0.3454  0.0738 -1.6777
15669TIP3    H268423   1.275   6.461  15.888 -0.2619  0.2516 -1.1674
15670TIP3   OH268424   1.136   5.958  16.473 -0.6046  0.3785  0.0881
15670TIP3    H168425   1.182   6.042  16.475 -3.4270  1.9820  0.6811
15670TIP3    H268426   1.107   5.945  16.563  1.7534 -2.4344  0.5237
15671TIP3   OH268427   0.265   5.304   0.953  0.0974 -0.5718  0.3680
15671TIP3    H168428   0.219   5.342   1.028 -0.6711  1.2018 -0.9519
15671TIP3    H268429   0.249   5.210   0.960  0.1315 -0.4375  2.4688
15672TIP3   OH268430   5.512   6.659   2.887  0.0957 -0.1024  0.4551
15672TIP3    H168431   5.505   6.575   2.842 -2.2148  0.3664 -0.1533
15672TIP3    H268432   5.526   6.635   2.979  0.5234 -1.1426  0.1230
15673TIP3   OH268433   5.935   3.459  17.173 -0.0628  0.0100  0.0825
15673TIP3    H168434   6.000   3.491  17.236 -0.2635 -0.9141  0.7723
15673TIP3    H268435   5.960   3.368  17.157 -0.2182  0.1411 -0.9171
15674TIP3   OH268436   2.219   2.072  15.998 -0.1842  0.2508 -0.3697
15674TIP3    H168437   2.147   2.132  16.018  0.8021  0.8148  1.5902
15674TIP3    H268438   2.239   2.030  16.082  0.4101 -1.4400 -1.3335
15675TIP3   OH268439   2.735   1.689   3.538  0.2972 -0.0804 -0.3320
15675TIP3    H168440   2.776   1.747   3.601  0.1800 -1.0658  0.6548
15675TIP3    H268441   2.808   1.645   3.495  0.3308 -0.6244  0.2762
15676TIP3   OH268442   5.320   4.932   2.362 -0.4769 -0.3294 -0.0109
15676TIP3    H168443   5.410   4.925   2.329  0.0760 -0.1909  1.4373
15676TIP3    H268444   5.276   4.855   2.327  0.2801 -0.5502 -0.4998
15677TIP3   OH268445   2.711   1.018   1.806  0.1747  0.4467 -0.6252
15677TIP3    H168446   2.785   1.016   1.866 -0.5456  1.7403  0.3393
15677TIP3    H268447   2.746   0.986   1.723  0.9455 -2.3463  0.7096
15678TIP3   OH268448   1.143   0.745   3.503  0.0262 -0.0428  0.1604
15678TIP3    H168449   1.192   0.713   3.427 -1.3481 -0.7897 -0.4349
15678TIP3    H268450   1.106   0.828   3.473 -1.2088 -0.7435 -0.2873
15679TIP3   OH268451   0.089   1.366  11.461 -0.3633 -0.0313 -0.0974
15679TIP3    H168452   0.023   1.421  11.504  1.5020  1.0017  1.4994
15679TIP3    H268453   0.048   1.279  11.457 -1.4150  0.3535  1.8288
15680TIP3   OH268454   1.514   2.867  12.408  0.2507  0.1047 -0.3032
15680TIP3    H168455   1.456   2.927  12.361 -0.6840 -0.3687  0.2215
15680TIP3    H268456   1.469   2.782  12.403 -0.5369  0.3106  2.5359
15681TIP3   OH268457   6.560   6.527  16.711  0.0134  0.0640  0.0268
15681TIP3    H168458   6.587   6.444  16.750  0.3177 -1.0949 -2.5502
15681TIP3    H268459   6.485   6.555  16.764 -0.1863 -1.9074  0.8394
15682TIP3   OH268460   4.502   2.392   3.282  0.4174 -0.4603  0.0100
15682TIP3    H168461   4.569   2.408   3.349  0.4498 -2.2455  0.4406
15682TIP3    H268462   4.421   2.378   3.331 -0.1613  1.0983 -0.4825
15683TIP3   OH268463   0.905   0.240   0.545 -0.0776  0.2904  0.1142
15683TIP3    H168464   0.869   0.174   0.605  0.3393  0.2173  0.2879
15683TIP3    H268465   0.829   0.280   0.505 -0.3479  0.0007  0.3353
15684TIP3   OH268466   3.487   5.654   2.375 -0.4283  0.4674 -0.2938
15684TIP3    H168467   3.519   5.606   2.299  0.8467  1.1308 -0.2025
15684TIP3    H268468   3.452   5.736   2.340 -0.6693  0.3774 -0.2601
15685TIP3   OH268469   2.908   3.961  16.645  0.5654 -0.5807  0.0237
15685TIP3    H168470   2.957   4.001  16.718 -1.7466 -2.0509  2.4656
15685TIP3    H268471   2.920   3.867  16.658  0.4609 -0.8554 -1.7936
15686TIP3   OH268472   0.534   2.407  13.858 -0.0035  0.1981  0.1885
15686TIP3    H168473   0.470   2.409  13.788 -1.5829  1.0980  1.6296
15686TIP3    H268474   0.591   2.333  13.836 -1.6168 -0.7253 -1.0092
15687TIP3   OH268475   2.478   2.807  16.366  0.0019 -0.1745 -0.2083
15687TIP3    H168476   2.516   2.880  16.317  0.0271  0.5386  0.8525
15687TIP3    H268477   2.433   2.755  16.300 -0.3281  1.0075 -0.9319
15688TIP3   OH268478   3.023   5.679   5.411 -0.3547 -0.5838  0.3987
15688TIP3    H168479   3.084   5.628   5.464 -0.3136 -1.9137 -0.8870
15688TIP3    H268480   3.021   5.633   5.327  1.2827  2.7089 -1.5360
15689TIP3   OH268481   0.646   4.499   4.065 -0.0299 -0.3569  0.4472
15689TIP3    H168482   0.723   4.543   4.100 -0.5649 -0.0359  1.2426
15689TIP3    H268483   0.578   4.513   4.131 -0.2532 -2.2684  0.6501
15690TIP3   OH268484   0.429   6.080   2.307 -0.7170  0.0866  0.1166
15690TIP3    H168485   0.470   6.167   2.307 -0.1287 -0.1718 -1.6133
15690TIP3    H268486   0.495   6.022   2.268 -2.1999 -0.5609 -1.5095
15691TIP3   OH268487   5.034   5.669  15.665  0.3638 -0.3645  0.2390
15691TIP3    H168488   4.958   5.708  15.621  0.8538 -2.0988 -2.2890
15691TIP3    H268489   5.044   5.720  15.746 -1.7109  1.7673 -0.7736
15692TIP3   OH268490   3.307   3.981  14.034 -0.3861  0.9312 -0.4315
15692TIP3    H168491   3.390   3.970  13.989 -0.7892 -1.0859 -0.7141
15692TIP3    H268492   3.255   4.036  13.976  0.1356  0.7801 -1.0431
15693TIP3   OH268493   3.668   3.475  14.510 -0.4245  0.0274 -0.4300
15693TIP3    H168494   3.666   3.382  14.530  1.1593 -0.4584 -2.3968
15693TIP3    H268495   3.640   3.517  14.592 -0.9607 -2.1406  0.5414
15694TIP3   OH268496   5.496   2.666  14.112  0.7284  0.7876 -0.0861
15694TIP3    H168497   5.460   2.620  14.187  1.4949  1.7235  0.8686
15694TIP3    H268498   5.574   2.616  14.088  0.1838  0.1778 -0.6104
15695TIP3   OH268499   5.510   6.182   2.558  0.5329 -0.1697  0.1504
15695TIP3    H168500   5.423   6.174   2.597  0.8856 -0.0554  0.9590
15695TIP3    H268501   5.567   6.132   2.616  0.7496 -1.5977 -1.2549
15696TIP3   OH268502   1.124   4.341  11.338  0.5992  0.0016 -0.2723
15696TIP3    H168503   1.193   4.325  11.402 -0.5532 -1.0465  0.7385
15696TIP3    H268504   1.091   4.254  11.316 -1.2143  0.5524  0.1918
15697TIP3   OH268505   0.327   3.609   4.329 -0.4180 -0.3504 -0.2413
15697TIP3    H168506   0.282   3.559   4.397  0.4916 -0.6158  0.1724
15697TIP3    H268507   0.406   3.641   4.371 -1.3616  2.1148 -0.2727
15698TIP3   OH268508   3.328   0.181   5.528 -0.4102 -0.7334  0.7598
15698TIP3    H168509   3.398   0.239   5.555 -1.0343  0.3998  0.0118
15698TIP3    H268510   3.305   0.132   5.606  1.9738 -1.9255  0.7252
15699TIP3   OH268511   4.821   5.972  14.546  0.3395 -0.0971  0.1820
15699TIP3    H168512   4.823   5.987  14.641 -1.9999  0.7251  0.1275
15699TIP3    H268513   4.778   6.050  14.510 -0.2144 -1.1155 -1.4191
15700TIP3   OH268514   0.336   0.006   3.944  0.2071 -0.7140 -0.3115
15700TIP3    H168515   0.243  -0.001   3.924  0.4812 -0.1393 -1.8801
15700TIP3    H268516   0.339   0.045   4.031 -1.0176  2.8167 -1.7649
15701TIP3   OH268517   3.964   6.144   6.061 -0.4326  0.4230 -0.1260
15701TIP3    H168518   4.045   6.153   6.011 -1.0408 -0.0903 -1.2193
15701TIP3    H268519   3.993   6.124   6.150  0.6159 -1.4115 -0.8625
15702TIP3   OH268520   0.701   4.813  16.146  0.0846  0.2968  0.3195
15702TIP3    H168521   0.705   4.727  16.188  1.9256 -0.3550 -1.1432
15702TIP3    H268522   0.655   4.797  16.063 -2.0031  1.2593  1.2398
15703TIP3   OH268523   0.331   4.620   4.556  0.1848  0.5651 -0.0312
15703TIP3    H168524   0.310   4.624   4.649 -1.9301 -1.6869 -0.3389
15703TIP3    H268525   0.304   4.704   4.521 -2.5311  0.0481  0.7500
15704TIP3   OH268526   5.041   3.975   4.772 -0.1108  0.1536  0.0256
15704TIP3    H168527   5.035   3.949   4.864 -0.3831 -0.3535 -0.1329
15704TIP3    H268528   5.013   4.066   4.771 -0.8951 -0.0715  0.3387
15705TIP3   OH268529   4.113   0.443   5.278 -0.1203 -0.0521 -0.0012
15705TIP3    H168530   4.140   0.512   5.339  1.6584  0.5379 -1.3988
15705TIP3    H268531   4.150   0.363   5.314 -1.6589 -0.1951  1.2976
15706TIP3   OH268532   4.673   4.130   0.535  0.0644 -0.1003  0.5526
15706TIP3    H168533   4.724   4.050   0.545 -1.1323 -1.1005 -1.0237
15706TIP3    H268534   4.722   4.182   0.472  1.3199  0.8458  2.2685
15707TIP3   OH268535   3.975   4.946  13.149  0.2433 -0.5297  0.1259
15707TIP3    H168536   3.932   4.894  13.082 -0.7487  2.4406 -1.6340
15707TIP3    H268537   3.909   4.955  13.218 -0.4058  0.2781 -0.5890
15708TIP3   OH268538   2.190   5.140   6.403 -0.2225 -0.3731  0.3473
15708TIP3    H168539   2.218   5.127   6.494 -0.2960 -2.2589  0.1293
15708TIP3    H268540   2.237   5.073   6.353 -1.5279 -0.5325 -0.7255
15709TIP3   OH268541   4.600   3.585  14.861  0.1083  0.2181 -0.1246
15709TIP3    H168542   4.513   3.558  14.833 -0.7448  0.3294  2.2461
15709TIP3    H268543   4.595   3.680  14.870  0.6550  0.2905 -0.5461
15710TIP3   OH268544   1.250   6.303   0.999  0.2429  0.2867  0.5761
15710TIP3    H168545   1.344   6.289   1.002  0.1478 -0.5683 -0.3761
15710TIP3    H268546   1.225   6.316   1.091  1.3041  0.6891  0.8120
15711TIP3   OH268547   0.390   1.867  13.171 -0.2097  0.7314 -0.1122
15711TIP3    H168548   0.391   1.897  13.262 -1.1722  0.4957 -0.0101
15711TIP3    H268549   0.447   1.790  13.171 -2.0204 -0.6465  0.8095
15712TIP3   OH268550   1.808   4.177  14.403 -0.1025 -0.6259  0.5085
15712TIP3    H168551   1.877   4.243  14.392 -0.7624 -0.0025  0.0289
15712TIP3    H268552   1.728   4.228  14.412 -0.8143 -1.3807 -1.2845
15713TIP3   OH268553   1.042   5.059  14.321 -0.5564  0.1602  0.0584
15713TIP3    H168554   1.116   4.998  14.314 -0.9624 -0.1421 -1.7279
15713TIP3    H268555   1.081   5.140  14.355  0.0798 -0.9103  1.9029
15714TIP3   OH268556   6.577   3.849  16.712  0.5580  0.3798 -0.0306
15714TIP3    H168557   6.660   3.889  16.685  0.3704  0.2668 -0.8066
15714TIP3    H268558   6.510   3.906  16.673  0.2818  0.1216  0.0671
15715TIP3   OH268559   0.708   5.482  11.640  0.1819  0.5441 -0.3544
15715TIP3    H168560   0.716   5.513  11.730  0.5196  1.4445 -0.6889
15715TIP3    H268561   0.616   5.458  11.632  0.4607 -0.9611  0.6712
15716TIP3   OH268562   6.612   3.136  10.748 -0.0847 -0.1638 -0.1328
15716TIP3    H168563   6.636   3.043  10.743  0.0595 -0.0321 -2.1305
15716TIP3    H268564   6.520   3.136  10.773  0.1333 -0.8076  0.7267
15717TIP3   OH268565   2.580   1.218   2.264 -0.0900  0.0622 -0.5941
15717TIP3    H168566   2.649   1.205   2.200  0.8361  1.5621  0.0460
15717TIP3    H268567   2.604   1.162   2.338  0.3253  0.3857 -0.4785
15718TIP3   OH268568   4.283   6.464   5.703  0.1844  0.1232 -0.3067
15718TIP3    H168569   4.299   6.388   5.759 -0.7084  0.8969  1.0456
15718TIP3    H268570   4.355   6.524   5.723  0.2409  0.1116 -0.4834
15719TIP3   OH268571   6.480   4.143  16.676  0.5852  0.2744  0.3995
15719TIP3    H168572   6.556   4.128  16.732 -0.6600 -0.8702  1.8267
15719TIP3    H268573   6.411   4.171  16.737 -0.0224  1.7176 -0.9237
15720TIP3   OH268574   5.364   2.034  11.406  0.3768 -0.3380 -0.1868
15720TIP3    H168575   5.270   2.052  11.410  0.5331  0.7140 -0.9958
15720TIP3    H268576   5.385   1.996  11.491 -0.4807  0.8530  0.5633
15721TIP3   OH268577   4.819   4.090  12.312 -0.0339 -0.0840  0.0260
15721TIP3    H168578   4.730   4.078  12.345 -0.0969  0.5151  0.0852
15721TIP3    H268579   4.808   4.106  12.218  0.0826 -0.9368 -0.1392
15722TIP3   OH268580   0.004   4.080   1.762  0.2610  0.0758  0.5479
15722TIP3    H168581  -0.042   4.144   1.817 -1.9297 -0.5604 -0.4694
15722TIP3    H268582   0.022   4.128   1.681  1.1100  0.2143  0.8126
15723TIP3   OH268583   5.979   4.705   4.571 -0.2800 -0.0247 -0.0097
15723TIP3    H168584   6.066   4.736   4.544  0.8008 -1.4931  1.6440
15723TIP3    H268585   5.991   4.611   4.586 -1.9661 -0.1010  0.9709
15724TIP3   OH268586   3.041   2.246   2.250 -0.0352  0.3654  0.0233
15724TIP3    H168587   3.123   2.294   2.249 -0.3090  0.8582  0.5056
15724TIP3    H268588   2.985   2.293   2.188 -0.9520  1.8640  1.9309
15725TIP3   OH268589   3.979   2.427   3.454  0.4468 -0.1401 -0.0391
15725TIP3    H168590   3.992   2.343   3.410  0.4682 -0.0099 -0.2814
15725TIP3    H268591   3.971   2.405   3.546 -0.7285 -0.5369 -0.2173
15726TIP3   OH268592   3.017   5.711   3.216  0.0004  0.6754 -0.6391
15726TIP3    H168593   2.957   5.638   3.198 -0.6375  0.9840  0.1790
15726TIP3    H268594   3.054   5.734   3.131 -0.6013  0.0862 -1.0618
15727TIP3   OH268595   3.748   0.717   6.693 -0.1234 -0.3777  0.5097
15727TIP3    H168596   3.660   0.721   6.733 -0.4233  1.8569 -0.2850
15727TIP3    H268597   3.754   0.798   6.642  1.4906 -1.6838 -1.3967
15728TIP3   OH268598   2.887   1.699   5.163 -0.0703  0.3288 -0.2217
15728TIP3    H168599   2.839   1.669   5.086  0.6433  1.0765 -0.9740
15728TIP3    H268600   2.978   1.699   5.136  0.0470  2.0979  0.0962
15729TIP3   OH268601   2.115   3.275  13.414 -0.1934  0.2624  0.2276
15729TIP3    H168602   2.036   3.255  13.365 -0.6954 -1.0540  1.5564
15729TIP3    H268603   2.086   3.286  13.505  1.0831  0.1334  0.6691
15730TIP3   OH268604   2.313   2.736   3.786  0.6891  0.4570 -0.6019
15730TIP3    H168605   2.333   2.773   3.872 -0.1153 -1.6344  0.5208
15730TIP3    H268606   2.398   2.726   3.743  1.0351  2.1124 -0.3264
15731TIP3   OH268607   3.185   5.743  11.926 -0.3445  0.0765  0.4250
15731TIP3    H168608   3.138   5.816  11.887  0.6807  0.1577 -0.7019
15731TIP3    H268609   3.275   5.754  11.896  0.4416 -0.0041  2.6189
15732TIP3   OH268610   0.759   0.986  14.712 -0.5219  0.4475  0.6264
15732TIP3    H168611   0.707   0.924  14.661 -1.1174  0.6941  0.9338
15732TIP3    H268612   0.813   1.030  14.647 -1.0643  0.5482  0.2408
15733TIP3   OH268613   2.954   5.274   5.080  0.0929  0.1506  0.1273
15733TIP3    H168614   2.995   5.194   5.048  1.4495  0.8082  0.1904
15733TIP3    H268615   2.880   5.288   5.021 -0.4049 -1.3555  0.3554
15734TIP3   OH268616   6.562   3.125  11.733 -0.5805  0.5660  0.5591
15734TIP3    H168617   6.475   3.124  11.694 -1.2444 -1.0610  2.0281
15734TIP3    H268618   6.594   3.035  11.721  1.1623  1.3023 -0.5308
15735TIP3   OH268619   1.456   4.405   1.268  0.8674  0.0877 -0.0952
15735TIP3    H168620   1.410   4.487   1.252  0.6863  0.0890  0.4413
15735TIP3    H268621   1.464   4.399   1.363  3.0120  0.6673 -0.2141
15736TIP3   OH268622   6.364   3.480  16.693 -0.5804 -0.6167  0.6068
15736TIP3    H168623   6.284   3.482  16.641  0.3407 -0.7882 -0.8498
15736TIP3    H268624   6.379   3.571  16.720  0.5806  0.0131 -2.0264
15737TIP3   OH268625   2.812   0.737   2.516 -0.5186  0.1811 -0.6112
15737TIP3    H168626   2.869   0.813   2.501  0.9210 -0.9876 -1.1075
15737TIP3    H268627   2.747   0.769   2.578  1.5336  1.1327  1.1210
15738TIP3   OH268628   6.548   0.425   2.850 -0.0578 -0.0089  0.1879
15738TIP3    H168629   6.497   0.345   2.866 -0.7209  0.6638  1.4726
15738TIP3    H268630   6.487   0.484   2.806 -0.2454  0.5940  1.2349
15739TIP3   OH268631   2.175   2.917   3.293  0.4305  0.0318 -0.0181
15739TIP3    H168632   2.129   2.833   3.301  0.7958 -0.4422 -2.3529
15739TIP3    H268633   2.183   2.930   3.198  3.1550  1.1501  0.3302
15740TIP3   OH268634   3.990   2.136   6.491  0.1499  0.4963 -0.6416
15740TIP3    H168635   4.083   2.147   6.470  0.2371  2.7973  0.7351
15740TIP3    H268636   3.989   2.120   6.585 -0.9514  2.6634 -0.2554
15741TIP3   OH268637   4.738   0.160   0.419  0.3595  0.9327  0.0330
15741TIP3    H168638   4.722   0.224   0.489 -2.2909  0.7484 -0.3533
15741TIP3    H268639   4.665   0.099   0.425  2.5240 -1.7978  0.0188
15742TIP3   OH268640   5.940   1.674  11.854  0.0943 -0.0180 -0.2408
15742TIP3    H168641   5.864   1.725  11.826  0.3273 -0.6046 -2.0075
15742TIP3    H268642   5.916   1.583  11.835  1.2240 -0.2056 -0.8091
15743TIP3   OH268643   1.703   1.978  14.286  0.0952 -0.2785  0.3976
15743TIP3    H168644   1.746   2.061  14.264  1.3351 -1.4098 -1.4977
15743TIP3    H268645   1.614   1.989  14.253  0.7890 -0.3985 -1.6032
15744TIP3   OH268646   4.698   6.138   0.733  0.5835 -0.1581  0.3042
15744TIP3    H168647   4.633   6.186   0.785  1.7329  0.3491  1.3068
15744TIP3    H268648   4.759   6.103   0.798 -0.4770 -3.4070 -0.3778
15745TIP3   OH268649   3.797   5.756  14.640  0.2111  0.3242  0.3390
15745TIP3    H168650   3.831   5.745  14.551 -0.2941  1.3001  0.0162
15745TIP3    H268651   3.809   5.671  14.681 -1.2395 -0.6613 -1.2438
15746TIP3   OH268652   1.437   5.732   2.697 -0.5355 -0.0004 -0.3498
15746TIP3    H168653   1.443   5.730   2.602 -0.4374 -0.0862 -0.3427
15746TIP3    H268654   1.378   5.659   2.719  0.0230 -0.4402 -0.3025
15747TIP3   OH268655   6.442   6.702  10.867 -0.3999  0.0605  0.4816
15747TIP3    H168656   6.367   6.753  10.899 -0.7954 -1.6885  2.5348
15747TIP3    H268657   6.514   6.726  10.926  0.1549  0.3650 -0.3237
15748TIP3   OH268658   5.171   3.129   1.511  0.0984  0.6189  0.2388
15748TIP3    H168659   5.166   3.091   1.598  0.9896  1.6809  0.7536
15748TIP3    H268660   5.235   3.076   1.464  1.6783  1.7435  1.0984
15749TIP3   OH268661   4.802   0.321   0.223 -0.0398 -0.3992 -0.3178
15749TIP3    H168662   4.813   0.408   0.261  2.4312 -0.5917 -0.5007
15749TIP3    H268663   4.783   0.264   0.298  0.8977 -0.1133  0.1542
15750TIP3   OH268664   2.738   3.822   3.132  0.3221 -0.4350  0.0031
15750TIP3    H168665   2.710   3.778   3.051  0.8920  1.2121 -1.1138
15750TIP3    H268666   2.725   3.915   3.113  0.8316 -0.0217  1.6883
15751TIP3   OH268667   0.503   6.498   4.864  0.0631 -0.0195 -0.8024
15751TIP3    H168668   0.474   6.531   4.779 -0.1948  0.5245 -0.5044
15751TIP3    H268669   0.584   6.546   4.882 -0.8964  1.2927  0.1473
15752TIP3   OH268670   1.332   2.030  14.082  0.3315  0.1941  0.1677
15752TIP3    H168671   1.412   2.074  14.109 -0.1755  0.4501  1.2819
15752TIP3    H268672   1.263   2.096  14.094 -0.4549 -0.9138  1.9814
15753TIP3   OH268673   2.511   2.152   4.148  0.6267  0.2042  0.3045
15753TIP3    H168674   2.456   2.171   4.224 -2.7532 -1.1661 -1.6806
15753TIP3    H268675   2.470   2.200   4.076  0.1380 -3.3170 -1.8790
15754TIP3   OH268676   0.687   6.675   4.963 -0.0631  0.4348 -0.2009
15754TIP3    H168677   0.738   6.691   4.883  0.8318  1.1912  0.5101
15754TIP3    H268678   0.655   6.762   4.989 -0.4928  0.1693  0.1686
15755TIP3   OH268679   6.291   6.481  15.285 -0.0899  0.6018 -0.4021
15755TIP3    H168680   6.324   6.476  15.374 -0.4230 -1.0479 -0.3534
15755TIP3    H268681   6.368   6.468  15.230 -0.1392  0.0292 -0.3350
15756TIP3   OH268682   4.319   6.072   0.783  1.0950 -0.1488  0.3279
15756TIP3    H168683   4.353   6.152   0.741 -0.2093  0.5127  0.5213
15756TIP3    H268684   4.265   6.031   0.716 -0.7359  0.7481  1.2095
15757TIP3   OH268685   2.063   3.687   0.152 -0.3290  0.2282  0.0019
15757TIP3    H168686   2.088   3.610   0.203 -1.1085 -0.7255 -1.0400
15757TIP3    H268687   2.133   3.750   0.167  0.4816 -0.8132  0.5930
15758TIP3   OH268688   3.593   0.540  14.049 -0.1431  0.3072 -0.2965
15758TIP3    H168689   3.574   0.517  13.958  1.3622 -1.0089 -0.2926
15758TIP3    H268690   3.689   0.539  14.055 -0.2386 -0.6449  1.5532
15759TIP3   OH268691   5.969   5.368   1.942 -0.1261  0.2062  0.1452
15759TIP3    H168692   5.945   5.416   2.021  0.8524  0.7301  0.1276
15759TIP3    H268693   6.026   5.428   1.894 -0.1025 -0.4047 -0.5913
15760TIP3   OH268694   2.256   5.930   0.029  0.4734 -0.2129  0.3880
15760TIP3    H168695   2.184   5.871   0.007  0.8992 -0.5128 -0.2285
15760TIP3    H268696   2.240   5.955   0.119 -1.8074  1.7222 -0.5077
15761TIP3   OH268697   1.161   1.627  14.201 -0.0746 -0.3989 -0.0322
15761TIP3    H168698   1.150   1.602  14.293  0.8186  0.9912  0.4750
15761TIP3    H268699   1.122   1.555  14.152 -1.9008 -0.4852  1.4587
15762TIP3   OH268700   2.526   6.562   3.531 -0.7003  0.0599 -0.2851
15762TIP3    H168701   2.581   6.547   3.454  0.6510  3.5663 -0.1084
15762TIP3    H268702   2.437   6.569   3.495 -0.0529  1.9908 -1.6604
15763TIP3   OH268703   2.493   4.545   1.675  0.1410  0.1906 -0.1239
15763TIP3    H168704   2.399   4.564   1.677 -0.6696 -3.4203 -1.2232
15763TIP3    H268705   2.519   4.547   1.767 -0.7882  1.9650  0.1395
15764TIP3   OH268706   2.001   5.292   4.679 -0.3396 -0.4304 -0.6220
15764TIP3    H168707   1.988   5.324   4.769 -0.0782 -1.7970 -0.0962
15764TIP3    H268708   2.079   5.339   4.648 -1.3181  1.1986 -0.6913
15765TIP3   OH268709   0.287   6.701   0.468 -0.6738  0.4072  0.0110
15765TIP3    H168710   0.366   6.672   0.514 -1.0620  1.6407  1.5019
15765TIP3    H268711   0.239   6.621   0.449 -0.0677 -0.1903  0.9577
15766TIP3   OH268712   3.716   3.691   2.802  0.1937 -0.6886 -0.8457
15766TIP3    H168713   3.668   3.636   2.739  0.3059 -0.4480 -1.1419
15766TIP3    H268714   3.739   3.769   2.752  0.4598 -0.5856 -0.5602
15767TIP3   OH268715   5.425   5.185   5.211 -0.1536 -0.5979  0.2682
15767TIP3    H168716   5.482   5.248   5.255  0.1990 -1.1092  0.5544
15767TIP3    H268717   5.364   5.238   5.161 -0.4419 -0.0162  1.2313
15768TIP3   OH268718   4.507   5.026  10.876 -0.2476 -0.5267  0.4380
15768TIP3    H168719   4.469   5.109  10.845  2.7474  0.7253 -0.1044
15768TIP3    H268720   4.523   4.976  10.796 -0.0118 -0.7067  0.6004
15769TIP3   OH268721   4.010   1.853  15.126  0.4460 -0.1062  0.2345
15769TIP3    H168722   4.010   1.837  15.031 -2.3287 -0.4095  0.2272
15769TIP3    H268723   3.966   1.776  15.162 -0.2336  0.9020  1.5800
15770TIP3   OH268724   4.482   5.320   2.216  0.0386 -0.0523  0.3701
15770TIP3    H168725   4.397   5.301   2.255 -0.3609 -0.5506 -0.7483
15770TIP3    H268726   4.500   5.246   2.159  0.0471  1.2679 -1.3758
15771TIP3   OH268727   0.570   2.632   4.893 -0.4415  0.2567  0.2566
15771TIP3    H168728   0.493   2.579   4.874 -0.8083  0.5346  0.9294
15771TIP3    H268729   0.535   2.720   4.910  0.1203  0.6196 -0.4471
15772TIP3   OH268730   5.484   0.875   2.514  0.1557  0.0578 -0.1890
15772TIP3    H168731   5.411   0.849   2.570 -0.6131  1.7204 -0.4054
15772TIP3    H268732   5.446   0.935   2.450  1.7168  1.0141 -0.2528
15773TIP3   OH268733   2.703   5.676  12.202 -0.2134  0.3870 -0.2798
15773TIP3    H168734   2.676   5.626  12.279  0.2194 -0.0719 -0.4245
15773TIP3    H268735   2.783   5.721  12.229 -0.1323  0.3279 -0.4177
15774TIP3   OH268736   4.089   2.179   4.340 -0.6271  0.2685 -0.2641
15774TIP3    H168737   4.147   2.104   4.353 -1.6123 -0.7826 -1.8459
15774TIP3    H268738   4.004   2.140   4.318 -1.3937  1.8302 -0.1104
15775TIP3   OH268739   1.023   0.516  12.118  0.0835 -0.4719  0.4221
15775TIP3    H168740   1.095   0.576  12.138  0.0591 -0.0097 -0.8037
15775TIP3    H268741   0.950   0.572  12.095  0.2704 -0.9444 -1.4383
15776TIP3   OH268742   0.243   6.774  12.158 -0.3006  0.2637  0.1937
15776TIP3    H168743   0.251   6.678  12.155  1.0198  0.3809 -0.3442
15776TIP3    H268744   0.323   6.806  12.117 -0.8978  1.6055  0.0384
15777TIP3   OH268745   5.279   1.187   1.445 -0.3151  0.6403  0.1308
15777TIP3    H168746   5.196   1.210   1.487 -0.4932  0.8317 -0.3247
15777TIP3    H268747   5.258   1.111   1.390 -0.3047  1.0233 -0.3997
15778TIP3   OH268748   5.669   4.558   5.959 -0.5021 -0.5534 -0.1441
15778TIP3    H168749   5.695   4.644   5.927  1.6425 -1.9724 -2.4788
15778TIP3    H268750   5.574   4.555   5.946 -0.9078  2.1658  1.8871
15779TIP3   OH268751   2.104   1.190   5.922 -0.4970 -0.0934  0.2146
15779TIP3    H168752   2.162   1.257   5.887 -1.2554  0.5284  0.1234
15779TIP3    H268753   2.042   1.238   5.977 -0.8050 -0.7701  0.4673
15780TIP3   OH268754   6.212   1.330  16.413  0.3191 -0.1733  0.3984
15780TIP3    H168755   6.191   1.412  16.369 -3.6665 -1.9504 -1.2739
15780TIP3    H268756   6.146   1.322  16.481  0.3821 -2.1564  0.2602
15781TIP3   OH268757   5.602   0.726   3.355 -0.2503  0.1602 -0.3328
15781TIP3    H168758   5.670   0.669   3.321 -1.8718 -1.2527 -1.2384
15781TIP3    H268759   5.650   0.798   3.398  1.7870 -1.4268  0.0946
15782TIP3   OH268760   4.211   1.409   5.999  0.1821  0.0580  0.0908
15782TIP3    H168761   4.157   1.335   6.025  0.0373 -0.5515 -1.8688
15782TIP3    H268762   4.164   1.486   6.031 -1.2230 -0.5425 -0.4932
15783TIP3   OH268763   3.932   5.457   3.849 -0.1805  0.3373 -0.1506
15783TIP3    H168764   3.965   5.389   3.790 -0.9405 -1.2465  1.2022
15783TIP3    H268765   3.979   5.442   3.931 -0.3116  1.5081  0.1520
15784TIP3   OH268766   5.163   1.964  16.766  0.6203 -0.0794  0.0893
15784TIP3    H168767   5.092   1.905  16.741  0.2149  1.0345 -1.4653
15784TIP3    H268768   5.157   2.036  16.704  1.9127  0.9752  1.1610
15785TIP3   OH268769   0.259   2.734  16.151 -0.5972 -0.2978  0.6797
15785TIP3    H168770   0.340   2.695  16.183  0.1773  0.5946 -0.1741
15785TIP3    H268771   0.278   2.828  16.143 -1.8529 -0.0088  0.9080
15786TIP3   OH268772   3.632   4.590   0.189 -0.6680 -0.4080  0.0982
15786TIP3    H168773   3.711   4.644   0.199 -1.8193  1.2518  0.5646
15786TIP3    H268774   3.639   4.525   0.259  0.6587 -0.7415 -0.3381
15787TIP3   OH268775   3.295   2.196  12.068  0.3170  0.1707 -0.2098
15787TIP3    H168776   3.319   2.106  12.092  0.9091  0.4194  0.1540
15787TIP3    H268777   3.323   2.249  12.143  1.2952  0.8365 -1.0346
15788TIP3   OH268778   1.175   0.439  14.001  0.0114 -0.4591  0.2767
15788TIP3    H168779   1.246   0.477  13.948 -0.8374  0.8951  0.0697
15788TIP3    H268780   1.219   0.395  14.073  1.0492  1.0227  0.5646
15789TIP3   OH268781   0.930   3.139   1.340  0.5369  0.4053 -0.6462
15789TIP3    H168782   0.967   3.051   1.347 -1.5418 -0.4333  0.1428
15789TIP3    H268783   0.961   3.184   1.419 -2.1452 -1.1080  1.3595
15790TIP3   OH268784   6.727   0.832   3.311  0.4354  0.6060 -0.0689
15790TIP3    H168785   6.799   0.875   3.357  1.4929 -2.0940  0.8752
15790TIP3    H268786   6.654   0.835   3.372  0.4668  1.1797 -0.0597
15791TIP3   OH268787   2.762   6.370   4.886 -0.5921 -0.1737  0.5263
15791TIP3    H168788   2.676   6.403   4.912 -0.5801  0.7640 -0.5841
15791TIP3    H268789   2.805   6.444   4.845  0.5712 -0.7770  0.6284
15792TIP3   OH268790   1.788   4.926  14.474 -0.5691  0.2339  0.5178
15792TIP3    H168791   1.780   4.999  14.413 -0.2758  0.6305  0.9489
15792TIP3    H268792   1.879   4.929  14.502 -0.9455  0.6369  1.7058
15793TIP3   OH268793   0.472   1.062   2.965 -0.2856 -0.2987 -0.6250
15793TIP3    H168794   0.448   1.014   3.045  0.6219  0.9528  0.4233
15793TIP3    H268795   0.535   1.006   2.921  1.3187  0.2146  0.9578
15794TIP3   OH268796   2.399   4.892   5.342  0.2422  0.2997 -0.0602
15794TIP3    H168797   2.456   4.934   5.406 -0.4322 -0.1681  0.8420
15794TIP3    H268798   2.458   4.833   5.294  0.6877  0.4360  0.3142
15795TIP3   OH268799   1.542   1.314  15.896  0.1544 -0.4142 -0.2693
15795TIP3    H168800   1.473   1.364  15.939  1.8344  0.0081  2.0417
15795TIP3    H268801   1.497   1.263  15.829 -2.0124  1.8454 -0.5931
15796TIP3   OH268802   4.107   4.196  15.616  0.3127 -0.0350 -0.1950
15796TIP3    H168803   4.199   4.214  15.597  0.4458 -0.0186  0.4300
15796TIP3    H268804   4.074   4.151  15.538  1.2837 -1.5047  0.2099
15797TIP3   OH268805   1.953   6.109   4.859  0.8194  0.3625 -0.4807
15797TIP3    H168806   1.869   6.154   4.871  0.2886 -0.6843 -0.2506
15797TIP3    H268807   1.984   6.092   4.948  0.7304 -0.2574 -0.5661
15798TIP3   OH268808   0.397   5.226   2.919  0.3112 -0.6845 -0.3080
15798TIP3    H168809   0.334   5.276   2.868 -0.3005 -0.9038  0.2196
15798TIP3    H268810   0.396   5.267   3.006  1.1175 -0.4988 -0.3836
15799TIP3   OH268811   5.696   3.722  12.074  0.4140  0.2529 -0.6972
15799TIP3    H168812   5.614   3.757  12.039  0.0499 -0.2266 -0.3338
15799TIP3    H268813   5.739   3.682  11.998 -0.0558 -0.1848 -0.7391
15800TIP3   OH268814   1.272   0.469  16.255 -0.0562 -0.0764 -0.3069
15800TIP3    H168815   1.355   0.429  16.228  0.7288  1.6754 -0.5991
15800TIP3    H268816   1.287   0.563  16.245 -1.9615  0.2797  0.0137
15801TIP3   OH268817   2.452   0.308  12.679 -0.1342 -0.0182  0.4557
15801TIP3    H168818   2.540   0.286  12.648 -0.0069  1.2343 -0.1132
15801TIP3    H268819   2.426   0.383  12.626 -1.6500 -0.5188  0.4718
15802TIP3   OH268820   2.462   1.847   3.261  0.1119  0.6886  0.8586
15802TIP3    H168821   2.380   1.844   3.212  0.9865  0.6161 -0.6451
15802TIP3    H268822   2.482   1.941   3.269  0.6106  0.6744 -0.0700
15803TIP3   OH268823   6.298   4.823  11.147 -0.1976  0.1840  0.0270
15803TIP3    H168824   6.300   4.886  11.075 -0.0898  0.4157  0.2344
15803TIP3    H268825   6.230   4.761  11.122 -0.6430  0.6576  0.0560
15804TIP3   OH268826   0.101   2.651  12.600 -0.8177 -0.3464 -0.1808
15804TIP3    H168827   0.189   2.677  12.628 -0.9934 -0.7800  0.7806
15804TIP3    H268828   0.115   2.581  12.537 -0.4743 -0.5469  0.1179
15805TIP3   OH268829   2.616   6.557  14.324 -0.3659 -0.7325 -0.4399
15805TIP3    H168830   2.710   6.552  14.308  0.3104 -0.4903  3.1739
15805TIP3    H268831   2.588   6.637  14.280  1.2954 -0.2727 -0.6654
15806TIP3   OH268832   1.914   5.984  13.185  0.8997 -0.1618 -0.3921
15806TIP3    H168833   1.829   6.000  13.145  2.7956  2.4085 -3.7480
15806TIP3    H268834   1.929   5.890  13.173 -0.5529 -0.2558 -1.6948
15807TIP3   OH268835   1.909   0.939   5.474  0.2544  0.3978 -0.6680
15807TIP3    H168836   1.941   0.852   5.450  0.0822  0.1500  0.0023
15807TIP3    H268837   1.841   0.923   5.540 -0.5733  0.9756 -1.3645
15808TIP3   OH268838   2.095   2.848  13.299  0.0629  0.0120 -0.5923
15808TIP3    H168839   2.067   2.927  13.252  1.5016  0.6550 -0.4059
15808TIP3    H268840   2.183   2.831  13.265 -0.3119 -1.6174 -0.7466
15809TIP3   OH268841   2.500   1.181  14.867  0.1715 -0.7163  0.1748
15809TIP3    H168842   2.458   1.265  14.888  1.6360  0.1534 -0.3335
15809TIP3    H268843   2.516   1.185  14.773 -1.2205 -2.2522 -0.1342
15810TIP3   OH268844   5.143   5.394   5.654  0.3725 -0.1726  0.1594
15810TIP3    H168845   5.086   5.396   5.577  0.8310  2.4564 -0.1647
15810TIP3    H268846   5.232   5.390   5.618  0.6796  2.7259  0.4245
15811TIP3   OH268847   1.605   6.159  11.566 -0.2138 -0.2940 -0.0421
15811TIP3    H168848   1.696   6.130  11.555  0.7404  2.1462  0.9974
15811TIP3    H268849   1.570   6.161  11.477  1.0298 -0.4073 -0.5490
15812TIP3   OH268850   1.753   6.554  15.722  0.2948 -0.0391 -0.5039
15812TIP3    H168851   1.703   6.550  15.640  1.6985 -1.1390 -1.3224
15812TIP3    H268852   1.801   6.472  15.725 -0.7310 -0.5903  2.1038
15813TIP3   OH268853   3.049   4.703  12.243 -0.0790  0.4022  0.1775
15813TIP3    H168854   3.024   4.626  12.192 -0.8018  2.0322 -2.0049
15813TIP3    H268855   3.145   4.706  12.237 -0.1725  0.7425 -1.3776
15814TIP3   OH268856   6.087   5.945   3.433 -0.1635  0.3744 -0.1243
15814TIP3    H168857   6.062   5.881   3.366 -0.4629 -1.2138  1.4771
15814TIP3    H268858   6.137   6.012   3.385  1.7493 -1.9928 -1.5400
15815TIP3   OH268859   3.235   4.013   3.710  0.1976  0.3923 -0.1045
15815TIP3    H168860   3.192   3.949   3.768 -0.7399  0.3578 -0.8179
15815TIP3    H268861   3.313   4.040   3.757  0.3757 -0.9690  0.4049
15816TIP3   OH268862   5.457   5.067  17.091  0.3567  0.4901  0.3453
15816TIP3    H168863   5.387   5.051  17.154  1.1072  0.9633  1.3244
15816TIP3    H268864   5.434   5.150  17.050 -0.0086  0.3036  0.1702
15817TIP3   OH268865   3.807   1.494  14.801  0.0672 -0.3083 -0.0616
15817TIP3    H168866   3.862   1.437  14.855 -0.5268  0.0527  0.9437
15817TIP3    H268867   3.848   1.580  14.808 -2.2956  0.6709  3.2505
15818TIP3   OH268868   1.054   4.545   5.194  0.2859  0.7798 -0.3918
15818TIP3    H168869   0.986   4.477   5.191  0.1319  0.9797 -2.3024
15818TIP3    H268870   1.029   4.606   5.124  2.0375  1.2418 -0.6216
15819TIP3   OH268871   6.715   2.768   4.429  0.0427  0.3162 -0.5993
15819TIP3    H168872   6.754   2.690   4.391 -0.6362 -0.6881  0.7327
15819TIP3    H268873   6.765   2.785   4.509  1.0474  2.0350 -1.5652
15820TIP3   OH268874   6.157   4.421   2.798 -0.6576  0.0946 -0.4431
15820TIP3    H168875   6.135   4.395   2.888  1.4780 -0.5577 -0.0605
15820TIP3    H268876   6.171   4.338   2.752  0.4070  0.4438 -0.7749
15821TIP3   OH268877   3.123   1.822  12.732 -0.0284 -0.0763 -0.1473
15821TIP3    H168878   3.142   1.883  12.661 -1.0643  1.3628  0.7869
15821TIP3    H268879   3.130   1.736  12.692  2.8844  0.5899 -1.1364
15822TIP3   OH268880   0.954   3.672   0.695 -0.2678 -0.8024 -0.0537
15822TIP3    H168881   0.972   3.719   0.613  1.3725 -0.0012  0.7326
15822TIP3    H268882   0.865   3.640   0.685 -0.0629 -0.8013 -2.2047
15823TIP3   OH268883   2.316   6.521  13.673 -0.7119 -0.4842 -0.7046
15823TIP3    H168884   2.328   6.609  13.637 -0.2494 -0.7275 -1.1562
15823TIP3    H268885   2.405   6.486  13.681 -0.3358  1.4282  5.4465
15824TIP3   OH268886   4.343   5.720  14.751 -0.7416  0.1114  0.2686
15824TIP3    H168887   4.384   5.689  14.832  1.3708 -0.7730 -1.1011
15824TIP3    H268888   4.400   5.790  14.721 -0.9806 -0.2249 -0.9669
15825TIP3   OH268889   3.329   3.417   0.047  0.1799  0.1264 -0.0228
15825TIP3    H168890   3.318   3.334   0.093 -1.2030 -0.1073 -0.7540
15825TIP3    H268891   3.344   3.481   0.116  2.0998 -0.8569  0.4947
15826TIP3   OH268892   2.920   3.569   6.262 -0.0097  0.0038  0.3298
15826TIP3    H168893   2.912   3.662   6.282 -1.2928 -0.3239  1.4151
15826TIP3    H268894   2.851   3.553   6.197 -2.2529 -0.9036  2.8197
15827TIP3   OH268895   0.143   2.763   0.268 -0.3132 -0.7462  0.2583
15827TIP3    H168896   0.110   2.682   0.229  0.4382 -0.4355 -1.0635
15827TIP3    H268897   0.065   2.817   0.281 -0.5222 -0.6440 -1.3375
15828TIP3   OH268898   2.151   4.632   2.598  0.2121  0.7960  0.1473
15828TIP3    H168899   2.176   4.700   2.536  0.8053 -1.2447 -1.9041
15828TIP3    H268900   2.207   4.557   2.577  0.4783  0.0690  3.2085
15829TIP3   OH268901   0.626   1.639   4.094 -0.4977 -0.5202  0.3685
15829TIP3    H168902   0.542   1.616   4.135 -0.0930 -1.6276  0.5772
15829TIP3    H268903   0.671   1.690   4.161 -0.7508 -0.4449  0.4851
15830TIP3   OH268904   2.715   5.633   5.243  0.7467 -0.9138  0.0795
15830TIP3    H168905   2.755   5.608   5.160  1.0593 -0.1631  0.0027
15830TIP3    H268906   2.696   5.726   5.234  1.4557 -0.6627  1.1264
15831TIP3   OH268907   5.368   4.116   5.804 -0.6222 -0.0794  0.3142
15831TIP3    H168908   5.372   4.188   5.867  1.5324 -0.1311  0.2444
15831TIP3    H268909   5.308   4.147   5.736  0.0163  1.5176  0.4669
15832TIP3   OH268910   2.015   2.730   1.456  0.2299  0.5152  0.2991
15832TIP3    H168911   2.014   2.638   1.483  1.7941  0.1646 -0.7710
15832TIP3    H268912   1.945   2.771   1.507 -0.1004 -1.1463  1.2070
15833TIP3   OH268913   1.943   5.399  13.914  0.1066 -0.8046 -0.2562
15833TIP3    H168914   1.862   5.348  13.923  0.2231 -1.2378 -1.7077
15833TIP3    H268915   1.923   5.463  13.846 -0.2759  1.5872  2.0084
15834TIP3   OH268916   2.730   1.889   2.943  0.1534  0.7195  0.2091
15834TIP3    H168917   2.669   1.877   2.871 -0.7171 -3.0946  1.4637
15834TIP3    H268918   2.689   1.955   2.999 -2.6207 -1.3589  0.7171
15835TIP3   OH268919   5.051   3.593  16.864  0.3319 -0.0454  0.3405
15835TIP3    H168920   4.977   3.605  16.924 -0.1596  0.4232 -0.3501
15835TIP3    H268921   5.125   3.631  16.910 -0.0406  0.2988  0.6664
15836TIP3   OH268922   3.859   4.520  11.347  0.6212  0.2401 -0.1857
15836TIP3    H168923   3.942   4.535  11.391  0.2283  0.3364  0.5317
15836TIP3    H268924   3.793   4.537  11.414  0.0556 -0.9446 -0.4345
15837TIP3   OH268925   4.539   2.536  11.282  0.4951  0.2247  0.4237
15837TIP3    H168926   4.583   2.468  11.333  0.7532  0.6525  0.7784
15837TIP3    H268927   4.499   2.592  11.348 -0.2650  0.0499  0.1148
15838TIP3   OH268928   5.438   5.206   1.191  0.4731  0.2441  0.2260
15838TIP3    H168929   5.406   5.124   1.229  0.0003 -0.5433 -1.8216
15838TIP3    H268930   5.434   5.269   1.263 -1.8598 -0.8394  1.0693
15839TIP3   OH268931   1.403   3.152   3.266 -0.4341  0.0807  0.0612
15839TIP3    H168932   1.367   3.069   3.298 -0.3343 -0.3385 -0.8974
15839TIP3    H268933   1.332   3.215   3.280 -0.4990 -0.1524  0.8222
15840TIP3   OH268934   5.236   1.747   4.701 -0.2884  0.3489 -0.0250
15840TIP3    H168935   5.297   1.806   4.657 -0.3528 -0.8232 -1.7152
15840TIP3    H268936   5.152   1.762   4.657 -0.2493 -1.1847 -0.6254
15841TIP3   OH268937   2.714   0.412   2.812  0.2610 -0.1456  0.1731
15841TIP3    H168938   2.661   0.406   2.732 -0.3781  0.9602  0.5082
15841TIP3    H268939   2.653   0.394   2.883  1.0289 -2.0508  0.3668
15842TIP3   OH268940   0.181   5.587  12.273 -0.1096  0.4372 -0.0986
15842TIP3    H168941   0.134   5.664  12.240  0.2565 -0.3845 -2.6219
15842TIP3    H268942   0.113   5.521  12.286 -0.3367  0.9560  1.4445
15843TIP3   OH268943   5.890   4.634  15.245 -0.2466 -0.0548  0.3312
15843TIP3    H168944   5.851   4.720  15.263  0.8111  0.8832 -1.6408
15843TIP3    H268945   5.971   4.634  15.295 -1.1164 -0.6612  1.7746
15844TIP3   OH268946   0.986   0.356   0.792  0.1878  0.1463  1.1525
15844TIP3    H168947   0.900   0.321   0.768  0.3383  0.6838 -0.2018
15844TIP3    H268948   0.969   0.409   0.870 -0.7638  0.4385  0.7626
15845TIP3   OH268949   2.892   5.029   3.772 -0.3878  0.3072  0.0569
15845TIP3    H168950   2.914   4.993   3.858 -0.4545  1.1587  0.4411
15845TIP3    H268951   2.938   4.973   3.710  0.1064  0.0108  0.6834
15846TIP3   OH268952   4.033   3.098  12.388 -0.4639 -0.0379  1.1004
15846TIP3    H168953   3.956   3.129  12.435  0.8829  2.5460  1.6434
15846TIP3    H268954   4.034   3.149  12.307 -1.2158 -2.5088 -0.5385
15847TIP3   OH268955   0.511   2.523   1.346  0.2960 -0.2038  0.8141
15847TIP3    H168956   0.573   2.551   1.414 -0.5583  0.6040  1.2834
15847TIP3    H268957   0.430   2.506   1.394 -0.2297  0.0867  0.0374
15848TIP3   OH268958   0.687   2.886   6.045  0.5277 -0.2334  0.3368
15848TIP3    H168959   0.747   2.899   6.118  0.2288  0.3063  0.4911
15848TIP3    H268960   0.623   2.956   6.054  0.8371  0.2069 -0.8043
15849TIP3   OH268961   3.760   2.397   1.110 -0.2913  0.0553  0.1169
15849TIP3    H168962   3.795   2.379   1.023  1.0420  2.5157  0.1002
15849TIP3    H268963   3.666   2.404   1.098 -0.0849  0.7025 -1.1919
15850TIP3   OH268964   6.508   0.700   5.189 -0.4990 -0.0142  0.2341
15850TIP3    H168965   6.593   0.738   5.212 -0.5519  0.3119 -0.0957
15850TIP3    H268966   6.468   0.765   5.130 -1.6087  0.5184  1.5509
15851TIP3   OH268967   0.194   3.500   6.089  0.5330  0.4844  0.0950
15851TIP3    H168968   0.229   3.492   6.000  0.5196  1.1191  0.0314
15851TIP3    H268969   0.100   3.489   6.078  0.7163 -1.4633  0.2972
15852TIP3   OH268970   1.727   1.345  15.266  0.3896 -0.0064  0.3359
15852TIP3    H168971   1.676   1.374  15.342  0.8727  1.7805 -0.0019
15852TIP3    H268972   1.663   1.330  15.197  0.0154 -1.0233  0.8841
15853TIP3   OH268973   3.638   4.822   5.504  0.6601  0.1141  0.0064
15853TIP3    H168974   3.599   4.909   5.518 -2.1185 -0.8507 -1.2573
15853TIP3    H268975   3.601   4.768   5.574  0.1723 -0.6963 -0.8699
15854TIP3   OH268976   4.286   1.840   5.329 -0.1486  0.0956 -0.2451
15854TIP3    H168977   4.195   1.836   5.300  0.2237  0.7078 -1.5571
15854TIP3    H268978   4.319   1.751   5.317  0.3017  0.5667 -2.8074
15855TIP3   OH268979   2.556   5.052   6.165 -0.4268  0.1259 -0.0038
15855TIP3    H168980   2.493   4.994   6.208  0.0164 -0.4185 -0.0752
15855TIP3    H268981   2.557   5.131   6.220  2.1564 -1.6239  2.6008
15856TIP3   OH268982   6.568   2.691   3.860 -0.1989  0.5695  0.1157
15856TIP3    H168983   6.551   2.772   3.909  1.6628  0.1921  1.4351
15856TIP3    H268984   6.663   2.680   3.864 -0.4027 -1.5114 -0.3348
15857TIP3   OH268985   5.636   4.131   4.177  0.1671  0.5632  0.0783
15857TIP3    H168986   5.557   4.077   4.173  0.6510 -0.1089 -0.5735
15857TIP3    H268987   5.708   4.067   4.180  0.6575  1.1597  1.2926
15858TIP3   OH268988   1.442   1.604   1.704  0.2559 -0.3734  0.1257
15858TIP3    H168989   1.390   1.610   1.624  2.1308  0.8399 -1.0680
15858TIP3    H268990   1.515   1.547   1.680  0.1435 -1.0494  1.3764
15859TIP3   OH268991   1.118   3.698   3.071  0.2184 -0.2307  0.3662
15859TIP3    H168992   1.213   3.706   3.058  0.2857 -0.8654  0.4582
15859TIP3    H268993   1.106   3.608   3.102 -0.5836 -0.6362 -1.1019
15860TIP3   OH268994   1.395   6.251  12.337  0.1695  0.3084 -0.0239
15860TIP3    H168995   1.465   6.309  12.366  0.1485  0.9790 -1.2765
15860TIP3    H268996   1.318   6.279  12.386 -0.1228  2.1449 -1.4621
15861TIP3   OH268997   5.754   2.406   2.268 -0.1231 -0.6664 -0.9171
15861TIP3    H168998   5.810   2.358   2.329 -1.1484  0.1995  0.7533
15861TIP3    H268999   5.749   2.350   2.191  0.8632 -1.9882 -0.0395
15862TIP3   OH269000   4.536   2.835   5.346  0.1146  0.3073  0.4679
15862TIP3    H169001   4.600   2.867   5.410  0.0611  0.0225  0.6632
15862TIP3    H269002   4.476   2.781   5.397 -1.8530  2.6774  0.8086
15863TIP3   OH269003   0.507   1.325  14.975 -0.3676  0.4192  0.4157
15863TIP3    H169004   0.487   1.264  14.905 -0.3918 -0.7125  1.3979
15863TIP3    H269005   0.600   1.346  14.963 -0.4428  0.4560 -0.1151
15864TIP3   OH269006   4.644   2.463   4.056 -0.4275 -0.2788 -0.1119
15864TIP3    H169007   4.605   2.387   4.012  1.0370 -1.0165 -0.1457
15864TIP3    H269008   4.569   2.516   4.081 -1.3177  0.2613 -3.6479
15865TIP3   OH269009   3.856   1.132  13.102  0.2682 -0.1203  0.1536
15865TIP3    H169010   3.905   1.050  13.097  0.6009  0.0539  0.5784
15865TIP3    H269011   3.920   1.200  13.081 -0.1368 -0.0071 -0.7570
15866TIP3   OH269012   4.098   3.792   0.993  0.2388 -0.2682 -0.2476
15866TIP3    H169013   4.192   3.804   0.986  0.2210 -1.0654 -2.1133
15866TIP3    H269014   4.078   3.718   0.936 -1.2576 -1.4118  1.7062
15867TIP3   OH269015   5.824   3.593  11.477  0.4573  0.0982  0.0405
15867TIP3    H169016   5.816   3.688  11.492  0.3895  0.0879  0.0683
15867TIP3    H269017   5.822   3.584  11.382 -1.1944 -0.0203  0.0667
15868TIP3   OH269018   2.758   4.333   5.350 -0.0939  0.6113 -0.1563
15868TIP3    H169019   2.853   4.330   5.338 -0.2060 -1.7782 -0.7448
15868TIP3    H269020   2.744   4.402   5.414  1.8373  2.6370 -1.8404
15869TIP3   OH269021   3.044   3.127  12.350 -0.6729 -0.2493 -0.7676
15869TIP3    H169022   3.083   3.103  12.266 -0.4389  0.0911 -0.7573
15869TIP3    H269023   2.987   3.054  12.372 -0.6322 -0.3998 -1.1582
15870TIP3   OH269024   1.580   5.535  11.962 -0.8294  0.5419 -0.7672
15870TIP3    H169025   1.527   5.604  11.923 -1.3357  0.7458  0.2495
15870TIP3    H269026   1.516   5.474  11.999 -0.3720  0.0024 -0.8580
15871TIP3   OH269027   5.328   0.932  13.283  0.0823  0.8212 -0.7027
15871TIP3    H169028   5.369   0.888  13.357 -0.2737 -2.2688 -2.2889
15871TIP3    H269029   5.397   0.989  13.248  1.4438 -0.5340 -0.2814
15872TIP3   OH269030   3.113   0.618  11.384 -0.2624 -0.0584  0.3255
15872TIP3    H169031   3.118   0.686  11.451  0.0754  1.3916 -1.1310
15872TIP3    H269032   3.036   0.642  11.332 -0.8665 -1.4991  0.5297
15873TIP3   OH269033   1.793   1.392   0.606 -0.4259  0.0588  0.2033
15873TIP3    H169034   1.848   1.449   0.658 -1.0292  1.5206 -0.7058
15873TIP3    H269035   1.750   1.334   0.669 -0.2330  0.9941  1.1904
15874TIP3   OH269036   2.009   3.667   1.756 -0.0717  0.0738  0.4206
15874TIP3    H169037   1.933   3.665   1.698  0.1730 -0.9799  0.1229
15874TIP3    H269038   1.972   3.667   1.844 -0.4405  1.4446  0.2879
15875TIP3   OH269039   5.193   2.816   2.353  0.3030 -0.0795 -0.3150
15875TIP3    H169040   5.210   2.726   2.383  4.3027  0.1958 -1.4580
15875TIP3    H269041   5.158   2.860   2.430  1.0674 -1.8884  1.1275
15876TIP3   OH269042   1.099   5.982  11.072 -0.2420 -0.1794  0.5274
15876TIP3    H169043   1.116   5.913  11.136 -0.2739 -0.3560  0.3469
15876TIP3    H269044   1.080   5.935  10.991 -0.7761  0.0333  0.5304
15877TIP3   OH269045   1.178   2.976   0.573 -0.9930  0.3816  0.1189
15877TIP3    H169046   1.127   2.911   0.525  1.7058 -0.9967 -1.0174
15877TIP3    H269047   1.176   3.054   0.518 -0.4080 -0.2385 -0.7890
15878TIP3   OH269048   6.716   3.690   3.353  0.1483  0.1727 -0.4088
15878TIP3    H169049   6.662   3.681   3.431  0.0059 -0.5627 -0.5960
15878TIP3    H269050   6.662   3.739   3.291  0.4696  1.2628  0.1502
15879TIP3   OH269051   4.338   6.051   1.500  0.1089  0.6760 -0.6919
15879TIP3    H169052   4.428   6.038   1.528 -0.3121  0.2255  0.4946
15879TIP3    H269053   4.332   6.145   1.480  0.8109  0.7234 -0.6683
15880TIP3   OH269054   3.487   5.474  13.281  0.0959  0.4910 -0.2657
15880TIP3    H169055   3.429   5.411  13.324  1.1358 -0.6860 -0.5652
15880TIP3    H269056   3.514   5.534  13.351 -1.6047  1.1424 -0.1623
15881TIP3   OH269057   5.593   1.370  15.909 -0.0718  0.5224 -0.0298
15881TIP3    H169058   5.643   1.374  15.991  0.9226  0.2801 -0.6221
15881TIP3    H269059   5.621   1.447  15.860 -0.5065  0.5485 -0.2378
15882TIP3   OH269060   3.108   1.629  12.515 -0.3761  0.4607  0.2700
15882TIP3    H169061   3.152   1.581  12.446 -0.3641  0.7988  0.0428
15882TIP3    H269062   3.037   1.676  12.471 -0.3306  0.7274  0.4749
15883TIP3   OH269063   1.154   2.977   3.722 -0.1450  0.3284 -0.5369
15883TIP3    H169064   1.108   3.061   3.725  0.8679  0.9089 -1.2232
15883TIP3    H269065   1.171   2.962   3.629  1.2734  0.2357 -0.2670
15884TIP3   OH269066   2.269   3.687   2.380 -0.2636  0.0727  0.3829
15884TIP3    H169067   2.324   3.754   2.339 -0.2004  1.0884  2.0649
15884TIP3    H269068   2.300   3.604   2.344  3.1067  0.5239  2.1028
15885TIP3   OH269069   3.162   3.953   3.290 -0.1340  0.0541 -0.0285
15885TIP3    H169070   3.118   4.035   3.267 -0.9746 -0.4817 -0.3372
15885TIP3    H269071   3.236   3.948   3.228 -1.6238 -0.7316 -1.7772
15886TIP3   OH269072   5.784   3.164   4.891 -0.5020 -0.1045 -0.3090
15886TIP3    H169073   5.877   3.181   4.907 -0.6694  1.1513 -0.6332
15886TIP3    H269074   5.739   3.234   4.938 -1.2598 -0.2284 -0.8510
15887TIP3   OH269075   6.160   5.122   1.286 -0.0972  0.7473  0.4135
15887TIP3    H169076   6.099   5.193   1.267 -1.6210  0.1762  2.9347
15887TIP3    H269077   6.220   5.157   1.351  0.6202  0.4504 -0.0732
15888TIP3   OH269078   3.811   2.459  12.218 -0.1651 -0.7033 -0.2647
15888TIP3    H169079   3.804   2.399  12.291 -0.7244 -0.6986 -0.3075
15888TIP3    H269080   3.883   2.518  12.241 -0.8699 -0.1833  0.6628
15889TIP3   OH269081   4.138   2.451   2.405 -0.3384 -0.3482  0.0443
15889TIP3    H169082   4.120   2.403   2.324  1.3686  0.1308 -0.6226
15889TIP3    H269083   4.052   2.459   2.447 -1.2757 -0.4235 -1.8060
15890TIP3   OH269084   5.245   0.052   1.478  0.1705 -0.1718 -0.4674
15890TIP3    H169085   5.237   0.003   1.560  0.2740 -1.5108 -1.2337
15890TIP3    H269086   5.285   0.135   1.503 -0.9631 -0.0382  1.0217
15891TIP3   OH269087   4.435   2.866   2.781 -0.1326 -0.5974  0.4154
15891TIP3    H169088   4.394   2.823   2.856 -0.3299 -1.3700 -0.1212
15891TIP3    H269089   4.503   2.804   2.752  1.0951  0.4446  0.9979
15892TIP3   OH269090   2.740   3.921  15.390  0.0184  0.1075 -0.0404
15892TIP3    H169091   2.731   3.912  15.296 -1.7761 -0.9881  0.1987
15892TIP3    H269092   2.758   3.832  15.421 -0.5394  0.2629  0.7530
15893TIP3   OH269093   2.787   3.154  14.579  0.3891  0.2329  0.2587
15893TIP3    H169094   2.784   3.075  14.632  0.7144 -0.3352 -0.5595
15893TIP3    H269095   2.881   3.175  14.572  0.1782  2.3841  2.9361
15894TIP3   OH269096   1.680   5.958   3.623  0.4716  0.6051  0.8385
15894TIP3    H169097   1.598   6.006   3.614  0.0439 -0.3199 -0.4973
15894TIP3    H269098   1.725   5.972   3.539  1.6249  1.0264  1.5235
15895TIP3   OH269099   1.345   1.995  14.887  0.5318  0.2772  0.7110
15895TIP3    H169100   1.330   2.082  14.849 -1.4048  0.1407  1.0972
15895TIP3    H269101   1.302   2.000  14.973  1.2011 -0.7679  1.1036
15896TIP3   OH269102   3.271   5.065   5.826  0.7283 -0.3600 -1.3241
15896TIP3    H169103   3.277   5.038   5.917 -0.1866 -0.9452 -1.4349
15896TIP3    H269104   3.357   5.103   5.806  1.0114 -0.4725 -0.3023
15897TIP3   OH269105   3.821   4.928  14.855  0.3122 -0.4416 -0.1822
15897TIP3    H169106   3.753   4.872  14.818 -0.8499  0.6617  0.2497
15897TIP3    H269107   3.806   5.014  14.816  0.9638  0.0069  0.5267
15898TIP3   OH269108   6.630   6.715  10.334 -0.3151  0.1615 -0.3810
15898TIP3    H169109   6.700   6.769  10.372  0.3843 -0.5604 -0.6125
15898TIP3    H269110   6.677   6.640  10.295 -1.1168  0.2737 -1.5918
15899TIP3   OH269111   3.737   2.794  11.236  0.1812 -0.3706  0.1040
15899TIP3    H169112   3.708   2.817  11.148 -0.9859 -2.3082 -0.0322
15899TIP3    H269113   3.830   2.821  11.238 -0.4280  1.9739 -0.8514
15900TIP3   OH269114   1.288   6.176  11.765  0.3299 -0.3549  0.0852
15900TIP3    H169115   1.238   6.216  11.694  0.3537 -3.3182 -1.7052
15900TIP3    H269116   1.221   6.150  11.829 -0.0548 -0.6986 -0.4453
15901TIP3   OH269117   4.036   0.403   2.377  0.5967  0.0952 -0.1873
15901TIP3    H169118   4.075   0.407   2.290  0.2502  1.5272 -0.2894
15901TIP3    H269119   3.957   0.351   2.366 -0.7211  2.2342 -1.2552
15902TIP3   OH269120   6.422   5.235   4.732 -0.2646 -0.0206  0.3055
15902TIP3    H169121   6.488   5.206   4.795  1.0612  1.5814 -0.3229
15902TIP3    H269122   6.462   5.310   4.688 -1.2459 -0.9730 -2.3031
15903TIP3   OH269123   4.744   2.285  15.919 -0.3496  0.2773  0.2956
15903TIP3    H169124   4.743   2.295  16.014 -1.4155 -1.7043  0.5244
15903TIP3    H269125   4.711   2.196  15.904  1.4133 -0.0780 -1.8331
15904TIP3   OH269126   3.091   1.106   5.888 -0.1191 -0.2721 -0.3625
15904TIP3    H169127   3.077   1.096   5.793 -0.0106  0.0752 -0.4146
15904TIP3    H269128   3.142   1.029   5.913  0.2891 -0.1039 -0.6761
15905TIP3   OH269129   4.692   2.136  13.967  0.2019  0.6385 -0.2625
15905TIP3    H169130   4.616   2.171  13.920  1.3842  3.4720 -0.1624
15905TIP3    H269131   4.654   2.086  14.039 -1.5771 -0.2622 -1.7520
15906TIP3   OH269132   0.270   3.248   1.545  0.3540  1.0413  0.3316
15906TIP3    H169133   0.303   3.326   1.502  1.2307  0.2789 -0.3922
15906TIP3    H269134   0.347   3.192   1.556 -0.3685  0.0269  0.3015
15907TIP3   OH269135   0.735   1.597  10.564 -0.0023 -1.0029 -0.1738
15907TIP3    H169136   0.710   1.681  10.601  0.2446 -0.6156 -0.8930
15907TIP3    H269137   0.668   1.578  10.499  0.9670 -0.4700 -1.3400
15908TIP3   OH269138   1.408   4.082  11.226  0.3349 -0.4373 -0.4151
15908TIP3    H169139   1.363   4.040  11.152  1.1884 -0.4458 -0.9319
15908TIP3    H269140   1.337   4.109  11.284 -0.2466 -2.7591  0.0261
15909TIP3   OH269141   0.919   1.108   3.098  0.1073  0.5581 -0.4585
15909TIP3    H169142   0.904   1.202   3.098  0.2363  0.5801  0.4787
15909TIP3    H269143   0.892   1.080   3.010  0.7179  1.5677 -0.9855
15910TIP3   OH269144   0.973   6.667   0.428  0.3400  0.1257  0.7913
15910TIP3    H169145   0.886   6.655   0.467 -0.2020  0.7061 -0.2098
15910TIP3    H269146   1.011   6.739   0.477 -0.1741  0.5758  0.5413
15911TIP3   OH269147   3.603   1.670  13.395  0.8410  0.0830 -0.7448
15911TIP3    H169148   3.552   1.613  13.338  0.5510  0.4572 -0.8634
15911TIP3    H269149   3.688   1.626  13.404  0.6259 -0.3550 -0.8480
15912TIP3   OH269150   4.066   0.837  15.230  0.2823  0.7068  0.3334
15912TIP3    H169151   4.160   0.854  15.219  0.3289 -0.1571 -0.7085
15912TIP3    H269152   4.043   0.781  15.156 -1.1173  1.1138  0.4397
15913TIP3   OH269153   2.983   1.821  15.667  0.5021  0.1108  0.1752
15913TIP3    H169154   3.049   1.819  15.597 -0.1786  0.4430 -0.4928
15913TIP3    H269155   2.908   1.774  15.630  0.5234 -0.6426  1.0931
15914TIP3   OH269156   2.560   0.338  11.438 -0.1116  0.5363  0.4210
15914TIP3    H169157   2.595   0.405  11.379 -0.9360  0.9650  0.4064
15914TIP3    H269158   2.636   0.306  11.486  0.3445  1.2427  0.1815
15915TIP3   OH269159   0.161   6.265  10.399  0.2950 -0.3799 -0.4721
15915TIP3    H169160   0.077   6.225  10.422  0.1857 -0.7173 -1.4222
15915TIP3    H269161   0.214   6.193  10.367  0.5012  0.0468 -1.0952
15916TIP3   OH269162   0.842   0.004  17.147  0.3836  0.6812  0.0412
15916TIP3    H169163   0.868   0.036  17.233  2.3355  2.3782 -1.1353
15916TIP3    H269164   0.781   0.070  17.114  0.3028  0.4692 -0.2364
15917TIP3   OH269165   1.012   2.975   4.283 -0.5169  0.2204 -0.1710
15917TIP3    H169166   0.961   2.897   4.304 -2.3694  1.1510 -1.0542
15917TIP3    H269167   1.001   2.986   4.188  1.0580  0.6216 -0.3118
15918TIP3   OH269168   5.739   5.140  15.856 -0.1078  0.2927 -0.3659
15918TIP3    H169169   5.826   5.105  15.837 -0.0944  0.5941 -0.8665
15918TIP3    H269170   5.740   5.158  15.950  0.6512  1.0531 -0.5116
15919TIP3   OH269171   6.716   6.212   4.003 -0.1653 -0.2669  0.2425
15919TIP3    H169172   6.634   6.163   4.014 -0.7269  1.0475  2.1472
15919TIP3    H269173   6.774   6.174   4.069 -1.2187  2.8336  3.0811
15920TIP3   OH269174   4.688   4.890  16.442 -0.3500  0.1160  0.3263
15920TIP3    H169175   4.684   4.806  16.488  0.8817  0.3166  0.8173
15920TIP3    H269176   4.779   4.897  16.413 -1.2724 -0.4200 -2.9583
15921TIP3   OH269177   0.456   2.579  17.232  0.4203 -0.2113 -0.7679
15921TIP3    H169178   0.530   2.575  17.292 -0.6026  0.2461  0.5369
15921TIP3    H269179   0.435   2.672  17.226  0.0171 -0.3289 -1.2258
15922TIP3   OH269180   3.005   1.871  12.387  0.1957 -0.1492 -0.2932
15922TIP3    H169181   2.918   1.864  12.427  0.6109 -2.2328  0.3023
15922TIP3    H269182   3.039   1.954  12.419 -0.6923 -0.3689  1.2917
15923TIP3   OH269183   6.111   0.234   2.263  0.2533  0.1687 -0.1166
15923TIP3    H169184   6.121   0.329   2.258  1.4198  0.0886  0.4495
15923TIP3    H269185   6.165   0.200   2.191 -1.7022 -0.0029 -1.5517
15924TIP3   OH269186   1.416   5.713  15.660  0.0789 -0.2850 -0.4069
15924TIP3    H169187   1.459   5.777  15.718 -0.8198  1.0127 -1.1665
15924TIP3    H269188   1.329   5.749  15.645  0.0508 -0.9929 -1.9813
15925TIP3   OH269189   5.720   3.473   5.235 -0.2916  0.1944 -0.4767
15925TIP3    H169190   5.706   3.427   5.152 -0.6543  1.1085 -0.9325
15925TIP3    H269191   5.815   3.480   5.243 -0.2824  1.2174 -1.4423
15926TIP3   OH269192   2.253   6.698  14.369 -0.0301 -0.7308  0.5112
15926TIP3    H169193   2.264   6.691  14.274  1.1204  0.2591  0.5575
15926TIP3    H269194   2.302   6.777  14.392 -1.6249 -0.0628  1.7142
15927TIP3   OH269195   5.513   3.055  10.241  0.1152 -0.8426 -0.0576
15927TIP3    H169196   5.538   3.107  10.317 -0.4663 -0.3697 -0.1823
15927TIP3    H269197   5.560   2.972  10.251  0.0641 -0.7661  0.7967
15928TIP3   OH269198   2.595   4.980  12.335  0.8808  0.2475  0.1902
15928TIP3    H169199   2.558   4.939  12.413 -0.8747  1.4402  0.0271
15928TIP3    H269200   2.612   5.070  12.361  0.8524  0.4974 -0.6279
15929TIP3   OH269201   0.473   0.146   3.757  0.1296 -0.1559  0.3161
15929TIP3    H169202   0.527   0.088   3.704 -0.7021 -1.6870  1.1133
15929TIP3    H269203   0.440   0.091   3.828 -1.1874  1.1273  0.7370
15930TIP3   OH269204   6.493   2.848  15.449  0.2209 -0.1620 -0.2357
15930TIP3    H169205   6.518   2.865  15.358 -0.3028  0.7426 -0.2197
15930TIP3    H269206   6.422   2.784  15.443  0.4803 -0.4352 -0.4367
15931TIP3   OH269207   6.753   1.255  16.622  0.4964  0.0671  0.1336
15931TIP3    H169208   6.725   1.341  16.589 -1.9063 -1.0935 -0.9376
15931TIP3    H269209   6.828   1.232  16.567 -0.3219  0.4351 -1.1605
15932TIP3   OH269210   5.648   2.390   1.232  0.3944  0.0640 -0.1657
15932TIP3    H169211   5.610   2.303   1.233 -1.1789  0.7348 -0.8359
15932TIP3    H269212   5.668   2.407   1.140  0.0884  0.6730 -0.1227
15933TIP3   OH269213   4.674   2.716   1.343 -0.3914  0.5721 -0.5163
15933TIP3    H169214   4.700   2.660   1.416 -0.8391  0.8095 -0.1753
15933TIP3    H269215   4.683   2.660   1.266  1.3123  0.7162 -0.4315
15934TIP3   OH269216   4.442   3.984  15.709  0.6407  0.5027  0.6870
15934TIP3    H169217   4.377   3.978  15.639 -0.1942 -1.4440  1.5868
15934TIP3    H269218   4.392   3.973  15.790  2.1198 -1.4028  1.3879
15935TIP3   OH269219   3.181   6.108   0.463 -0.1635  0.6161 -0.0345
15935TIP3    H169220   3.203   6.154   0.382 -0.6108 -0.2206 -0.6404
15935TIP3    H269221   3.095   6.069   0.446  0.5551 -1.1027  0.1683
15936TIP3   OH269222   0.420   5.708  17.152  0.2767 -0.3829 -0.0188
15936TIP3    H169223   0.490   5.672  17.206  1.8238  1.8460 -0.4902
15936TIP3    H269224   0.429   5.662  17.069  1.1015 -0.2105 -0.0325
15937TIP3   OH269225   4.132   1.397  14.771 -0.1073  0.0422  0.1635
15937TIP3    H169226   4.102   1.455  14.702  2.4074  2.3204  0.9044
15937TIP3    H269227   4.139   1.311  14.729 -2.6295  0.4708 -1.2764
15938TIP3   OH269228   0.239   4.457  14.411 -0.2915  0.4761  0.5756
15938TIP3    H169229   0.165   4.398  14.396 -0.4647  0.6880  0.5755
15938TIP3    H269230   0.304   4.404  14.456  0.0132 -0.0103 -0.4491
15939TIP3   OH269231   4.005   4.964  16.407 -0.3437 -0.1758  0.2139
15939TIP3    H169232   3.932   4.957  16.345  0.4785 -0.6230 -0.7188
15939TIP3    H269233   3.965   4.994  16.488 -1.4666  0.2655 -0.4882
15940TIP3   OH269234   0.078   1.585   4.828 -0.6091  0.1426 -0.6009
15940TIP3    H169235   0.012   1.563   4.893 -1.1018 -0.2974 -1.2366
15940TIP3    H269236   0.113   1.669   4.856 -0.7087 -0.1150  0.3073
15941TIP3   OH269237   4.577   3.731   2.620  0.7427 -0.0405  0.0588
15941TIP3    H169238   4.611   3.692   2.539 -1.2996  0.6387 -1.1730
15941TIP3    H269239   4.576   3.825   2.603 -0.7459  0.0296  0.4330
15942TIP3   OH269240   3.881   3.568  15.681 -0.1934 -0.4048  0.2157
15942TIP3    H169241   3.890   3.477  15.710  0.4748 -1.1903 -2.3358
15942TIP3    H269242   3.789   3.578  15.659 -0.7937  0.3143  2.8178
15943TIP3   OH269243   4.883   3.110   3.610 -0.4084  0.7229 -0.1290
15943TIP3    H169244   4.969   3.151   3.608 -0.4436  0.7910 -0.3527
15943TIP3    H269245   4.863   3.098   3.703 -0.2305  0.8573 -0.0747
15944TIP3   OH269246   2.798   4.635   6.738  0.1755 -0.5319 -0.4628
15944TIP3    H169247   2.834   4.570   6.678  0.3572  1.1988 -2.2803
15944TIP3    H269248   2.875   4.681   6.772 -0.0525 -0.1598 -0.4542
15945TIP3   OH269249   3.747   2.895  11.815 -0.0390  0.2529  0.0693
15945TIP3    H169250   3.799   2.910  11.736  0.2977 -1.0481  0.0333
15945TIP3    H269251   3.791   2.822  11.859  0.7911  2.0422  2.3416
15946TIP3   OH269252   3.400   6.173   2.295  0.4079 -0.1376 -0.1437
15946TIP3    H169253   3.364   6.091   2.328  0.8472  0.1759  1.1353
15946TIP3    H269254   3.429   6.220   2.373  2.5286  0.1068 -1.0321
15947TIP3   OH269255   4.719   4.924   5.691 -0.0827  0.2308 -0.8582
15947TIP3    H169256   4.782   4.956   5.756 -1.7124 -2.2899  2.1027
15947TIP3    H269257   4.641   4.977   5.704 -0.3386 -0.1268 -0.9344
15948TIP3   OH269258   4.626   2.912  13.109 -0.3929 -0.2072  0.5273
15948TIP3    H169259   4.573   2.859  13.170  0.2530 -0.5001  0.8384
15948TIP3    H269260   4.709   2.866  13.104  0.0139  0.5332  0.4328
15949TIP3   OH269261   2.031   2.031   1.287 -0.0855 -0.6860  0.1428
15949TIP3    H169262   1.962   2.087   1.252 -0.5334 -0.5374  1.2605
15949TIP3    H269263   2.013   2.026   1.381  0.6791 -1.6829  0.2444
15950TIP3   OH269264   3.958   3.026  10.439  0.3161  0.0714  0.3074
15950TIP3    H169265   3.931   3.056  10.353  2.0335  0.1020 -0.2394
15950TIP3    H269266   4.006   2.945  10.422 -0.0275 -0.3538  1.3181
15951TIP3   OH269267   5.088   3.476   3.847  0.7147  0.2657 -0.3822
15951TIP3    H169268   5.108   3.384   3.828 -0.2320 -0.3801  1.5921
15951TIP3    H269269   5.137   3.495   3.927  0.9044  1.4896 -0.7826
15952TIP3   OH269270   5.175   4.486   1.502 -0.1987 -0.4508 -0.2777
15952TIP3    H169271   5.179   4.471   1.596 -1.5336 -2.5422 -0.5065
15952TIP3    H269272   5.109   4.554   1.491  0.3549  0.1929  0.3104
15953TIP3   OH269273   0.779   3.567  13.707  0.3695  0.5900  0.1837
15953TIP3    H169274   0.754   3.657  13.731  0.9830  0.7808  0.1239
15953TIP3    H269275   0.839   3.578  13.633 -0.7697  0.0544 -0.8327
15954TIP3   OH269276   2.272   2.388  14.202 -0.4569 -0.9197 -0.0167
15954TIP3    H169277   2.284   2.366  14.110 -0.4880 -0.9472 -0.0149
15954TIP3    H269278   2.207   2.458  14.201  1.7882  1.2358 -0.2210
15955TIP3   OH269279   5.358   2.271  14.040  0.5347 -0.1507  0.0709
15955TIP3    H169280   5.377   2.192  14.090  0.5397 -0.6760 -0.7463
15955TIP3    H269281   5.284   2.246  13.984  2.0608 -0.3115 -1.9050
15956TIP3   OH269282   3.949   6.201  15.854 -0.8312  0.5036  0.2005
15956TIP3    H169283   3.992   6.228  15.935 -1.3189  1.8535  0.0158
15956TIP3    H269284   3.859   6.232  15.863 -1.0368  0.1575 -0.6215
15957TIP3   OH269285   4.191   2.949   5.859  0.4006 -0.1539  0.4316
15957TIP3    H169286   4.268   2.962   5.804  0.7263  2.3349  1.4251
15957TIP3    H269287   4.196   2.857   5.886  2.0410 -0.4932 -0.9480
15958TIP3   OH269288   5.895   5.891   4.067  0.5101 -0.0932  0.5892
15958TIP3    H169289   5.927   5.895   4.157 -0.0723  1.2777  0.7478
15958TIP3    H269290   5.969   5.857   4.017  1.2317  0.2560  1.4106
15959TIP3   OH269291   3.338   1.879   1.007 -0.1313 -0.2841 -0.2255
15959TIP3    H169292   3.431   1.904   1.008 -0.0714 -0.4472 -1.3177
15959TIP3    H269293   3.304   1.916   0.926 -1.0526 -0.1289  0.2350
15960TIP3   OH269294   0.437   4.857   2.620 -0.0543  0.2969 -0.7966
15960TIP3    H169295   0.470   4.947   2.626 -0.6507  0.5153 -0.7452
15960TIP3    H269296   0.500   4.805   2.669 -0.6338  0.9366  0.6689
15961TIP3   OH269297   4.493   0.808   0.547  0.1618  0.3777  0.6468
15961TIP3    H169298   4.444   0.868   0.490 -2.1588 -2.6039 -0.6258
15961TIP3    H269299   4.580   0.803   0.508 -0.9898 -0.5635 -1.9100
15962TIP3   OH269300   5.031   6.071  11.702 -0.0918  0.3944  0.0502
15962TIP3    H169301   5.063   5.982  11.717  1.1235  0.4297 -2.1289
15962TIP3    H269302   5.035   6.082  11.607 -1.0450  2.4861  0.2263
15963TIP3   OH269303   1.591   0.268   0.132 -0.0779 -0.3236 -0.0100
15963TIP3    H169304   1.525   0.276   0.201  0.7050  0.6204  0.6454
15963TIP3    H269305   1.666   0.228   0.175 -0.2765 -1.5508 -0.7972
15964TIP3   OH269306   3.696   0.480  14.503 -0.8582 -1.0015 -0.1869
15964TIP3    H169307   3.772   0.423  14.491  0.7213  1.3376 -1.8968
15964TIP3    H269308   3.627   0.441  14.449 -0.3315 -2.1932 -0.0063
15965TIP3   OH269309   1.168   6.619   5.738 -0.4468  0.1145 -0.4179
15965TIP3    H169310   1.235   6.557   5.710 -0.3806 -0.0452  0.0851
15965TIP3    H269311   1.154   6.675   5.662 -0.3366 -0.3683 -0.8013
15966TIP3   OH269312   0.452   4.130   4.116 -0.6697 -0.5947 -0.1450
15966TIP3    H169313   0.528   4.141   4.173 -1.8527  1.3114  1.0935
15966TIP3    H269314   0.481   4.067   4.049  1.7209 -0.4909  0.7666
15967TIP3   OH269315   0.283   0.737  14.894  0.2145 -0.0989 -0.0940
15967TIP3    H169316   0.379   0.745  14.889  0.2558 -0.0056  0.7139
15967TIP3    H269317   0.253   0.751  14.805  0.8708  1.1581 -0.1259
15968TIP3   OH269318   0.875   1.596  14.804 -0.5030  1.0595  0.1411
15968TIP3    H169319   0.957   1.623  14.847 -0.2156  2.1805 -1.1017
15968TIP3    H269320   0.808   1.609  14.871  0.4161 -0.5475  1.4113
15969TIP3   OH269321   2.507   2.259   3.813 -0.3573  0.6765  0.2569
15969TIP3    H169322   2.570   2.301   3.871 -2.3181  3.4663  0.4536
15969TIP3    H269323   2.433   2.320   3.809 -1.7896 -1.1228 -2.3283
15970TIP3   OH269324   2.977   0.352   6.096  0.4254  0.0776  0.8345
15970TIP3    H169325   3.044   0.401   6.048  1.2264 -1.1107  0.7261
15970TIP3    H269326   3.015   0.336   6.182 -0.1605  0.3707  1.1443
15971TIP3   OH269327   2.476   5.819  12.145 -0.3328  0.2896 -0.9918
15971TIP3    H169328   2.420   5.746  12.122 -0.1662 -0.7860  1.7597
15971TIP3    H269329   2.561   5.779  12.165 -0.6591  0.9559  2.0939
15972TIP3   OH269330   0.427   3.838   5.539  1.1273  1.2057  0.3158
15972TIP3    H169331   0.390   3.763   5.493 -0.1147  2.1940 -0.3324
15972TIP3    H269332   0.521   3.820   5.543  0.8429 -0.3366  0.0986
15973TIP3   OH269333   5.593   3.228  11.936 -0.6477  0.0257 -0.7606
15973TIP3    H169334   5.672   3.271  11.970 -0.2441 -0.8217 -0.6090
15973TIP3    H269335   5.610   3.218  11.842 -0.8531  0.4377 -0.8422
15974TIP3   OH269336   6.091   5.294  13.663 -0.2964 -0.3026  0.3644
15974TIP3    H169337   6.105   5.369  13.606 -0.6233  0.4069  1.2105
15974TIP3    H269338   6.169   5.239  13.651 -2.1028 -2.1326 -3.7411
15975TIP3   OH269339   2.191   4.407  12.212 -0.3007 -0.5342 -0.0784
15975TIP3    H169340   2.194   4.489  12.260  1.5448 -0.9017  0.4984
15975TIP3    H269341   2.185   4.433  12.120 -0.8012  0.2257  0.1703
15976TIP3   OH269342   3.124   5.151  11.666  0.3225 -0.0159 -0.0079
15976TIP3    H169343   3.085   5.227  11.710 -0.2105 -0.0070 -0.4908
15976TIP3    H269344   3.050   5.093  11.649  0.6982 -0.5437  0.1566
15977TIP3   OH269345   5.089   6.252   4.219  0.3526 -0.7676  0.0203
15977TIP3    H169346   5.086   6.240   4.124  1.9322 -2.3083  0.1349
15977TIP3    H269347   5.001   6.283   4.242  0.1584  0.2678 -2.0078
15978TIP3   OH269348   0.029   0.395   1.355 -0.0093 -0.3820 -0.2208
15978TIP3    H169349   0.046   0.424   1.266  1.8691 -2.8913 -0.7469
15978TIP3    H269350  -0.060   0.362   1.353 -0.1567  0.0574 -1.0287
15979TIP3   OH269351   1.863   6.068   1.493  0.1772  0.2118  0.3995
15979TIP3    H169352   1.832   6.052   1.582  1.2888  2.3483  1.2117
15979TIP3    H269353   1.828   6.154   1.470  4.5906  2.3699  1.0603
15980TIP3   OH269354   5.853   4.957   2.441 -0.1861 -0.2874  0.3541
15980TIP3    H169355   5.830   4.949   2.349 -0.3396  0.6772  0.2981
15980TIP3    H269356   5.948   4.950   2.443  0.0345  2.1056 -0.1814
15981TIP3   OH269357   0.357   5.234  15.415  0.2070 -0.4218 -0.5833
15981TIP3    H169358   0.274   5.254  15.459  0.1815 -0.9500 -0.3842
15981TIP3    H269359   0.382   5.316  15.373 -0.2801 -0.1842 -0.4186
15982TIP3   OH269360   6.066   3.473  16.247 -0.0052  0.3779 -0.0451
15982TIP3    H169361   6.121   3.443  16.175  0.7500  1.7054 -0.0343
15982TIP3    H269362   5.977   3.451  16.220  0.4322 -0.7724 -0.5608
15983TIP3   OH269363   2.442   4.560   5.986 -0.0555 -0.4314  0.3026
15983TIP3    H169364   2.407   4.596   5.904 -1.1565 -0.7109  0.6456
15983TIP3    H269365   2.454   4.635   6.043  1.9941 -0.0536 -0.5547
15984TIP3   OH269366   2.850   5.570  14.680  0.5673 -0.1401 -0.3109
15984TIP3    H169367   2.851   5.594  14.587 -0.4791  0.7441 -0.1097
15984TIP3    H269368   2.785   5.629  14.719  0.6272 -0.8506  0.8878
15985TIP3   OH269369   6.710   0.725   3.055 -0.4031 -0.2505 -0.0295
15985TIP3    H169370   6.722   0.762   3.142 -2.5709  0.2941  0.0519
15985TIP3    H269371   6.768   0.648   3.053  2.0658  1.5376  0.7391
15986TIP3   OH269372   2.422   0.974   3.442 -0.2319 -0.9724  0.5204
15986TIP3    H169373   2.393   1.056   3.402  0.7413 -0.4027  0.9690
15986TIP3    H269374   2.448   0.919   3.368  0.2236 -0.4456  0.2886
15987TIP3   OH269375   6.450   5.734  14.251  0.1119  0.2631  0.3828
15987TIP3    H169376   6.371   5.693  14.216 -0.5438  2.1251 -0.4207
15987TIP3    H269377   6.488   5.779  14.175  1.3226  0.3455  1.0261
15988TIP3   OH269378   0.578   6.057   4.425  0.3550 -0.1508 -0.2956
15988TIP3    H169379   0.665   6.075   4.460 -0.1283  0.6327  0.5427
15988TIP3    H269380   0.590   6.056   4.330  1.4522 -1.0625 -0.1556
15989TIP3   OH269381   1.241   4.926  11.846  0.6437 -0.3613 -0.0133
15989TIP3    H169382   1.201   4.846  11.812 -0.7815  0.4483 -0.2937
15989TIP3    H269383   1.324   4.933  11.799  1.1720 -2.1273  0.6434
15990TIP3   OH269384   4.499   0.299   5.415  0.4834 -0.0970 -0.2732
15990TIP3    H169385   4.566   0.355   5.376  1.9877 -0.7461  1.2988
15990TIP3    H269386   4.516   0.303   5.509  1.2594 -3.8888 -0.1575
15991TIP3   OH269387   3.411   1.786  14.660  0.7378  0.6498 -0.0684
15991TIP3    H169388   3.446   1.700  14.635  0.3071  0.8869 -1.5866
15991TIP3    H269389   3.384   1.775  14.751  0.9823 -0.7415 -0.1424
15992TIP3   OH269390   5.588   3.066  14.124  0.0629  0.6500 -0.1450
15992TIP3    H169391   5.565   3.147  14.078 -1.6814  0.5356  0.4758
15992TIP3    H269392   5.552   3.077  14.212  0.3975 -0.5247  0.1541
15993TIP3   OH269393   2.813   5.293  11.752  0.3379  0.3956 -0.1949
15993TIP3    H169394   2.746   5.348  11.711  0.7792  0.2087 -1.2054
15993TIP3    H269395   2.808   5.210  11.704  1.3897  0.4372 -0.3867
15994TIP3   OH269396   2.430   4.190  15.300  0.6814 -0.5777  0.4291
15994TIP3    H169397   2.397   4.269  15.342 -0.6990 -1.1994  0.5309
15994TIP3    H269398   2.353   4.134  15.288  0.9032 -0.2039 -3.4278
15995TIP3   OH269399   1.604   2.877   1.510 -0.5171  0.1499  0.8601
15995TIP3    H169400   1.627   2.946   1.447 -0.7256 -0.1337  0.4689
15995TIP3    H269401   1.531   2.914   1.560 -1.5472 -0.3212 -0.2840
15996TIP3   OH269402   6.516   2.982   0.646  0.1728 -0.4798  0.2252
15996TIP3    H169403   6.475   3.011   0.727  2.2825 -1.3703  1.6837
15996TIP3    H269404   6.537   2.890   0.662 -0.0979 -0.8773 -1.6332
15997TIP3   OH269405   3.986   6.362   4.894  0.2336 -0.6223 -0.5358
15997TIP3    H169406   3.945   6.304   4.959 -0.0195 -0.9665 -1.0059
15997TIP3    H269407   3.985   6.312   4.813  0.4475 -0.1430 -0.8334
15998TIP3   OH269408   2.487   4.661  17.119 -0.2770 -0.2269 -0.3368
15998TIP3    H169409   2.442   4.728  17.169  0.7955  0.7361 -0.6228
15998TIP3    H269410   2.452   4.579  17.152 -2.2381  0.4821 -0.5787
15999TIP3   OH269411   2.603   0.956  12.889 -0.5633 -0.7629 -0.4080
15999TIP3    H169412   2.673   0.915  12.838  0.3485 -0.0999  0.3106
15999TIP3    H269413   2.644   1.031  12.931 -1.7797 -0.1866 -0.2252
16000TIP3   OH269414   2.311   1.623  14.840 -0.0237  0.7494  0.0214
16000TIP3    H169415   2.290   1.715  14.823  0.2641  0.9194  0.5926
16000TIP3    H269416   2.226   1.581  14.852 -0.0810  1.3951  2.0968
16001TIP3   OH269417   4.227   5.864  12.464  0.3530  0.2521  0.0611
16001TIP3    H169418   4.201   5.956  12.463  1.1916  0.5020  0.7103
16001TIP3    H269419   4.323   5.866  12.463  0.4123 -0.5638  1.9076
16002TIP3   OH269420   3.519   0.067   5.827 -0.6512 -0.0389  0.4101
16002TIP3    H169421   3.464  -0.011   5.823  1.1812 -1.2540 -2.3708
16002TIP3    H269422   3.605   0.034   5.853 -0.6564  1.5638  2.6405
16003TIP3   OH269423   1.360   3.164   2.584 -0.0165  0.1932 -0.5403
16003TIP3    H169424   1.306   3.165   2.663 -1.3201  1.3814 -1.4451
16003TIP3    H269425   1.415   3.242   2.591  1.4488 -0.8722  0.2497
16004TIP3   OH269426   2.402   2.577   2.678 -0.4393  0.1469  0.0117
16004TIP3    H169427   2.490   2.565   2.713  0.8621  0.5261 -3.0209
16004TIP3    H269428   2.378   2.667   2.703 -0.5897 -0.4557  2.1024
16005TIP3   OH269429   4.053   5.180  13.710  0.2021 -0.4209  0.0756
16005TIP3    H169430   3.976   5.125  13.719  0.6025 -0.9509  0.3371
16005TIP3    H269431   4.023   5.257  13.662 -0.6394 -0.2996  0.7817
16006TIP3   OH269432   4.835   4.419  15.219  0.1871 -0.2991  0.0922
16006TIP3    H169433   4.929   4.413  15.236  0.8082  0.3015 -2.7982
16006TIP3    H269434   4.815   4.512  15.225  0.3344 -0.1217 -1.8016
16007TIP3   OH269435   4.016   0.596   4.215 -0.2890  0.6629  0.5594
16007TIP3    H169436   4.010   0.506   4.185  0.9747  0.8148 -0.2067
16007TIP3    H269437   3.991   0.593   4.308  1.2731 -0.7304  0.9579
16008TIP3   OH269438   0.827   3.722   4.372  0.2673  0.0961 -0.3547
16008TIP3    H169439   0.902   3.684   4.327  0.5480  0.1144  0.0973
16008TIP3    H269440   0.804   3.800   4.320 -0.2780 -0.6523 -1.2510
16009TIP3   OH269441   6.374   1.689  17.041 -0.0147 -0.1534  0.1792
16009TIP3    H169442   6.431   1.625  16.999 -0.2635  0.8708 -1.8037
16009TIP3    H269443   6.292   1.686  16.991 -0.8392  0.0887  1.4894
16010TIP3   OH269444   5.454   2.634   1.577 -0.6784  0.2004 -0.9348
16010TIP3    H169445   5.422   2.558   1.528 -1.5619 -0.5947  0.8376
16010TIP3    H269446   5.520   2.598   1.636  0.8859  1.2655 -2.0065
16011TIP3   OH269447   1.873   0.851   1.925 -0.2326  0.4975  0.8616
16011TIP3    H169448   1.820   0.882   1.998 -1.1413  0.5243  0.2037
16011TIP3    H269449   1.819   0.784   1.883 -0.1022  1.1273 -0.3285
16012TIP3   OH269450   2.678   4.270  12.879  0.3412 -0.2801  0.2744
16012TIP3    H169451   2.682   4.177  12.855  0.8398 -0.3706  0.7085
16012TIP3    H269452   2.654   4.270  12.972 -1.5556  0.0723 -0.1952
16013TIP3   OH269453   2.771   0.417  15.056  0.3985  0.8935 -0.2768
16013TIP3    H169454   2.856   0.374  15.057  0.2856  0.6720  0.5979
16013TIP3    H269455   2.745   0.417  14.964  0.1817 -1.3901 -0.2528
16014TIP3   OH269456   5.952   3.339  11.321 -0.5468 -0.0124 -0.2971
16014TIP3    H169457   6.007   3.410  11.287 -0.4297  0.3242  0.5830
16014TIP3    H269458   5.877   3.384  11.361  0.6193 -0.2450  2.2577
16015TIP3   OH269459   1.974   4.488   5.335  0.0627 -0.4527 -0.1320
16015TIP3    H169460   1.992   4.452   5.422 -1.6267  1.8059  1.1926
16015TIP3    H269461   2.047   4.547   5.318 -0.9904  1.2076  0.9817
16016TIP3   OH269462   2.418   1.422   2.164  0.6884 -0.7444  0.3425
16016TIP3    H169463   2.405   1.472   2.244 -0.1004 -1.7811  0.8787
16016TIP3    H269464   2.474   1.349   2.191  1.5646 -0.3444 -0.3602
16017TIP3   OH269465   5.502   1.403  16.574  1.0455 -0.3007  0.6780
16017TIP3    H169466   5.563   1.331  16.560  0.5539 -0.8360  1.2280
16017TIP3    H269467   5.511   1.423  16.668  1.3007  0.4616  0.4922
16018TIP3   OH269468   5.453   6.002  10.829  0.0608  0.2047  0.6329
16018TIP3    H169469   5.433   6.096  10.824 -0.2561  0.0617 -1.0696
16018TIP3    H269470   5.456   5.983  10.923 -0.1078  1.8658  0.9917
16019TIP3   OH269471   5.707   5.262  15.600 -0.5245  0.4842 -0.3166
16019TIP3    H169472   5.778   5.323  15.582 -0.6700  0.7572  0.0130
16019TIP3    H269473   5.724   5.230  15.688 -0.9277  0.7227 -0.1469
16020TIP3   OH269474   6.172   1.609   2.353 -0.3328 -0.0607 -0.7093
16020TIP3    H169475   6.205   1.564   2.431 -2.0014  0.1529  0.1450
16020TIP3    H269476   6.198   1.552   2.281 -1.3452 -1.8183  0.2571
16021TIP3   OH269477   2.076   6.527   4.009  0.3676 -0.2133 -0.2102
16021TIP3    H169478   2.107   6.439   4.032 -1.6131 -0.7003  0.7815
16021TIP3    H269479   1.998   6.511   3.955  0.0394  0.9370 -0.0865
16022TIP3   OH269480   0.761   0.680  13.645  0.0764  0.1043  0.0349
16022TIP3    H169481   0.849   0.717  13.654  0.3939 -0.3665 -1.0760
16022TIP3    H269482   0.756   0.614  13.714  1.2676 -1.1454 -1.0405
16023TIP3   OH269483   1.931   3.727   4.746 -0.1642  0.3774 -0.2888
16023TIP3    H169484   1.988   3.669   4.695 -1.4039  0.7902 -2.1873
16023TIP3    H269485   1.887   3.781   4.681 -0.3348  2.2891  1.3446
16024TIP3   OH269486   5.792   0.633  16.042  0.0337 -0.5494  0.0344
16024TIP3    H169487   5.740   0.563  16.002 -0.1173  0.1550 -1.0204
16024TIP3    H269488   5.757   0.714  16.004  2.4847 -0.1201 -1.4080
16025TIP3   OH269489   5.703   4.032   1.827  0.1324  0.1590 -0.1042
16025TIP3    H169490   5.780   3.985   1.858  0.3132  0.1391 -0.5833
16025TIP3    H269491   5.708   4.118   1.870 -0.2741 -0.2978  0.8808
16026TIP3   OH269492   0.911   1.075  16.372 -0.3728  0.4792  0.3524
16026TIP3    H169493   0.900   1.149  16.433 -0.2115  0.3001  0.6009
16026TIP3    H269494   0.971   1.016  16.417  2.4470  1.9349 -1.4301
16027TIP3   OH269495   2.904   0.450   5.251 -0.3694  0.3514  0.3352
16027TIP3    H169496   2.959   0.444   5.172  1.4100  0.2357  1.5555
16027TIP3    H269497   2.854   0.369   5.250  0.3498 -0.1027 -0.1822
16028TIP3   OH269498   4.372   2.731   3.011  0.1153 -0.1614 -0.2689
16028TIP3    H169499   4.296   2.754   3.064  0.9243  2.6005 -0.2143
16028TIP3    H269500   4.440   2.707   3.075  0.3061  0.6550 -0.1623
16029TIP3   OH269501   4.335   0.236   2.594  0.6278 -0.1542  0.0751
16029TIP3    H169502   4.409   0.222   2.535 -1.0012 -0.8117 -1.8552
16029TIP3    H269503   4.308   0.326   2.578  1.3951  0.2889  1.2381
16030TIP3   OH269504   2.932   2.832   4.880  0.1965  0.2098 -0.9075
16030TIP3    H169505   3.018   2.854   4.915  0.6323  1.3115 -2.5825
16030TIP3    H269506   2.871   2.882   4.934  0.5320 -1.1433  0.7573
16031TIP3   OH269507   6.453   2.482  14.278  0.2690  0.0900  0.2100
16031TIP3    H169508   6.382   2.474  14.342  0.3553  2.6132  0.6837
16031TIP3    H269509   6.425   2.429  14.204 -1.7817  0.4513  0.6993
16032TIP3   OH269510   4.030   5.470   3.406  0.4080 -0.7540 -0.0960
16032TIP3    H169511   4.077   5.494   3.487 -1.2601 -0.2488  0.7525
16032TIP3    H269512   4.032   5.375   3.405  0.1189 -0.7774  0.7460
16033TIP3   OH269513   1.397   2.120   2.219  0.4347  0.1804  0.9406
16033TIP3    H169514   1.461   2.130   2.149 -0.0700 -1.6372  0.1982
16033TIP3    H269515   1.449   2.112   2.299  1.0862 -0.1399  0.4840
16034TIP3   OH269516   2.305   0.546   6.861  0.3442  0.0241  0.1677
16034TIP3    H169517   2.262   0.624   6.898  0.5158  0.9189 -1.4652
16034TIP3    H269518   2.276   0.544   6.770  1.4894 -1.0150 -0.1825
16035TIP3   OH269519   5.308   4.446  12.905  0.2178 -0.0568 -0.1468
16035TIP3    H169520   5.323   4.536  12.933 -1.0724 -0.1991  1.0236
16035TIP3    H269521   5.375   4.395  12.950  1.4901  0.4022 -1.4627
16036TIP3   OH269522   2.954   3.220  14.865  0.1421 -0.3059 -0.0538
16036TIP3    H169523   3.029   3.201  14.921  1.3203  1.2454 -1.0639
16036TIP3    H269524   2.991   3.230  14.778 -1.5751 -1.9906 -1.0326
16037TIP3   OH269525   5.423   3.596  14.336  0.5369  0.0080 -0.1876
16037TIP3    H169526   5.381   3.521  14.378  1.9599 -0.0125  1.2182
16037TIP3    H269527   5.497   3.559  14.288  0.4867  0.3603 -0.5381
16038TIP3   OH269528   2.051   1.770  15.971 -0.3244  0.2976  0.4964
16038TIP3    H169529   2.136   1.793  15.933  0.3424 -1.2613  1.0315
16038TIP3    H269530   2.055   1.801  16.061 -1.3109  2.5550 -0.2039
16039TIP3   OH269531   2.871   5.090  12.353 -0.3764 -0.3625  0.3125
16039TIP3    H169532   2.899   5.043  12.275  0.2535 -0.4474  0.5919
16039TIP3    H269533   2.923   5.052  12.424 -1.6112 -0.9420  0.9287
16040TIP3   OH269534   3.959   6.430  12.139 -0.3144  0.5591 -0.1537
16040TIP3    H169535   3.927   6.458  12.054  1.5482  2.5106 -0.2540
16040TIP3    H269536   4.045   6.393  12.121 -0.2613  0.2324  0.7640
16041TIP3   OH269537   6.755   1.497   2.133  0.3058  0.1318  0.2995
16041TIP3    H169538   6.689   1.449   2.183 -0.3507  0.6265 -0.0907
16041TIP3    H269539   6.836   1.487   2.183 -0.2445  0.2030  1.1959
16042TIP3   OH269540   0.431   1.089  12.487  0.2836 -0.5657  0.1756
16042TIP3    H169541   0.359   1.136  12.443  1.7600  0.9291 -0.6981
16042TIP3    H269542   0.509   1.115  12.439  1.5713 -1.2414  1.8625
16043TIP3   OH269543   3.092   0.844  13.639 -0.1569 -0.3437 -0.7443
16043TIP3    H169544   3.065   0.900  13.566  0.9630  1.8139  0.4239
16043TIP3    H269545   3.010   0.814  13.678 -0.8215  1.4705 -0.6934
16044TIP3   OH269546   0.181   5.967   5.159  0.5804 -0.0006 -0.0645
16044TIP3    H169547   0.266   5.964   5.203  0.3177  0.5176  0.4853
16044TIP3    H269548   0.118   5.949   5.229  0.3369 -2.1700 -0.8082
16045TIP3   OH269549   5.389   2.684  14.534 -0.3123 -0.1949  0.2587
16045TIP3    H169550   5.410   2.745  14.605 -0.9339  1.4509 -0.9282
16045TIP3    H269551   5.294   2.687  14.526 -0.2274 -0.1300 -0.8374
16046TIP3   OH269552   4.370   0.915  14.051  0.0789 -0.2006  0.2140
16046TIP3    H169553   4.348   0.968  13.974 -0.0524 -1.2778 -0.5115
16046TIP3    H269554   4.421   0.973  14.107 -1.5031  1.2130  0.2350
16047TIP3   OH269555   1.382   3.620   3.123 -0.3904  0.3841  0.7490
16047TIP3    H169556   1.348   3.624   3.213  1.5897 -2.3064  1.7035
16047TIP3    H269557   1.428   3.536   3.119  0.0112  0.6992 -2.6449
16048TIP3   OH269558   3.547   0.547   6.248 -0.5403  0.3936 -0.2584
16048TIP3    H169559   3.453   0.537   6.266 -0.7635  2.0503 -0.3911
16048TIP3    H269560   3.590   0.515   6.327 -1.2473  0.2595  0.0791
16049TIP3   OH269561   4.191   5.213  12.119 -0.3804  0.1446  0.4410
16049TIP3    H169562   4.225   5.127  12.141  0.0963  0.9040  2.8261
16049TIP3    H269563   4.211   5.267  12.195 -0.1587  2.5243 -1.2428
16050TIP3   OH269564   2.115   1.010  13.815 -0.0059 -0.2095  0.0589
16050TIP3    H169565   2.105   1.032  13.908  0.5273  0.0385  0.0592
16050TIP3    H269566   2.033   0.967  13.792 -0.0722 -0.4267  0.6892
16051TIP3   OH269567   0.454   1.624  15.984  0.0049 -0.2122 -0.7225
16051TIP3    H169568   0.512   1.652  15.913  1.3493 -1.3831 -0.0924
16051TIP3    H269569   0.434   1.706  16.031  1.2724  0.1859 -0.8498
16052TIP3   OH269570   1.781   5.304   2.763 -0.4157  0.1183  0.0722
16052TIP3    H169571   1.826   5.378   2.802 -1.4207  0.2275  1.0473
16052TIP3    H269572   1.812   5.228   2.812  1.3791 -0.2678 -1.5782
16053TIP3   OH269573   2.393   0.800   4.792 -0.2623 -0.1138 -0.1057
16053TIP3    H169574   2.354   0.770   4.874  0.9010 -0.2580  0.4125
16053TIP3    H269575   2.418   0.719   4.747 -0.9516 -0.0359 -0.6273
16054TIP3   OH269576   2.748   3.187  12.994  0.0075  0.1574 -0.0083
16054TIP3    H169577   2.704   3.252  12.939  1.0043 -1.1769 -2.4820
16054TIP3    H269578   2.825   3.232  13.027  0.0280  0.6392 -0.6866
16055TIP3   OH269579   4.039   5.874   5.297  0.3416 -0.2059  0.3809
16055TIP3    H169580   3.988   5.828   5.231 -0.7632 -0.2385  1.2521
16055TIP3    H269581   4.095   5.934   5.247  0.7309 -1.4190 -0.6724
16056TIP3   OH269582   0.638   1.468   4.530 -0.3496  0.3477  0.2322
16056TIP3    H169583   0.600   1.555   4.534 -2.4151 -0.3681 -2.1695
16056TIP3    H269584   0.696   1.470   4.453  1.3344  0.2373  1.4753
16057TIP3   OH269585   1.392   0.956   3.233 -0.7347 -0.4015  0.2769
16057TIP3    H169586   1.362   0.869   3.258 -0.3963 -0.6732 -0.2355
16057TIP3    H269587   1.315   1.011   3.240 -0.8517 -0.6578  1.0198
16058TIP3   OH269588   3.220   0.018   2.101  0.3978 -0.2919 -0.6452
16058TIP3    H169589   3.154  -0.028   2.048  2.3839 -0.5576 -3.0206
16058TIP3    H269590   3.291  -0.047   2.112  1.3488  0.7878 -0.3111
16059TIP3   OH269591   3.082   3.924  10.843  0.7718  0.4127  0.2187
16059TIP3    H169592   3.097   3.887  10.930 -0.3009  0.4681  0.4302
16059TIP3    H269593   3.137   3.870  10.785  1.9420  0.7445  0.9925
16060TIP3   OH269594   1.336   1.871  13.633 -0.2282  0.0922  0.0336
16060TIP3    H169595   1.381   1.907  13.556  2.2055  0.4359  1.5456
16060TIP3    H269596   1.367   1.781  13.639 -0.8684 -0.1148  0.2920
16061TIP3   OH269597   5.225   4.008  17.046  0.6221  0.0412  0.4721
16061TIP3    H169598   5.291   4.067  17.010  1.2923 -0.8759  0.1955
16061TIP3    H269599   5.144   4.059  17.044  0.9511  0.5330 -0.8855
16062TIP3   OH269600   5.740   1.841  13.914  0.1619  0.0282  0.3319
16062TIP3    H169601   5.765   1.770  13.974  1.1127  0.9899  1.0777
16062TIP3    H269602   5.743   1.800  13.827 -2.2728 -1.6668  0.9878
16063TIP3   OH269603   1.665   3.203   2.347  0.4067  0.2166 -0.5342
16063TIP3    H169604   1.616   3.284   2.334  0.5083  0.3883  0.1603
16063TIP3    H269605   1.681   3.198   2.441 -0.2100 -0.9717 -0.4812
16064TIP3   OH269606   1.149   3.750  16.360  0.0996  0.0825 -0.2494
16064TIP3    H169607   1.209   3.800  16.415 -0.4897  0.1242  0.3725
16064TIP3    H269608   1.198   3.671  16.337  1.1844  1.1403 -1.6019
16065TIP3   OH269609   4.201   3.873   6.155  0.4014  0.4391  0.0959
16065TIP3    H169610   4.265   3.801   6.159  2.3416  2.2369  3.5377
16065TIP3    H269611   4.233   3.928   6.083 -0.3651 -1.4201 -1.7158
16066TIP3   OH269612   5.628   6.152  14.954 -0.0639 -0.0015  0.2666
16066TIP3    H169613   5.564   6.130  14.886  0.8343 -0.2916 -0.5065
16066TIP3    H269614   5.657   6.068  14.989  0.8225  0.0688 -0.2755
16067TIP3   OH269615   2.837   1.165   5.635 -0.2652 -0.5606 -0.4057
16067TIP3    H169616   2.771   1.134   5.697 -0.4972  0.0134 -0.3693
16067TIP3    H269617   2.803   1.249   5.604  1.4214  0.7021  1.1216
16068TIP3   OH269618   5.087   3.699  16.173 -0.0522  0.3038 -0.3579
16068TIP3    H169619   5.002   3.682  16.215  0.7617 -3.3648 -0.0602
16068TIP3    H269620   5.070   3.685  16.080  0.1295  0.0285 -0.3472
16069TIP3   OH269621   1.039   5.879   0.726 -0.6293  0.8672 -0.3036
16069TIP3    H169622   1.074   5.966   0.710  0.3510  0.9220  1.9133
16069TIP3    H269623   0.982   5.889   0.803 -3.0923  0.1585 -1.9600
16070TIP3   OH269624   0.136   3.370   6.692  0.3925  0.4440 -0.0381
16070TIP3    H169625   0.229   3.373   6.714  0.5271 -0.8353 -0.3472
16070TIP3    H269626   0.124   3.282   6.655 -0.9662  0.5439  0.1480
16071TIP3   OH269627   6.460   2.626  13.988  0.0352 -0.2491 -0.6383
16071TIP3    H169628   6.471   2.532  13.998  1.7413  0.1760  1.9722
16071TIP3    H269629   6.425   2.656  14.072  1.8477  1.7223 -0.5088
16072TIP3   OH269630   1.157   3.817  12.460  0.1417  0.2562 -0.5381
16072TIP3    H169631   1.224   3.864  12.509  0.2348 -0.6710  0.2324
16072TIP3    H269632   1.148   3.733  12.505 -1.0385  0.0957 -1.0488
16073TIP3   OH269633   3.924   3.755   6.693 -0.2550 -0.5775 -0.2846
16073TIP3    H169634   3.989   3.816   6.727 -0.0982 -0.1969 -1.2328
16073TIP3    H269635   3.975   3.678   6.666 -0.2826 -0.5726 -0.3526
16074TIP3   OH269636   6.271   6.462   5.009 -0.4947 -0.5074  0.6415
16074TIP3    H169637   6.304   6.539   5.055 -1.5551  0.1921  0.2641
16074TIP3    H269638   6.335   6.393   5.028  0.5850  0.5198  0.7950
16075TIP3   OH269639   1.132   3.508  12.010 -0.1706  0.2541 -0.3317
16075TIP3    H169640   1.056   3.530  12.065 -0.5496  0.2010 -0.8268
16075TIP3    H269641   1.097   3.447  11.945  0.0658  1.0563 -1.2162
16076TIP3   OH269642   6.590   4.366  14.426  0.2853  0.6366 -0.7405
16076TIP3    H169643   6.571   4.299  14.360  0.1782 -0.0814  0.0028
16076TIP3    H269644   6.638   4.434  14.379 -0.7537  0.6551 -1.7982
16077TIP3   OH269645   5.139   0.831  12.300 -0.3289  0.4628 -0.1239
16077TIP3    H169646   5.117   0.924  12.297  0.8050  0.8324  1.7869
16077TIP3    H269647   5.203   0.824  12.371  0.0043 -1.6968 -0.5973
16078TIP3   OH269648   2.832   6.420   0.198  0.0341  0.1346  0.4416
16078TIP3    H169649   2.833   6.328   0.225 -0.2173 -0.0718 -0.2401
16078TIP3    H269650   2.924   6.446   0.200 -0.0501  0.3591  2.2767
16079TIP3   OH269651   6.349   4.809   1.381 -0.2601 -0.1101  0.1274
16079TIP3    H169652   6.300   4.856   1.313 -1.3898 -2.0472 -0.4445
16079TIP3    H269653   6.439   4.806   1.348 -1.1218 -2.6553 -2.2810
16080TIP3   OH269654   3.042   2.298  13.150  0.0953  0.5308 -0.0285
16080TIP3    H169655   3.094   2.292  13.070  1.0947  2.3081  0.4625
16080TIP3    H269656   3.098   2.260  13.218 -0.6371 -0.7158 -0.1224
16081TIP3   OH269657   2.315   3.681  12.035  0.2892  0.6248 -0.5234
16081TIP3    H169658   2.297   3.715  12.123 -1.3661 -0.8253 -0.2863
16081TIP3    H269659   2.403   3.644  12.042  0.1596  0.4967  0.5255
16082TIP3   OH269660   4.241   3.895  14.226 -0.1473  0.2322 -0.1775
16082TIP3    H169661   4.227   3.894  14.321  0.6989  0.3501 -0.0505
16082TIP3    H269662   4.317   3.839  14.212  0.0588  0.6485 -0.7362
16083TIP3   OH269663   3.080   3.386   3.600  0.3921 -0.5506 -0.2840
16083TIP3    H169664   3.170   3.357   3.614  0.7084 -0.9881 -3.0624
16083TIP3    H269665   3.028   3.306   3.599  0.0052 -0.3277  0.9236
16084TIP3   OH269666   5.865   3.675  11.237  0.0575 -0.1987 -0.4905
16084TIP3    H169667   5.839   3.754  11.190 -0.4980 -1.3556 -2.1840
16084TIP3    H269668   5.909   3.621  11.171  4.3779  0.5128  1.6239
16085TIP3   OH269669   0.317   2.348  12.879 -0.1382 -0.6756  0.3321
16085TIP3    H169670   0.360   2.419  12.832  0.3226 -2.3791 -1.9059
16085TIP3    H269671   0.366   2.340  12.961 -0.0904  1.4393  0.5299
16086TIP3   OH269672   3.733   5.714   4.424  0.3781 -0.4099  0.3453
16086TIP3    H169673   3.725   5.681   4.514  0.9739  0.3535  0.6791
16086TIP3    H269674   3.824   5.743   4.417  0.6543 -1.5647 -0.8887
16087TIP3   OH269675   4.893   0.196   3.880 -0.2103  0.2822  0.1373
16087TIP3    H169676   4.941   0.276   3.900 -1.1714  1.2585 -1.3333
16087TIP3    H269677   4.916   0.176   3.789 -0.8577 -0.4695  0.1288
16088TIP3   OH269678   2.899   5.046   0.045 -0.1212  0.1259  0.2925
16088TIP3    H169679   2.989   5.036   0.012 -0.5813  0.2109 -1.0187
16088TIP3    H269680   2.909   5.086   0.131  1.1417 -0.5801  0.4891
16089TIP3   OH269681   5.761   4.359   3.109 -0.6470  0.4968  0.8287
16089TIP3    H169682   5.673   4.324   3.120 -0.5529  0.3785  1.2391
16089TIP3    H269683   5.799   4.355   3.197  0.0157 -0.1169  0.5267
16090TIP3   OH269684   0.496   5.271   4.459 -0.2067 -0.7082  0.5015
16090TIP3    H169685   0.525   5.183   4.486  1.6855  0.3594  2.0692
16090TIP3    H269686   0.491   5.265   4.363 -1.5902 -2.9476  0.6600
16091TIP3   OH269687   3.885   5.078   1.482 -0.3519  0.5860  0.2728
16091TIP3    H169688   3.882   5.064   1.576 -1.9206  0.7515  0.2539
16091TIP3    H269689   3.818   5.145   1.464 -0.9014 -0.2889 -1.0870
16092TIP3   OH269690   1.380   4.162  12.795 -0.3905 -0.1742 -0.5380
16092TIP3    H169691   1.451   4.214  12.831 -0.8995  0.1366  0.0355
16092TIP3    H269692   1.390   4.170  12.700  0.6318 -0.5462 -0.4655
16093TIP3   OH269693   4.221   2.351  15.833  0.0986 -0.1620 -0.0679
16093TIP3    H169694   4.303   2.339  15.881  0.6812  1.2626 -0.6654
16093TIP3    H269695   4.180   2.265  15.832  2.0264 -1.0866 -0.5194
16094TIP3   OH269696   5.604   3.915  10.837  0.4182  0.5503 -0.2518
16094TIP3    H169697   5.577   3.994  10.790  1.0452  0.3738 -0.9051
16094TIP3    H269698   5.618   3.850  10.769  0.6284  0.0834  0.2364
16095TIP3   OH269699   6.437   0.213   5.698  0.0587  0.2598 -0.0999
16095TIP3    H169700   6.515   0.242   5.650  0.0022 -1.2316 -1.1211
16095TIP3    H269701   6.370   0.200   5.631 -0.3286 -0.8624  0.4867
16096TIP3   OH269702   5.895   2.039   0.164  0.1258 -0.0991  0.1840
16096TIP3    H169703   5.873   2.113   0.107 -0.0587  0.2274  0.6816
16096TIP3    H269704   5.945   1.981   0.107 -0.9879 -0.2917 -0.6225
16097TIP3   OH269705   5.321   3.422  15.429 -0.8567 -0.7128 -0.0325
16097TIP3    H169706   5.227   3.436  15.412 -0.5642  0.1316 -0.9990
16097TIP3    H269707   5.328   3.425  15.524 -1.8313 -0.8304  0.0506
16098TIP3   OH269708   5.776   3.058   5.513  0.2644  0.2127  0.1631
16098TIP3    H169709   5.713   3.103   5.569  1.2654 -0.2216  1.6491
16098TIP3    H269710   5.776   2.967   5.544  3.2055  0.6578  1.6526
16099TIP3   OH269711   3.910   6.359  12.830  0.3921  0.2356  0.4486
16099TIP3    H169712   3.948   6.309  12.758  3.9027  2.4660  0.6518
16099TIP3    H269713   3.902   6.296  12.902 -0.1251 -1.2178 -0.8556
16100TIP3   OH269714   6.546   3.562  14.688  0.2262 -0.0481 -0.1205
16100TIP3    H169715   6.610   3.508  14.642  0.4894  0.4486 -0.3404
16100TIP3    H269716   6.465   3.510  14.687  0.1193  0.1355 -1.5046
16101TIP3   OH269717   3.744   2.581   4.795  0.0199  0.4329 -0.0727
16101TIP3    H169718   3.734   2.510   4.732  0.2024  1.9046 -1.8119
16101TIP3    H269719   3.828   2.564   4.837 -0.5865 -1.1390  0.5481
16102TIP3   OH269720   6.257   5.951  16.579 -0.3382 -0.2137 -0.2983
16102TIP3    H169721   6.187   5.990  16.527 -0.9766  0.3413  0.9646
16102TIP3    H269722   6.219   5.939  16.666  0.8743 -0.6659  0.1857
16103TIP3   OH269723   0.147   4.259  14.797 -0.0198 -0.3347 -0.3815
16103TIP3    H169724   0.189   4.338  14.764 -0.4124  0.6039  1.3502
16103TIP3    H269725   0.055   4.268  14.770 -0.4971  0.7797  1.5339
16104TIP3   OH269726   4.747   6.561   4.967 -0.2771  0.0071  0.0268
16104TIP3    H169727   4.777   6.474   4.996 -2.5941 -0.7822  0.1095
16104TIP3    H269728   4.772   6.620   5.038  1.8852 -0.4496 -0.3049
16105TIP3   OH269729   1.009   2.784   6.475  0.2628  0.5422  0.3078
16105TIP3    H169730   0.961   2.816   6.399 -1.2150  0.2571  1.1068
16105TIP3    H269731   1.033   2.864   6.523  2.1858  0.7919 -1.0140
16106TIP3   OH269732   5.701   2.446   0.399  0.3147  0.1373 -0.2265
16106TIP3    H169733   5.698   2.425   0.306 -1.0465  0.9715 -0.3938
16106TIP3    H269734   5.792   2.433   0.424  0.2691 -2.1430 -1.1802
16107TIP3   OH269735   5.292   0.224  12.189  0.5277  0.0046 -0.7497
16107TIP3    H169736   5.379   0.191  12.169  0.2972 -0.4119 -1.0726
16107TIP3    H269737   5.234   0.177  12.130 -0.2369 -1.6422  1.2502
16108TIP3   OH269738   2.600   0.653   2.305  0.0333  0.7201  0.3062
16108TIP3    H169739   2.667   0.656   2.374 -1.3371 -0.1235  1.7375
16108TIP3    H269740   2.625   0.721   2.243  2.0604  0.5953  0.9447
16109TIP3   OH269741   2.604   1.922   5.876 -0.7566  0.1261 -0.1911
16109TIP3    H169742   2.670   1.992   5.868  1.2647 -1.6024  0.7560
16109TIP3    H269743   2.566   1.934   5.963  0.3939 -0.6010  0.4270
16110TIP3   OH269744   1.029   4.273  13.014 -0.5570 -0.0159  0.1574
16110TIP3    H169745   1.005   4.356  13.056  1.7691  0.7450  0.0423
16110TIP3    H269746   1.025   4.292  12.920 -1.7655 -0.5655  0.0837
16111TIP3   OH269747   4.408   5.812   2.932 -0.1008  0.5877  0.3703
16111TIP3    H169748   4.352   5.872   2.981 -0.4491  0.3039  0.3211
16111TIP3    H269749   4.493   5.857   2.926 -0.4286  1.1744  0.1325
16112TIP3   OH269750   5.512   4.964   5.607  0.6445  0.4920  0.0169
16112TIP3    H169751   5.449   4.995   5.542  1.0057 -0.0539 -0.5992
16112TIP3    H269752   5.461   4.954   5.687 -0.0481  0.0708 -0.4725
16113TIP3   OH269753   3.222   3.036   5.307 -0.3235 -0.5455 -0.2635
16113TIP3    H169754   3.134   3.075   5.308 -0.3220 -0.5338 -0.5504
16113TIP3    H269755   3.233   3.001   5.395 -0.2135  0.3579  0.0873
16114TIP3   OH269756   5.751   4.471  13.202 -0.1388  0.6562 -0.2371
16114TIP3    H169757   5.715   4.522  13.275 -2.3300 -0.5833 -0.3874
16114TIP3    H269758   5.720   4.382  13.218 -0.3155  0.2957 -2.4664
16115TIP3   OH269759   3.599   4.725   2.642  0.2140 -0.3435 -0.2427
16115TIP3    H169760   3.514   4.753   2.608  0.3323 -0.3761 -0.5581
16115TIP3    H269761   3.627   4.797   2.699 -1.1575 -1.3535  1.8094
16116TIP3   OH269762   0.872   0.290   1.495 -0.1666  0.1550 -0.1873
16116TIP3    H169763   0.781   0.293   1.522 -0.2187 -0.1095 -0.3348
16116TIP3    H269764   0.869   0.284   1.399 -0.0267 -1.7636 -0.0948
16117TIP3   OH269765   3.479   4.626  13.700  0.7681  0.1824 -0.2507
16117TIP3    H169766   3.446   4.702  13.652  2.1993  1.5329  0.8343
16117TIP3    H269767   3.418   4.616  13.774  0.0425 -0.3044 -0.9149
16118TIP3   OH269768   2.771   5.720   0.543  0.6226 -0.0930  0.2181
16118TIP3    H169769   2.733   5.771   0.471  0.0602  0.3384  0.8183
16118TIP3    H269770   2.832   5.660   0.500  1.2092  1.0099 -0.4981
16119TIP3   OH269771   0.694   0.984  14.425  0.1257  0.0815  0.5683
16119TIP3    H169772   0.630   1.056  14.426 -0.6597 -0.5485 -1.7584
16119TIP3    H269773   0.769   1.020  14.375  0.5024 -0.0827  1.0144
16120TIP3   OH269774   4.788   1.429   1.934 -0.0545  0.0190  0.5920
16120TIP3    H169775   4.824   1.469   2.013  0.7819 -1.7409  1.1356
16120TIP3    H269776   4.731   1.359   1.966 -0.3184 -0.2187 -0.3585
16121TIP3   OH269777   4.566   1.566  13.826  0.0043  0.2750  0.9100
16121TIP3    H169778   4.659   1.580  13.810 -0.5570  1.7562 -1.3712
16121TIP3    H269779   4.522   1.629  13.769 -2.4744 -2.5896 -0.4891
16122TIP3   OH269780   0.389   3.421   0.607  0.3956  0.0907  0.0564
16122TIP3    H169781   0.327   3.348   0.602  1.4315 -0.7974  0.1422
16122TIP3    H269782   0.445   3.411   0.530  0.1240  1.1796 -0.2901
16123TIP3   OH269783   0.665   4.829   5.981  0.3677  0.4084  0.1738
16123TIP3    H169784   0.636   4.882   6.055 -0.7151  1.2195 -0.8309
16123TIP3    H269785   0.656   4.738   6.012 -0.8623  0.7207  0.7537
16124TIP3   OH269786   3.672   0.911  10.589 -0.4831  0.0612  0.2218
16124TIP3    H169787   3.646   0.820  10.604 -0.9671  0.2673  0.6582
16124TIP3    H269788   3.593   0.954  10.558 -0.8588  0.8544  2.2276
16125TIP3   OH269789   1.662   4.826  12.740  0.5639  0.1885  0.2667
16125TIP3    H169790   1.584   4.784  12.703  1.6132 -0.3377 -1.3683
16125TIP3    H269791   1.648   4.919  12.724  1.3243 -0.0777 -2.1316
16126TIP3   OH269792   6.784   1.739   1.189  0.1494  0.1968  0.0789
16126TIP3    H169793   6.790   1.672   1.120  0.5075  0.6916 -0.3778
16126TIP3    H269794   6.698   1.779   1.175  0.9360  1.4939 -1.2116
16127TIP3   OH269795   6.149   2.467  12.141 -0.4209 -0.0420  0.4330
16127TIP3    H169796   6.210   2.416  12.194 -0.2460 -0.7537 -0.4409
16127TIP3    H269797   6.065   2.459  12.187  0.2692  1.5359  2.0355
16128TIP3   OH269798   4.417   4.806   5.402  0.3642  0.1694  0.8434
16128TIP3    H169799   4.463   4.721   5.397  0.6347  0.3570  0.0277
16128TIP3    H269800   4.345   4.791   5.463 -1.6631 -1.6469 -1.8722
16129TIP3   OH269801   3.330   2.290  16.449 -0.1496 -0.4590 -0.3010
16129TIP3    H169802   3.333   2.234  16.526 -1.7374 -1.8424 -1.1996
16129TIP3    H269803   3.380   2.242  16.382  1.8116  1.0553  0.0434
16130TIP3   OH269804   5.809   3.077  16.712 -0.1786 -0.0713 -0.0555
16130TIP3    H169805   5.757   3.028  16.648  1.1009 -1.9542  0.3211
16130TIP3    H269806   5.875   3.123  16.660 -0.2555 -0.1797 -0.2491
16131TIP3   OH269807   1.410   6.551  13.428 -0.1326 -0.5512 -0.6642
16131TIP3    H169808   1.332   6.590  13.466  0.2120 -0.6573  0.1576
16131TIP3    H269809   1.400   6.566  13.334 -0.3269  0.9508 -0.4312
16132TIP3   OH269810   2.024   4.449   2.808 -0.1436  0.1054 -0.4430
16132TIP3    H169811   2.002   4.378   2.748  0.3202  1.4029 -2.1983
16132TIP3    H269812   2.053   4.520   2.751  0.0428  1.4742  1.3168
16133TIP3   OH269813   4.452   1.387   3.224 -0.0103 -0.1558  0.3599
16133TIP3    H169814   4.480   1.367   3.313  0.9111 -1.1964 -0.1480
16133TIP3    H269815   4.482   1.476   3.209  0.9382 -0.4160  0.6629
16134TIP3   OH269816   0.750   4.420  13.649 -0.2995 -0.2522 -0.3353
16134TIP3    H169817   0.800   4.378  13.719 -0.3781  0.4165  0.1256
16134TIP3    H269818   0.690   4.352  13.618 -0.4549 -0.4680  0.4277
16135TIP3   OH269819   0.029   3.980   4.991  0.3472 -0.4784 -0.2934
16135TIP3    H169820  -0.008   3.892   4.995 -1.1617  0.2316  2.5665
16135TIP3    H269821   0.069   3.993   5.077 -0.7709  2.1888 -0.1243
16136TIP3   OH269822   3.266   1.650  16.716 -0.1143 -0.3539 -0.2648
16136TIP3    H169823   3.344   1.623  16.766 -1.2960  0.3608  2.0117
16136TIP3    H269824   3.224   1.567  16.692  1.2583 -0.7448 -1.4292
16137TIP3   OH269825   0.838   1.059   2.081 -0.3374 -0.3292  0.0209
16137TIP3    H169826   0.906   1.038   2.018  0.8550  0.4115  1.0455
16137TIP3    H269827   0.766   1.093   2.028  0.2505 -0.6743 -1.0201
16138TIP3   OH269828   3.231   6.144  10.418  0.0431 -0.3044  0.1071
16138TIP3    H169829   3.197   6.144  10.328 -1.0848  0.0822  0.5359
16138TIP3    H269830   3.326   6.141  10.407 -0.0483  0.9506 -1.1105
16139TIP3   OH269831   3.156   3.281  13.559  0.0516 -0.2127 -0.4729
16139TIP3    H169832   3.070   3.281  13.516  0.0654  1.3027 -0.5250
16139TIP3    H269833   3.137   3.307  13.649  0.3901 -0.4684 -0.3290
16140TIP3   OH269834   1.055   5.856   2.744 -0.0553 -0.3835 -0.2374
16140TIP3    H169835   0.991   5.819   2.804 -0.4189 -1.2586 -1.1510
16140TIP3    H269836   1.120   5.898   2.801 -0.0961 -1.6728  0.7988
16141TIP3   OH269837   6.263   0.765  13.044 -0.2741  0.3773  0.4631
16141TIP3    H169838   6.218   0.691  13.004 -1.0987  0.6979  0.7675
16141TIP3    H269839   6.352   0.761  13.011  0.2690 -1.9608  2.0958
16142TIP3   OH269840   1.612   5.178   2.382  0.4157 -0.1891 -0.7020
16142TIP3    H169841   1.523   5.201   2.407  0.6994  0.8923 -0.6802
16142TIP3    H269842   1.608   5.164   2.287  0.4492  0.9171 -0.8672
16143TIP3   OH269843   4.517   4.994   2.935 -0.1417 -0.3128  0.1224
16143TIP3    H169844   4.604   5.016   2.899 -0.8238  0.7632 -0.9287
16143TIP3    H269845   4.518   5.031   3.023  0.9838 -1.5889  0.6704
16144TIP3   OH269846   6.079   4.850   4.342  0.2903 -0.1023 -0.1096
16144TIP3    H169847   6.150   4.906   4.373  0.2904 -1.1625  1.8180
16144TIP3    H269848   6.035   4.903   4.275  0.6444  1.9792  1.2680
16145TIP3   OH269849   0.996   5.409  10.897  0.9042  0.1153  0.2092
16145TIP3    H169850   1.074   5.402  10.952  0.2356  1.1834  1.3405
16145TIP3    H269851   1.015   5.355  10.821  2.2048 -0.7094  1.0949
16146TIP3   OH269852   4.580   3.773   4.118 -0.0456  0.5975 -0.2028
16146TIP3    H169853   4.629   3.762   4.037  2.1061 -2.9825  1.4525
16146TIP3    H269854   4.643   3.752   4.187 -3.1143 -1.3523  2.1396
16147TIP3   OH269855   3.563   2.021   1.065 -0.5040 -0.6741 -0.1441
16147TIP3    H169856   3.529   2.110   1.063  0.2788 -0.3540  0.5973
16147TIP3    H269857   3.635   2.021   1.002  0.7984 -0.2194  1.2824
16148TIP3   OH269858   4.851   6.280   4.957  0.8829  0.6178 -0.4480
16148TIP3    H169859   4.863   6.185   4.963 -0.4378  0.5214  0.6185
16148TIP3    H269860   4.828   6.295   4.865  1.7557 -0.0009 -0.7827
16149TIP3   OH269861   4.074   3.027   4.280 -0.6219 -0.1548 -0.1060
16149TIP3    H169862   4.121   3.105   4.307 -2.3623  0.9343 -0.1614
16149TIP3    H269863   4.143   2.961   4.266  0.5768  0.2251  3.5981
16150TIP3   OH269864   3.588   4.639   5.165 -0.1224  0.0382  0.0661
16150TIP3    H169865   3.640   4.714   5.195 -0.8892  0.0699  1.3625
16150TIP3    H269866   3.504   4.648   5.210 -1.3356  0.0668 -2.1223
16151TIP3   OH269867   5.763   5.417  13.422 -0.9364 -0.0512 -0.5452
16151TIP3    H169868   5.697   5.379  13.479 -0.4834 -1.1269 -0.7095
16151TIP3    H269869   5.728   5.405  13.334 -1.5051  1.3475 -0.5143
16152TIP3   OH269870   2.176   0.720   2.297 -0.0333 -0.0837 -0.2063
16152TIP3    H169871   2.143   0.632   2.280  1.3449 -0.5479 -0.5111
16152TIP3    H269872   2.097   0.772   2.314 -0.8207 -1.4731  0.4756
16153TIP3   OH269873   4.836   3.744  14.467  0.3161  0.4351  0.2569
16153TIP3    H169874   4.856   3.704  14.382  1.2989  0.5867  0.4140
16153TIP3    H269875   4.816   3.669  14.524  0.6480  0.2667  0.1532
16154TIP3   OH269876   0.140   1.441   2.320  0.4974 -0.4835  0.6512
16154TIP3    H169877   0.201   1.368   2.321 -1.7012 -2.4144  0.0051
16154TIP3    H269878   0.070   1.415   2.381  0.4839  1.8230  1.6666
16155TIP3   OH269879   2.020   3.291   1.905 -0.1215  0.1886 -0.2826
16155TIP3    H169880   2.036   3.200   1.928 -0.7066 -0.1089 -1.0504
16155TIP3    H269881   1.926   3.304   1.921 -0.3901  0.1834 -1.7753
16156TIP3   OH269882   2.818   0.958   0.302  0.6807  0.2000  0.5745
16156TIP3    H169883   2.892   0.897   0.305 -0.0611 -0.7949 -0.9464
16156TIP3    H269884   2.804   0.975   0.209 -0.1043  1.5065  0.9141
16157TIP3   OH269885   1.166   0.602  15.819 -0.0329 -0.3977  0.6548
16157TIP3    H169886   1.141   0.550  15.895  1.8098  0.1824  1.6755
16157TIP3    H269887   1.244   0.559  15.784 -0.4056 -0.2049 -0.4391
16158TIP3   OH269888   5.896   3.365  15.478 -0.0772 -0.5760 -0.1654
16158TIP3    H169889   5.834   3.302  15.441  0.0948  0.5095 -2.3581
16158TIP3    H269890   5.975   3.313  15.495 -0.6348 -1.3778 -0.0185
16159TIP3   OH269891   6.506   6.664  11.605  0.2246  0.3298  0.0017
16159TIP3    H169892   6.447   6.631  11.536  0.5870  0.9902 -0.6346
16159TIP3    H269893   6.549   6.739  11.565  0.7120  0.4977  0.8377
16160TIP3   OH269894   4.709   6.511  16.666 -0.1720  0.0617  0.0042
16160TIP3    H169895   4.739   6.424  16.641  0.8216  0.6949 -1.0482
16160TIP3    H269896   4.626   6.522  16.619  0.1947  0.0653 -0.6504
16161TIP3   OH269897   4.414   1.708  11.344  0.1646  0.5054  0.4232
16161TIP3    H169898   4.391   1.672  11.430  0.1089  0.4235  0.3748
16161TIP3    H269899   4.367   1.653  11.282  1.1350 -0.1722  0.2820
16162TIP3   OH269900   4.315   1.080  16.076  0.4404 -0.1424 -0.1223
16162TIP3    H169901   4.365   1.032  16.142  1.6737  2.5106  0.9556
16162TIP3    H269902   4.374   1.087  16.001  0.6235  0.4736  0.0740
16163TIP3   OH269903   1.229   2.360  12.318  0.0649 -0.8788  0.9691
16163TIP3    H169904   1.297   2.325  12.260  0.5340  0.0454  0.9377
16163TIP3    H269905   1.178   2.419  12.261 -1.4422 -2.3774  0.7221
16164TIP3   OH269906   1.917   3.818   2.665 -0.1463  0.0437  0.1827
16164TIP3    H169907   1.850   3.770   2.713  0.3633  2.5766  3.5921
16164TIP3    H269908   2.000   3.783   2.696  0.2148 -1.3007 -2.1440
16165TIP3   OH269909   5.786   0.027  11.464 -0.3428 -0.1397  0.2009
16165TIP3    H169910   5.701   0.036  11.506 -2.2117 -1.0837 -3.1624
16165TIP3    H269911   5.812   0.117  11.443 -1.6629  0.0026 -0.8672
16166TIP3   OH269912   3.740   0.967   6.476  0.3786  0.0029  0.4284
16166TIP3    H169913   3.831   0.948   6.495  0.7059  0.8887 -0.1994
16166TIP3    H269914   3.740   0.996   6.384 -0.4585  0.4557  0.5618
16167TIP3   OH269915   4.738   1.803   2.063 -0.0456 -0.1996  0.5109
16167TIP3    H169916   4.801   1.732   2.077 -0.4106 -0.5574  0.3452
16167TIP3    H269917   4.681   1.800   2.140 -1.4908 -1.5811 -0.5870
16168TIP3   OH269918   4.536   1.555  15.273  0.1748 -0.5996  0.3327
16168TIP3    H169919   4.615   1.577  15.224 -0.3439  0.2601 -0.1259
16168TIP3    H269920   4.465   1.598  15.226 -1.1818 -4.7379 -1.7161
16169TIP3   OH269921   1.013   6.287   6.377  0.4607  0.3593  0.2650
16169TIP3    H169922   0.996   6.347   6.449  1.0864  0.4574  0.3239
16169TIP3    H269923   0.985   6.335   6.299  1.5111  0.9581  0.2467
16170TIP3   OH269924   4.786   1.022   3.520 -0.8594  0.5667 -0.0588
16170TIP3    H169925   4.879   1.003   3.517 -0.6628  1.6215 -0.9947
16170TIP3    H269926   4.768   1.043   3.612 -0.4228 -0.7934  0.3449
16171TIP3   OH269927   4.921   1.394  16.201 -0.3886 -0.3115 -0.0757
16171TIP3    H169928   4.833   1.430  16.188 -0.0765  0.1457 -0.9926
16171TIP3    H269929   4.924   1.318  16.143 -0.8288 -1.4687  1.3849
16172TIP3   OH269930   6.776   1.952  16.855 -0.2584 -0.5943  0.3882
16172TIP3    H169931   6.744   1.863  16.869  0.8256 -1.3379 -1.6551
16172TIP3    H269932   6.752   1.973  16.765 -0.7932  1.3212  0.9501
16173TIP3   OH269933   5.925   1.897  14.521 -0.3380 -0.5677 -0.3404
16173TIP3    H169934   5.922   1.802  14.508 -0.9758 -0.7247  0.8105
16173TIP3    H269935   5.964   1.932  14.441  1.2279 -1.9205 -0.1852
16174TIP3   OH269936   6.625   6.496  13.030  0.3942 -0.4077 -0.1987
16174TIP3    H169937   6.565   6.486  12.956 -0.0962 -2.8864  0.4799
16174TIP3    H269938   6.578   6.457  13.104  2.1466 -0.7948  0.7339
16175TIP3   OH269939   0.553   5.179  12.236  0.7618 -0.5367  0.7548
16175TIP3    H169940   0.505   5.249  12.280  1.6910  0.4816  0.1824
16175TIP3    H269941   0.490   5.140  12.175  0.4922  0.3920  0.4334
16176TIP3   OH269942   2.390   4.450   1.984 -0.3558 -0.2282 -0.0091
16176TIP3    H169943   2.315   4.446   1.925 -0.7487  0.5108  0.4287
16176TIP3    H269944   2.352   4.444   2.072  0.2800 -1.9820  0.1565
16177TIP3   OH269945   3.713   2.542  15.094  0.4441 -0.2214  0.1575
16177TIP3    H169946   3.721   2.628  15.135 -1.8499  1.2789 -2.3358
16177TIP3    H269947   3.661   2.491  15.155  3.6035 -0.6125  2.6710
16178TIP3   OH269948   3.610   5.081   4.241  0.0126 -0.0988 -0.1923
16178TIP3    H169949   3.540   5.032   4.284  1.0464 -0.2903  1.2989
16178TIP3    H269950   3.593   5.172   4.264 -0.4315 -0.0098 -0.8448
16179TIP3   OH269951   0.636   2.110  11.441  0.1553  0.1918  0.4958
16179TIP3    H169952   0.676   2.063  11.515 -1.0951 -0.1971  0.9533
16179TIP3    H269953   0.542   2.097  11.454 -0.0234 -1.8761 -2.4665
16180TIP3   OH269954   3.078   5.931  16.361  0.0168 -0.2811 -0.0731
16180TIP3    H169955   3.062   5.852  16.309  0.2947  1.0199 -2.2279
16180TIP3    H269956   3.163   5.916  16.402  0.0939 -1.0920 -0.5200
16181TIP3   OH269957   6.500   3.989   0.398 -0.1870  0.3919  0.0103
16181TIP3    H169958   6.501   4.081   0.369  2.2541  0.5744  0.5412
16181TIP3    H269959   6.416   3.979   0.442 -0.7897  2.1926 -0.6621
16182TIP3   OH269960   3.698   5.684  11.943  0.0737 -0.2408 -0.7196
16182TIP3    H169961   3.639   5.735  12.000  0.2790 -0.0942 -0.6381
16182TIP3    H269962   3.686   5.593  11.971  1.0306 -0.0537  0.3458
16183TIP3   OH269963   6.251   3.975   0.518  0.3379 -0.5190 -0.3725
16183TIP3    H169964   6.198   3.985   0.439 -0.7566  0.2381  0.4393
16183TIP3    H269965   6.190   3.939   0.583 -0.0545  3.0470  1.4221
16184TIP3   OH269966   0.115   2.377  16.966 -0.2770  0.3926  0.2402
16184TIP3    H169967   0.167   2.451  16.935  1.4762 -0.4595  1.0053
16184TIP3    H269968   0.170   2.300  16.947 -0.8600 -0.4672  1.8748
16185TIP3   OH269969   6.243   0.454   2.949 -1.1477  0.7650  0.0018
16185TIP3    H169970   6.157   0.475   2.914 -1.2174 -0.0947 -0.3567
16185TIP3    H269971   6.303   0.515   2.906 -1.6053  1.5485  0.4561
16186TIP3   OH269972   2.989   1.128  16.278  0.3693  0.1458  0.4145
16186TIP3    H169973   3.070   1.090  16.313  0.1787  1.9616  3.0120
16186TIP3    H269974   2.920   1.069  16.309  0.6178 -1.1622 -1.4368
16187TIP3   OH269975   5.299   3.969   4.641 -0.2826  0.2276  0.6130
16187TIP3    H169976   5.213   3.988   4.678  0.6462  0.3472  2.8052
16187TIP3    H269977   5.281   3.914   4.564 -2.2332 -1.1521  2.0020
16188TIP3   OH269978   6.144   0.172  12.862  0.2680  0.1833 -0.2934
16188TIP3    H169979   6.211   0.112  12.830  0.5525  1.2795 -1.8259
16188TIP3    H269980   6.140   0.241  12.796 -1.5426  0.7544  0.3713
16189TIP3   OH269981   2.152   2.121  11.867  0.0244 -0.3499 -0.0012
16189TIP3    H169982   2.095   2.049  11.894  0.3214 -0.9883 -1.0387
16189TIP3    H269983   2.170   2.104  11.774  1.1768  0.3279  0.0880
16190TIP3   OH269984   3.987   4.744  12.284  0.2290  0.2720 -0.4814
16190TIP3    H169985   3.999   4.831  12.322 -1.6341  1.8816 -3.3584
16190TIP3    H269986   3.978   4.686  12.359 -2.4070  3.1933  1.5885
16191TIP3   OH269987   1.678   3.631  12.927  0.2230 -0.3009 -0.6735
16191TIP3    H169988   1.601   3.655  12.979  0.6281 -1.3004  0.4072
16191TIP3    H269989   1.717   3.558  12.974  0.4921 -1.3719 -2.5220
16192TIP3   OH269990   5.090   5.304  15.394  0.0130 -0.2946 -0.1902
16192TIP3    H169991   4.995   5.312  15.396 -0.1299 -2.0859  0.3970
16192TIP3    H269992   5.119   5.326  15.482  0.2915  1.8372 -0.7889
16193TIP3   OH269993   2.428   2.871   1.267  0.5466 -0.2065 -0.0701
16193TIP3    H169994   2.364   2.813   1.308 -0.0769  1.4943  1.4157
16193TIP3    H269995   2.406   2.868   1.173 -0.8266 -0.7050  0.2580
16194TIP3   OH269996   3.203   5.191   2.988  0.3104  0.2979 -0.8754
16194TIP3    H169997   3.169   5.265   2.938  0.5421  1.2842  0.4135
16194TIP3    H269998   3.136   5.176   3.056  1.5681  1.0988  0.5639
16195TIP3   OH269999   1.387   1.097   2.367  0.4159  0.2252 -0.3710
16195TIP3    H170000   1.437   1.118   2.446  0.1758  2.0229 -0.6620
16195TIP3    H270001   1.399   1.003   2.355  1.8769  0.2346  0.8290
16196TIP3   OH270002   0.592   1.030   4.076  0.3192  0.3384  0.2272
16196TIP3    H170003   0.624   1.109   4.118 -0.1422  0.2605  0.7343
16196TIP3    H270004   0.497   1.039   4.076  0.2225 -0.5920  1.0423
16197TIP3   OH270005   0.409   0.175   2.221  0.5160 -0.1147 -0.1077
16197TIP3    H170006   0.462   0.107   2.180 -0.0882 -0.9179  0.4445
16197TIP3    H270007   0.323   0.168   2.179  0.3007 -0.0275  0.3191
16198TIP3   OH270008   6.736   2.166   3.636 -0.3935 -0.3168 -0.6351
16198TIP3    H170009   6.818   2.209   3.659 -1.3146  1.9821 -1.4977
16198TIP3    H270010   6.761   2.095   3.578  1.1967 -1.1401  1.0335
16199TIP3   OH270011   4.337   3.572   3.047  0.0509  0.2276 -0.1370
16199TIP3    H170012   4.355   3.615   2.963  0.2340 -0.0305 -0.2305
16199TIP3    H270013   4.303   3.486   3.022 -0.3772  0.3464  0.0489
16200TIP3   OH270014   2.449   2.159  16.565  0.8191  0.5278  0.1920
16200TIP3    H170015   2.415   2.101  16.497 -0.9871 -0.4046  1.8486
16200TIP3    H270016   2.526   2.200  16.525 -0.0241 -0.2196 -2.2930
16201TIP3   OH270017   0.645   3.223   6.386 -0.2138 -0.3529  0.6337
16201TIP3    H170018   0.680   3.279   6.316  2.5891 -1.7152  0.8875
16201TIP3    H270019   0.619   3.285   6.455 -0.5447  0.8324 -0.5183
16202TIP3   OH270020   1.755   0.868  14.470  0.4512  0.7561  0.5964
16202TIP3    H170021   1.659   0.870  14.471  0.4053  0.2840 -1.1099
16202TIP3    H270022   1.781   0.950  14.510 -0.6533  0.5977  1.6950
16203TIP3   OH270023   4.887   4.972  11.412 -0.2582 -0.1607 -0.2648
16203TIP3    H170024   4.886   5.053  11.361 -2.5263  0.8108  1.2340
16203TIP3    H270025   4.895   4.902  11.347 -0.1054  1.1859 -1.7142
16204TIP3   OH270026   0.319   5.316  13.502  0.2482 -0.2338 -0.0409
16204TIP3    H170027   0.391   5.256  13.482  0.0367 -1.0186  1.4954
16204TIP3    H270028   0.273   5.275  13.575 -1.2160  0.7180 -0.4108
16205TIP3   OH270029   3.483   4.601  14.418 -0.6296  0.4114 -0.1244
16205TIP3    H170030   3.521   4.523  14.376  0.6357  1.2805 -0.6189
16205TIP3    H270031   3.430   4.642  14.350  1.9272  2.1674 -1.1188
16206TIP3   OH270032   2.106   1.594  12.849  0.3775 -0.2779 -0.5530
16206TIP3    H170033   2.095   1.561  12.938  0.0039  0.6148 -0.2564
16206TIP3    H270034   2.164   1.531  12.806  0.1201 -0.9982  0.1605
16207TIP3   OH270035   0.314   2.560   4.827 -0.3780  0.0383 -0.4764
16207TIP3    H170036   0.249   2.492   4.814 -0.6672  0.2904 -0.3401
16207TIP3    H270037   0.293   2.599   4.912  0.1345 -0.0830 -0.2863
16208TIP3   OH270038   2.890   6.743  17.190  0.7875 -0.6842  0.4136
16208TIP3    H170039   2.859   6.834  17.189  1.3440 -0.4941 -0.5042
16208TIP3    H270040   2.854   6.705  17.110  0.7222 -1.2136  0.6975
16209TIP3   OH270041   3.741   2.228   3.465  0.0436  0.4233  0.3487
16209TIP3    H170042   3.708   2.217   3.376  0.5741  2.8584 -0.1704
16209TIP3    H270043   3.715   2.316   3.490 -1.0602 -0.6077  3.0512
16210TIP3   OH270044   6.105   0.296  16.629 -0.3323 -0.1877  0.0889
16210TIP3    H170045   6.040   0.235  16.664 -1.1840  0.1868 -0.8158
16210TIP3    H270046   6.110   0.275  16.535 -0.5345  1.0232 -0.2049
16211TIP3   OH270047   2.630   0.147  13.160  0.0632  0.3287  0.1087
16211TIP3    H170048   2.634   0.070  13.218  0.8769  0.3212  0.0467
16211TIP3    H270049   2.643   0.111  13.072 -0.7312  0.3983 -0.0475
16212TIP3   OH270050   1.698   6.035   2.642 -0.2850 -0.1924 -0.8910
16212TIP3    H170051   1.697   5.967   2.574 -0.5087 -1.3973  0.2967
16212TIP3    H270052   1.729   6.114   2.597  0.0731 -1.1043 -2.2660
16213TIP3   OH270053   2.774   6.768   1.488  0.0893  0.0605 -0.1464
16213TIP3    H170054   2.696   6.774   1.432  0.0204 -0.3233 -0.0939
16213TIP3    H270055   2.806   6.858   1.494  1.0376 -0.1343 -2.1136
16214TIP3   OH270056   4.369   0.417  17.109 -0.0377  0.2855  0.2992
16214TIP3    H170057   4.314   0.339  17.102  0.3412 -0.1203  1.6190
16214TIP3    H270058   4.308   0.490  17.100 -0.3015 -0.1561 -1.5843
16215TIP3   OH270059   5.185   2.001  11.806 -0.1485  0.2955  0.0714
16215TIP3    H170060   5.160   2.004  11.714  1.1446  1.3436 -0.2735
16215TIP3    H270061   5.235   1.920  11.815 -2.5257 -1.1629  0.4813
16216TIP3   OH270062   3.556   3.482   4.325  0.2932  0.3720  0.3840
16216TIP3    H170063   3.571   3.398   4.370 -0.5766 -1.3641 -2.4351
16216TIP3    H270064   3.642   3.524   4.323  0.7014 -0.3314  2.0057
16217TIP3   OH270065   3.136   1.875  16.575  0.3636 -0.4080 -0.2920
16217TIP3    H170066   3.096   1.861  16.489 -3.1288  0.2948  1.1187
16217TIP3    H270067   3.176   1.792  16.598  0.5296 -0.8680 -2.2070
16218TIP3   OH270068   0.473   6.771   2.044  0.2906 -0.4105  0.1753
16218TIP3    H170069   0.538   6.702   2.057  0.6082  0.2335  2.2832
16218TIP3    H270070   0.392   6.725   2.021  0.7958 -1.3921  0.3402
16219TIP3   OH270071   5.253   6.318  16.510 -0.3982 -0.8527  0.3427
16219TIP3    H170072   5.177   6.370  16.483  0.1406 -0.1731  0.0976
16219TIP3    H270073   5.290   6.368  16.583  0.3597 -0.6759 -0.1599
16220TIP3   OH270074   0.626   0.412   0.795 -0.4775  0.1765 -0.5802
16220TIP3    H170075   0.655   0.437   0.708  2.1736 -0.5836  0.0432
16220TIP3    H270076   0.572   0.486   0.824  0.0485  1.2153 -2.1668
16221TIP3   OH270077   1.785   5.788   4.049 -0.8366  0.0581  0.2121
16221TIP3    H170078   1.692   5.797   4.030 -0.3467 -0.2073 -2.5155
16221TIP3    H270079   1.829   5.813   3.968  1.4966  0.5434  1.5780
16222TIP3   OH270080   3.343   0.395   1.569  0.1679  0.3976  0.0095
16222TIP3    H170081   3.302   0.417   1.653  2.2066  1.8708  0.6734
16222TIP3    H270082   3.331   0.301   1.561  0.7053  0.0836  2.4144
16223TIP3   OH270083   0.352   3.996  11.391 -0.9454 -0.0774 -0.4550
16223TIP3    H170084   0.334   3.940  11.316 -3.2226  1.2343 -0.9503
16223TIP3    H270085   0.319   3.947  11.466 -0.5528 -0.5038 -0.5590
16224TIP3   OH270086   0.169   1.797   1.861  0.4389  0.3841 -0.1072
16224TIP3    H170087   0.231   1.866   1.886  0.2033  0.6219 -0.1766
16224TIP3    H270088   0.168   1.800   1.766  1.7978 -0.9293 -0.1841
16225TIP3   OH270089   2.658   1.325  11.162 -0.7170  0.2264 -0.6145
16225TIP3    H170090   2.725   1.346  11.227 -0.1664  1.0983 -1.4535
16225TIP3    H270091   2.642   1.231  11.174  0.9147 -0.0758 -0.6508
16226TIP3   OH270092   2.440   6.665  12.410 -0.2985 -0.3379 -0.2746
16226TIP3    H170093   2.535   6.655  12.406 -0.2797  0.0542 -0.7706
16226TIP3    H270094   2.411   6.661  12.319 -0.8766 -1.6095 -0.0579
16227TIP3   OH270095   5.596   3.975   4.637 -0.0775  0.3225 -0.0453
16227TIP3    H170096   5.502   3.960   4.629  0.3500 -0.9352 -3.6549
16227TIP3    H270097   5.615   4.044   4.574  1.3349  1.1348  1.2323
16228TIP3   OH270098   6.486   3.340   1.283  0.7183  0.5017  0.2414
16228TIP3    H170099   6.443   3.282   1.346 -1.8647  0.7461 -1.2202
16228TIP3    H270100   6.545   3.282   1.235  1.0935 -0.1221  1.4169
16229TIP3   OH270101   4.135   1.372  15.702 -0.2464 -0.7420  0.9386
16229TIP3    H170102   4.053   1.324  15.718 -0.8845 -0.0746 -0.2997
16229TIP3    H270103   4.187   1.312  15.649 -1.1045 -0.0538 -0.7352
16230TIP3   OH270104   5.076   1.566   0.421 -0.7682 -0.6506  0.2075
16230TIP3    H170105   5.047   1.651   0.388 -0.2704 -0.3574  0.5159
16230TIP3    H270106   5.043   1.563   0.511  1.0577  0.1543  0.9355
16231TIP3   OH270107   2.744   6.109  13.311 -0.1918 -0.2294 -0.0734
16231TIP3    H170108   2.761   6.148  13.397  0.3362 -0.3354 -0.1282
16231TIP3    H270109   2.667   6.055  13.325  0.5701 -1.1606  0.6170
16232TIP3   OH270110   5.983   0.438   1.511 -0.7357 -0.4565 -0.1757
16232TIP3    H170111   5.995   0.531   1.492 -1.2151 -0.5810 -1.1051
16232TIP3    H270112   6.068   0.409   1.544 -0.8754  0.5396  1.0816
16233TIP3   OH270113   5.978   1.110  12.249 -0.3380  0.1038  0.0993
16233TIP3    H170114   5.894   1.065  12.250 -0.0293 -0.5349 -1.7094
16233TIP3    H270115   5.966   1.183  12.189  0.6821 -0.5474 -0.9153
16234TIP3   OH270116   0.255   3.403  14.134 -0.6129  0.6269  0.0862
16234TIP3    H170117   0.251   3.350  14.214  0.4026 -1.2818 -1.0927
16234TIP3    H270118   0.312   3.476  14.157 -0.1579 -0.0132  1.0555
16235TIP3   OH270119   5.410   0.774  16.100 -0.0449  0.0636 -0.3224
16235TIP3    H170120   5.336   0.782  16.040 -0.1750 -0.6714 -0.2622
16235TIP3    H270121   5.487   0.791  16.045 -0.1445 -0.8494 -0.7527
16236TIP3   OH270122   3.467   4.894  13.959  0.1786 -0.0502  0.0661
16236TIP3    H170123   3.404   4.926  14.024 -0.4132  0.0170 -0.5417
16236TIP3    H270124   3.480   4.801  13.982 -1.5471 -0.5501 -0.9246
16237TIP3   OH270125   2.524   0.100  14.082 -0.0462  0.4528 -0.4464
16237TIP3    H170126   2.429   0.086  14.080 -0.0477  0.4140 -0.1329
16237TIP3    H270127   2.534   0.193  14.102 -0.0218  0.5600 -0.9517
16238TIP3   OH270128   4.900   5.964  11.963 -0.1906  0.1453  0.4032
16238TIP3    H170129   4.927   6.029  11.899 -0.2131 -0.8516 -0.6320
16238TIP3    H270130   4.981   5.939  12.008  0.1286 -0.4529 -0.4736
16239TIP3   OH270131   0.430   5.099  15.987 -0.1002  0.1012  0.1884
16239TIP3    H170132   0.397   5.107  15.897 -0.5724 -0.1861  0.3368
16239TIP3    H270133   0.467   5.011  15.991 -2.3497 -0.8477  1.0205
16240TIP3   OH270134   6.667   0.611  15.416  0.4292  0.3225  0.0015
16240TIP3    H170135   6.661   0.615  15.511  1.0690 -2.3649  0.1933
16240TIP3    H270136   6.730   0.679  15.393 -1.6235  2.7063  1.2359
16241TIP3   OH270137   6.187   2.935   4.481  0.1473  0.0709 -0.1048
16241TIP3    H170138   6.179   2.960   4.389  0.8300  1.0772  0.0908
16241TIP3    H270139   6.217   2.844   4.479  1.1835  0.4148 -0.8966
16242TIP3   OH270140   4.205   2.914   1.314 -0.3024 -0.4570  0.4835
16242TIP3    H170141   4.262   2.872   1.249 -0.1487 -2.2567  1.7507
16242TIP3    H270142   4.265   2.962   1.371 -0.0462 -2.2563  1.7477
16243TIP3   OH270143   1.968   0.943  12.046  0.1311  0.6505  0.0851
16243TIP3    H170144   1.902   0.912  12.107  0.5860  0.3247  0.4101
16243TIP3    H270145   1.977   0.872  11.982 -0.4506  1.0502 -0.4487
16244TIP3   OH270146   1.822   5.557   1.234  0.7697  0.2862 -0.6691
16244TIP3    H170147   1.903   5.594   1.199  1.8212 -0.5669  0.7803
16244TIP3    H270148   1.826   5.464   1.210  0.3840  0.1743 -0.3108
16245TIP3   OH270149   3.594   3.309   4.541  0.1428 -0.0187 -0.0779
16245TIP3    H170150   3.681   3.271   4.549 -0.0875 -0.5348 -0.0295
16245TIP3    H270151   3.535   3.242   4.575 -0.2385  0.4973  0.2748
16246TIP3   OH270152   1.964   5.959   5.663 -0.1667 -0.2023 -0.5247
16246TIP3    H170153   1.959   6.003   5.748  0.1116 -0.5409 -0.3341
16246TIP3    H270154   1.971   6.030   5.600  1.8465 -0.0038 -0.1110
16247TIP3   OH270155   3.934   3.273   4.906 -0.2518 -0.2238  0.1174
16247TIP3    H170156   3.935   3.348   4.966 -1.6035 -1.1454  1.3337
16247TIP3    H270157   3.853   3.284   4.855  0.3458 -0.0240 -0.8055
16248TIP3   OH270158   4.604   6.526  14.712  0.1272  0.4058 -0.0091
16248TIP3    H170159   4.543   6.555  14.644 -1.0620 -1.4361  0.2400
16248TIP3    H270160   4.689   6.523  14.669 -0.3894  0.5824 -1.0562
16249TIP3   OH270161   6.438   4.850   5.493  0.3514 -0.4767 -1.0338
16249TIP3    H170162   6.354   4.838   5.538  0.5881  1.5943  0.0704
16249TIP3    H270163   6.440   4.944   5.471  2.7398 -0.2889 -0.2305
16250TIP3   OH270164   4.509   6.459   3.806  0.6356  0.5286  0.1158
16250TIP3    H170165   4.503   6.547   3.844  1.3100  0.2072  0.9927
16250TIP3    H270166   4.520   6.401   3.882 -2.3873 -0.6018 -0.2694
16251TIP3   OH270167   1.076   2.660   4.403  0.0721  0.4524  0.2975
16251TIP3    H170168   1.075   2.658   4.307  0.1404  1.1171  0.2766
16251TIP3    H270169   1.165   2.688   4.425  0.2580 -0.3534  0.5715
16252TIP3   OH270170   6.296   4.201  16.100 -0.9986 -0.0071  0.0005
16252TIP3    H170171   6.319   4.148  16.176  0.5248  1.0983  0.3322
16252TIP3    H270172   6.348   4.164  16.028 -0.1247  0.8663  0.1780
16253TIP3   OH270173   4.891   5.683   5.424 -0.0464 -0.5782  0.0388
16253TIP3    H170174   4.909   5.768   5.382 -0.7420 -1.1503 -1.4595
16253TIP3    H270175   4.914   5.619   5.357 -0.5238 -1.5488  0.8028
16254TIP3   OH270176   5.775   1.927  10.421  0.0295  0.2993  0.6889
16254TIP3    H170177   5.773   1.981  10.342  1.1449  0.0916  0.5053
16254TIP3    H270178   5.841   1.969  10.477  0.3568 -0.4309  0.8622
16255TIP3   OH270179   0.173   2.856   2.870  0.4439 -0.0848  0.0544
16255TIP3    H170180   0.161   2.864   2.775 -0.9276 -1.9151  0.0423
16255TIP3    H270181   0.253   2.805   2.880 -1.1014 -2.6291 -0.2076
16256TIP3   OH270182   6.219   0.086  12.415  0.2894 -0.1783  0.0730
16256TIP3    H170183   6.294   0.145  12.416 -0.3608  0.6568  0.1721
16256TIP3    H270184   6.144   0.142  12.431 -0.2819 -1.1215  0.7838
16257TIP3   OH270185   5.639   0.761  13.133  0.5730  0.4274 -0.0150
16257TIP3    H170186   5.620   0.679  13.180 -0.3750  1.6265  1.7216
16257TIP3    H270187   5.619   0.830  13.196 -0.0567  2.0572 -1.9634
16258TIP3   OH270188   1.565   0.887   4.136  0.4167 -0.1972 -0.1630
16258TIP3    H170189   1.550   0.819   4.201 -1.2933  1.4418  1.1758
16258TIP3    H270190   1.563   0.840   4.052  2.2116 -2.2475  0.8898
16259TIP3   OH270191   1.278   6.073   5.167 -0.0323 -0.4006  0.3787
16259TIP3    H170192   1.354   6.071   5.226  0.6275 -0.9473 -0.4799
16259TIP3    H270193   1.303   6.134   5.098 -0.2732 -0.7655 -0.0358
16260TIP3   OH270194   0.375   6.418   2.955 -0.3182 -0.5148  0.1078
16260TIP3    H170195   0.376   6.352   2.886 -1.3098 -0.9771  0.5215
16260TIP3    H270196   0.314   6.384   3.020  1.9928 -0.9531  2.1050
16261TIP3   OH270197   2.370   2.642  16.163 -0.2703  0.3234 -0.8086
16261TIP3    H170198   2.391   2.566  16.109 -0.3660 -0.7059  0.5845
16261TIP3    H270199   2.278   2.661  16.144 -0.5531 -0.5862 -0.3334
16262TIP3   OH270200   1.868   6.164  12.472 -0.4838 -0.6137  0.0848
16262TIP3    H170201   1.788   6.133  12.429 -0.3469  0.6680 -1.1185
16262TIP3    H270202   1.939   6.122  12.423 -0.2855  1.7125 -1.7347
16263TIP3   OH270203   1.734   3.161  11.159 -0.0961  0.8105  0.5005
16263TIP3    H170204   1.770   3.173  11.071 -2.7161  0.8253 -0.6288
16263TIP3    H270205   1.807   3.179  11.218  2.1070 -0.6401 -1.6879
16264TIP3   OH270206   3.514   2.473  14.176 -0.0733  0.2230 -0.5388
16264TIP3    H170207   3.520   2.382  14.203 -2.6533 -0.2420 -1.4091
16264TIP3    H270208   3.510   2.470  14.080 -1.0393  1.2030 -0.5357
16265TIP3   OH270209   2.656   1.986   2.100 -0.1691 -0.3969 -0.1012
16265TIP3    H170210   2.604   2.063   2.080  2.4683  0.7636 -2.7619
16265TIP3    H270211   2.725   2.017   2.158  0.1247 -1.0376 -0.0998
16266TIP3   OH270212   6.384   3.124  13.733  0.0002 -0.3409  0.3132
16266TIP3    H170213   6.469   3.167  13.739 -0.8871  1.7039 -1.1583
16266TIP3    H270214   6.344   3.138  13.819  1.1607 -1.3814  1.0339
16267TIP3   OH270215   0.785   5.964  11.336  0.1308  0.3327  0.1853
16267TIP3    H170216   0.807   6.034  11.274 -0.2273  1.4549  1.3105
16267TIP3    H270217   0.695   5.982  11.362  0.0974 -0.4477  0.6137
16268TIP3   OH270218   4.934   2.952  14.868 -0.7426  0.4209 -0.0196
16268TIP3    H170219   4.869   2.886  14.895 -0.9390  0.4667 -0.3759
16268TIP3    H270220   5.013   2.901  14.850 -1.9767 -0.2607 -4.1397
16269TIP3   OH270221   5.798   3.950   1.218  0.0890  0.2018  0.3657
16269TIP3    H170222   5.808   4.042   1.245 -0.2587  0.3528 -0.0221
16269TIP3    H270223   5.712   3.925   1.251 -0.2797  0.3436 -0.4783
16270TIP3   OH270224   1.541   5.506  11.336 -0.1994 -0.2933 -0.0369
16270TIP3    H170225   1.513   5.589  11.375 -0.5502 -0.3287 -0.2078
16270TIP3    H270226   1.484   5.440  11.376  1.8552 -0.8223  2.1198
16271TIP3   OH270227   6.404   0.509  17.086 -0.2119  0.1171  0.1907
16271TIP3    H170228   6.315   0.543  17.072 -0.5036 -1.4724 -2.1485
16271TIP3    H270229   6.393   0.440  17.151 -0.7052 -0.0251 -0.0379
16272TIP3   OH270230   0.332   1.160   5.494  0.2120  0.0743  0.1711
16272TIP3    H170231   0.337   1.246   5.454  0.1541 -0.2522 -0.5453
16272TIP3    H270232   0.382   1.168   5.576 -1.3363  1.2808  1.0272
16273TIP3   OH270233   4.418   2.557   5.929 -0.6665  0.1098  0.4558
16273TIP3    H170234   4.508   2.584   5.948  1.3218 -5.0454 -0.6901
16273TIP3    H270235   4.382   2.532   6.013  0.0348 -0.5464  0.5752
16274TIP3   OH270236   5.125   4.232  14.322 -0.5767 -0.3584  0.1409
16274TIP3    H170237   5.139   4.317  14.280 -0.2511 -0.5877 -0.2267
16274TIP3    H270238   5.122   4.170  14.249  0.1118 -0.7798  0.4655
16275TIP3   OH270239   2.042   5.464   1.721  0.1514 -0.2006 -0.3168
16275TIP3    H170240   1.988   5.489   1.647  0.6973 -1.2309 -1.0746
16275TIP3    H270241   2.042   5.541   1.778 -1.6772 -0.0202 -0.5483
16276TIP3   OH270242   1.121   2.591  16.979  0.5941  0.2013  0.2600
16276TIP3    H170243   1.186   2.521  16.989 -0.9696 -1.0370  2.0137
16276TIP3    H270244   1.075   2.568  16.898 -0.1976 -1.0705  1.0474
16277TIP3   OH270245   6.420   6.160  14.603  1.0269 -0.2046  0.4719
16277TIP3    H170246   6.344   6.163  14.662 -1.2087  1.6999 -2.3651
16277TIP3    H270247   6.487   6.212  14.647 -0.1200  0.0799  1.9088
16278TIP3   OH270248   6.692   6.373  16.902 -0.1020  0.0493 -0.0317
16278TIP3    H170249   6.644   6.296  16.934 -3.0549  1.1706 -1.5269
16278TIP3    H270250   6.743   6.403  16.977 -1.1482 -1.6887  1.4165
16279TIP3   OH270251   3.273   2.015  14.209 -0.3987 -0.4949  0.2664
16279TIP3    H170252   3.317   1.943  14.254 -2.1022 -1.8046 -0.1383
16279TIP3    H270253   3.208   2.047  14.271  1.7416  2.1543  1.2816
16280TIP3   OH270254   5.154   1.810  12.153  0.6459  0.2778 -0.3457
16280TIP3    H170255   5.214   1.736  12.163  1.4326  0.8953 -0.4902
16280TIP3    H270256   5.209   1.887  12.164 -0.4047  0.8462  1.1473
16281TIP3   OH270257   4.743   3.066  14.332  0.1134  0.0961  0.5012
16281TIP3    H170258   4.729   3.114  14.413 -1.0698 -0.9236  0.9095
16281TIP3    H270259   4.714   3.125  14.263 -0.0457  0.4850  0.9023
16282TIP3   OH270260   3.761   0.618  12.397 -0.1686  0.3433  0.4587
16282TIP3    H170261   3.683   0.565  12.411  0.9128 -1.3881  0.0454
16282TIP3    H270262   3.736   0.706  12.426 -1.6971 -0.5781  1.9875
16283TIP3   OH270263   4.236   5.375   0.744  0.9077  0.5034 -0.4598
16283TIP3    H170264   4.180   5.439   0.787 -0.0170 -1.1912  0.8927
16283TIP3    H270265   4.264   5.418   0.663 -1.1385  1.9301 -0.4351
16284TIP3   OH270266   5.197   1.373  14.364 -0.5510 -0.1850  0.3144
16284TIP3    H170267   5.121   1.402  14.415 -1.5588  1.7172 -2.1315
16284TIP3    H270268   5.258   1.446  14.369  0.0320 -0.6598  0.1442
16285TIP3   OH270269   5.336   4.369  12.555  0.1189 -0.1904 -0.2410
16285TIP3    H170270   5.255   4.350  12.603  1.7642 -2.8345  1.6192
16285TIP3    H270271   5.362   4.456  12.585 -1.4765  0.2653 -0.1163
16286TIP3   OH270272   1.142   2.649   4.138 -0.2902 -0.0381  0.7559
16286TIP3    H170273   1.186   2.703   4.073  0.5196 -1.1371  0.3664
16286TIP3    H270274   1.131   2.564   4.095 -2.0507 -0.0136  1.1591
16287TIP3   OH270275   1.568   1.464   0.467 -0.0418 -0.1879 -0.0387
16287TIP3    H170276   1.561   1.388   0.410 -0.1285  0.0915 -0.4017
16287TIP3    H270277   1.637   1.441   0.530 -0.3751 -0.7403  0.1283
16288TIP3   OH270278   2.168   0.306  15.885  0.0183 -0.0286  0.0534
16288TIP3    H170279   2.092   0.248  15.882 -0.4095  0.6086 -1.5344
16288TIP3    H270280   2.131   0.394  15.897  0.5187  0.2390 -0.3146
16289TIP3   OH270281   1.103   2.017  11.173 -0.1284 -0.1561 -0.4851
16289TIP3    H170282   1.149   2.000  11.091 -0.3436 -1.4555 -0.3526
16289TIP3    H270283   1.153   2.088  11.214  0.4746 -0.0678 -1.3503
16290TIP3   OH270284   5.257   6.430  14.547 -0.1382 -0.0731 -0.0360
16290TIP3    H170285   5.205   6.508  14.528  1.7788  1.0329 -0.8933
16290TIP3    H270286   5.347   6.459  14.537  0.6205 -2.2689  0.2452
16291TIP3   OH270287   6.618   2.846  12.971 -0.0024 -0.8541 -0.3239
16291TIP3    H170288   6.663   2.849  12.887  1.4379 -0.8737  0.4372
16291TIP3    H270289   6.582   2.934  12.982  0.1284 -0.7436 -0.7679
16292TIP3   OH270290   0.868   5.364  12.936 -0.6982  0.1127 -0.3554
16292TIP3    H170291   0.783   5.349  12.895 -0.3669  0.3497 -1.1330
16292TIP3    H270292   0.930   5.363  12.863 -0.1526  0.9059  0.0977
16293TIP3   OH270293   5.953   5.356   2.760 -0.2008 -0.3024  0.6634
16293TIP3    H170294   5.939   5.301   2.684 -1.7310  0.4812  0.3509
16293TIP3    H270295   6.045   5.381   2.755 -0.5176  0.5406 -1.4879
16294TIP3   OH270296   4.858   5.508  16.622 -0.1704 -0.2787 -0.0373
16294TIP3    H170297   4.860   5.542  16.711  1.8711  0.8565 -0.4781
16294TIP3    H270298   4.859   5.586  16.566 -0.2399 -0.9979 -1.0730
16295TIP3   OH270299   6.596   5.080   1.210  0.4321  0.0734 -0.1890
16295TIP3    H170300   6.607   5.173   1.194  1.2149  0.0045 -0.0932
16295TIP3    H270301   6.660   5.038   1.152  1.2433 -0.3150  0.9667
16296TIP3   OH270302   1.458   2.211  17.169  0.3211  0.1018  0.0312
16296TIP3    H170303   1.397   2.257  17.227 -0.2419 -0.1935 -0.3202
16296TIP3    H270304   1.429   2.120  17.173  1.0444 -0.1228  0.2398
16297TIP3   OH270305   2.917   4.547  11.123  0.5564  0.6772  0.6365
16297TIP3    H170306   2.886   4.637  11.139 -1.2274  0.3863 -1.0316
16297TIP3    H270307   2.934   4.544  11.029  0.3263 -0.8206  0.6331
16298TIP3   OH270308   2.944   3.687  13.939  0.4654  0.1095 -0.0805
16298TIP3    H170309   3.030   3.682  13.980  0.7709 -0.2042 -0.7562
16298TIP3    H270310   2.959   3.735  13.858 -0.1608  0.8577  0.2364
16299TIP3   OH270311   1.770   1.227   6.639 -0.0512 -0.6274  0.3231
16299TIP3    H170312   1.854   1.205   6.598 -0.5739 -1.7945 -0.1437
16299TIP3    H270313   1.751   1.316   6.609  0.2150 -0.9806 -0.9240
16300TIP3   OH270314   3.126   4.529  17.081 -0.0490 -0.0055 -0.0662
16300TIP3    H170315   3.086   4.525  16.994 -1.9185 -1.3263  0.8075
16300TIP3    H270316   3.082   4.603  17.124 -1.8942 -1.6383  0.9991
16301TIP3   OH270317   3.239   6.477   2.570  0.0022  0.2832 -0.4364
16301TIP3    H170318   3.265   6.553   2.622 -0.1888  0.6661 -0.8972
16301TIP3    H270319   3.250   6.403   2.629 -1.0575  0.8099  0.4240
16302TIP3   OH270320   0.934   1.351   5.673  0.0443 -0.3715 -0.4708
16302TIP3    H170321   0.939   1.412   5.747 -0.9083 -0.5535 -0.2463
16302TIP3    H270322   0.990   1.277   5.699 -2.7846 -1.9285  1.5237
16303TIP3   OH270323   0.344   3.805  12.127  0.9427  0.0421  0.2363
16303TIP3    H170324   0.437   3.827  12.132  0.9822  0.0998 -0.6484
16303TIP3    H270325   0.341   3.710  12.143  1.2449 -0.1086 -0.5696
16304TIP3   OH270326   2.034   4.024  12.333  0.1971  0.1303  0.3405
16304TIP3    H170327   2.092   4.067  12.270  1.5269 -3.0177 -0.6768
16304TIP3    H270328   1.956   4.003  12.283  1.3518 -2.5960 -0.4365
16305TIP3   OH270329   2.474   4.117   3.080  0.3281  0.3781  0.1292
16305TIP3    H170330   2.566   4.133   3.102  0.2819  0.4712  0.2520
16305TIP3    H270331   2.460   4.026   3.104  0.5608  0.1834 -0.4679
16306TIP3   OH270332   3.466   2.289   0.639  0.0746 -0.1170 -0.3365
16306TIP3    H170333   3.479   2.194   0.639 -0.6078 -0.2083 -0.3896
16306TIP3    H270334   3.530   2.321   0.703 -0.6718 -0.7457  0.7513
16307TIP3   OH270335   4.335   0.686  16.961 -0.4091  0.0221 -0.9523
16307TIP3    H170336   4.244   0.713  16.970 -0.3687 -0.4981  1.3325
16307TIP3    H270337   4.379   0.762  16.922 -1.6465  0.5584 -1.3142
16308TIP3   OH270338   1.184   2.526   5.372 -0.0158  0.3363 -0.1989
16308TIP3    H170339   1.098   2.502   5.407  0.0953 -0.4054 -0.4311
16308TIP3    H270340   1.230   2.563   5.447 -0.1299 -0.3334  0.2066
16309TIP3   OH270341   1.328   2.281   1.313  0.1758 -0.0386 -0.7153
16309TIP3    H170342   1.300   2.191   1.296 -0.1518 -0.1934  0.5833
16309TIP3    H270343   1.255   2.335   1.284 -0.4149 -0.3039  0.2338
16310TIP3   OH270344   5.061   0.214  16.696 -0.7303 -0.5177  0.0807
16310TIP3    H170345   4.979   0.215  16.647 -1.2382  0.5734  0.9265
16310TIP3    H270346   5.091   0.305  16.696 -1.2548 -0.2903  2.5751
16311TIP3   OH270347   2.664   5.909   5.200  0.2002  0.2193  0.7161
16311TIP3    H170348   2.673   5.980   5.263  0.0500 -0.2345  1.2623
16311TIP3    H270349   2.581   5.926   5.155  1.1300  1.4602 -0.5373
16312TIP3   OH270350   4.433   5.131   1.023 -0.2830 -0.1712  0.0470
16312TIP3    H170351   4.360   5.097   0.971  1.2469 -4.6865  0.6717
16312TIP3    H270352   4.508   5.078   0.997  2.4436  3.2347  0.6756
16313TIP3   OH270353   0.138   3.633   3.149 -0.6900  0.1241  0.0191
16313TIP3    H170354   0.068   3.647   3.213 -0.5730 -0.5060  0.2836
16313TIP3    H270355   0.192   3.712   3.155 -1.5636  0.7589 -0.4231
16314TIP3   OH270356   4.616   0.571  15.155 -0.2483  0.4823  0.2455
16314TIP3    H170357   4.622   0.480  15.184  1.6391 -0.0562 -1.6680
16314TIP3    H270358   4.529   0.579  15.116  0.1351 -0.9526 -0.9468
16315TIP3   OH270359   3.528   1.993   4.216  0.1985 -0.5236 -0.5533
16315TIP3    H170360   3.563   2.023   4.299  1.2036 -2.9899 -0.0131
16315TIP3    H270361   3.525   1.897   4.225 -1.5829 -0.6942 -2.6107
16316TIP3   OH270362   0.576   6.281   2.184  0.2825  0.1376  0.0025
16316TIP3    H170363   0.509   6.332   2.139 -0.4819 -0.8897 -0.0670
16316TIP3    H270364   0.659   6.308   2.144 -0.2683  0.1179 -1.1695
16317TIP3   OH270365   1.366   0.063   6.609  0.5360 -0.5637  0.1458
16317TIP3    H170366   1.426   0.023   6.672  0.5818  0.0158  0.4684
16317TIP3    H270367   1.411   0.055   6.525  1.1884  0.1115  0.4251
16318TIP3   OH270368   1.859   3.738   1.992  0.0057  0.0486 -0.4126
16318TIP3    H170369   1.921   3.809   1.978 -1.5718  1.7679  0.9548
16318TIP3    H270370   1.812   3.763   2.072 -0.5744 -2.5545  0.1245
16319TIP3   OH270371   4.241   4.686   4.112  0.1486  0.3555 -0.0272
16319TIP3    H170372   4.180   4.720   4.178  0.2335 -0.2849  0.3800
16319TIP3    H270373   4.276   4.606   4.150  1.0110  0.5484 -0.4018
16320TIP3   OH270374   5.678   2.375  13.441  0.0261 -0.1481 -0.7756
16320TIP3    H170375   5.683   2.408  13.531  2.3457  0.5633 -1.1382
16320TIP3    H270376   5.655   2.283  13.450 -0.7659  0.1618  0.4965
16321TIP3   OH270377   1.711   4.541   4.468 -0.2094  0.4279  0.4011
16321TIP3    H170378   1.663   4.469   4.509 -0.1346 -0.0301 -0.3188
16321TIP3    H270379   1.694   4.617   4.525 -1.2657  0.1256  0.4888
16322TIP3   OH270380   2.438   2.921   1.647 -0.5443  0.4618  0.7256
16322TIP3    H170381   2.525   2.919   1.688 -0.9024  0.5617  1.4795
16322TIP3    H270382   2.436   3.004   1.600  0.0045  0.1800  0.1869
16323TIP3   OH270383   0.562   3.814  16.043  0.1870  0.0568 -0.3577
16323TIP3    H170384   0.650   3.787  16.069  1.0657  2.4103 -0.7980
16323TIP3    H270385   0.511   3.808  16.124  0.8404 -0.9609 -0.0098
16324TIP3   OH270386   1.137   4.920   2.461 -0.5522 -0.2172  0.3117
16324TIP3    H170387   1.189   4.845   2.492  0.9356  1.0895  1.0931
16324TIP3    H270388   1.172   4.939   2.374 -1.8443 -1.2424 -0.4495
16325TIP3   OH270389   0.568   4.912   2.966 -0.4049  0.0311 -0.6093
16325TIP3    H170390   0.575   4.982   3.030 -1.3470 -2.4599  2.2875
16325TIP3    H270391   0.656   4.906   2.928  0.1612  1.5432  0.4254
16326TIP3   OH270392   1.160   4.275   0.292  0.3656 -0.4491  1.0988
16326TIP3    H170393   1.187   4.365   0.314  1.7679 -0.2042 -1.4115
16326TIP3    H270394   1.242   4.230   0.270 -0.4905 -1.9262  0.8766
16327TIP3   OH270395   4.252   0.679  11.244 -0.1386 -0.7138 -0.1838
16327TIP3    H170396   4.226   0.616  11.177  0.7453  0.1818 -1.3966
16327TIP3    H270397   4.256   0.628  11.325 -3.8768 -1.2503 -0.2501
16328TIP3   OH270398   3.260   0.379   1.314  0.0691 -0.3788 -0.0677
16328TIP3    H170399   3.306   0.297   1.328  1.2110  0.3220  0.3781
16328TIP3    H270400   3.265   0.424   1.399 -1.3537 -0.2507 -0.0432
16329TIP3   OH270401   2.744   0.396  16.067 -0.0285  0.0036 -0.1976
16329TIP3    H170402   2.686   0.345  16.010 -0.9841 -0.7788  1.4368
16329TIP3    H270403   2.712   0.485  16.061 -1.5832 -0.4680  0.8861
16330TIP3   OH270404   2.334   5.660  13.721  0.1005  0.4312 -0.0881
16330TIP3    H170405   2.277   5.683  13.795 -1.4781  0.2505 -1.2219
16330TIP3    H270406   2.334   5.565  13.720  1.6931  0.4118  0.8548
16331TIP3   OH270407   6.778   3.049  16.597  0.0720  0.3724  0.2718
16331TIP3    H170408   6.706   3.065  16.657  1.8519  1.1541  2.2612
16331TIP3    H270409   6.742   2.990  16.531 -2.2282  0.3621  1.5001
16332TIP3   OH270410   2.938   5.435   0.262  0.1286  0.1500 -0.5860
16332TIP3    H170411   2.983   5.506   0.308  1.0412 -1.5732  1.2269
16332TIP3    H270412   2.883   5.480   0.197 -0.1470  2.5690  1.2435
16333TIP3   OH270413   3.671   2.973   0.256  0.2403  0.4809 -0.0675
16333TIP3    H170414   3.652   2.980   0.349  1.2396 -2.2934  0.3948
16333TIP3    H270415   3.733   2.901   0.249  0.1555  0.6055 -2.8862
16334TIP3   OH270416   2.956   4.747   2.701  0.2100  0.2283  0.4172
16334TIP3    H170417   2.926   4.837   2.715 -1.0448 -0.1925  0.4865
16334TIP3    H270418   2.893   4.693   2.749  0.1461 -0.7714 -0.7661
16335TIP3   OH270419   0.992   0.882  17.227 -0.3577 -0.1885  0.6165
16335TIP3    H170420   0.990   0.802  17.176  1.4227 -0.5002  0.9971
16335TIP3    H270421   0.937   0.864  17.303 -0.1558 -0.9585  0.5774
16336TIP3   OH270422   4.724   4.976   3.622  0.4181  0.7800 -0.3769
16336TIP3    H170423   4.655   5.013   3.676  1.6612  0.8107  1.2311
16336TIP3    H270424   4.685   4.969   3.535 -1.9748 -0.2737  0.7382
16337TIP3   OH270425   3.018   4.780   4.562  0.2506  0.3739  0.1433
16337TIP3    H170426   2.974   4.729   4.630 -2.0411  1.3041 -0.5795
16337TIP3    H270427   3.042   4.862   4.604  0.3468  0.2752  0.2787
16338TIP3   OH270428   4.758   1.504  11.543  0.3285 -0.3973  0.1800
16338TIP3    H170429   4.850   1.486  11.522  0.2609 -0.7772  0.2118
16338TIP3    H270430   4.755   1.503  11.639  0.7077  1.6835  0.2437
16339TIP3   OH270431   0.632   0.037   4.671  0.2650  0.3614  0.0199
16339TIP3    H170432   0.658   0.046   4.579 -1.3817  0.1636 -0.4942
16339TIP3    H270433   0.714   0.040   4.720  0.8619  5.6041 -1.0339
16340TIP3   OH270434   4.343   0.937  11.955  0.5687 -0.5337  0.4932
16340TIP3    H170435   4.319   0.921  11.864  0.8075 -0.8421  0.4848
16340TIP3    H270436   4.344   0.851  11.995 -0.9811 -0.2533  1.1487
16341TIP3   OH270437   6.766   6.145   0.160 -0.4862  0.2183  0.3879
16341TIP3    H170438   6.793   6.228   0.200  2.4694 -0.6838  0.4195
16341TIP3    H270439   6.777   6.159   0.066  2.6961 -0.9126  0.5101
16342TIP3   OH270440   4.411   4.862  16.052  0.7099  0.9405 -0.0698
16342TIP3    H170441   4.372   4.944  16.022  0.4607  0.6033 -0.6736
16342TIP3    H270442   4.494   4.857  16.005 -0.1336 -0.0835 -1.4895
16343TIP3   OH270443   2.530   3.188  14.470  0.3363  0.2056 -0.3164
16343TIP3    H170444   2.623   3.184  14.492  0.5674  1.7765 -0.9782
16343TIP3    H270445   2.529   3.218  14.379 -0.8831  1.7570  0.2107
16344TIP3   OH270446   4.523   3.675  10.749  0.1524 -0.4650 -0.6556
16344TIP3    H170447   4.459   3.719  10.805  3.5613  2.1054  1.4653
16344TIP3    H270448   4.530   3.731  10.672  0.3097 -0.3860 -0.5843
16345TIP3   OH270449   0.928   4.282   4.054  0.0556 -0.0857 -0.4768
16345TIP3    H170450   0.931   4.187   4.047 -0.1916 -0.0864 -0.5686
16345TIP3    H270451   0.858   4.299   4.117 -0.6769  0.0815 -1.3390
16346TIP3   OH270452   6.134   1.934   3.766  0.2698  0.2264 -0.4411
16346TIP3    H170453   6.166   1.968   3.850 -0.4727  0.8772 -0.4074
16346TIP3    H270454   6.197   1.965   3.702  0.8260 -0.2461 -0.1233
16347TIP3   OH270455   0.998   3.949   5.779  0.1460  0.6085 -0.3971
16347TIP3    H170456   0.986   3.958   5.874  1.1369 -0.2843 -0.1745
16347TIP3    H270457   0.944   4.018   5.741 -0.5531  0.7348  0.8063
16348TIP3   OH270458   3.614   2.613  13.565  0.4410  0.5023  0.1959
16348TIP3    H170459   3.537   2.561  13.586  1.0928  0.7115  3.3175
16348TIP3    H270460   3.581   2.701  13.549 -0.1084  0.2473 -0.1047
16349TIP3   OH270461   0.355   1.197  12.804 -0.6846 -0.1892  0.4127
16349TIP3    H170462   0.434   1.192  12.858 -0.3423  0.9396  0.0180
16349TIP3    H270463   0.354   1.286  12.771 -1.2547 -0.6762 -0.9044
16350TIP3   OH270464   4.087   1.344   2.540 -0.0747  0.1880 -0.6683
16350TIP3    H170465   4.105   1.300   2.457 -1.9278 -0.1435 -0.9174
16350TIP3    H270466   4.108   1.436   2.524  0.8254 -0.0846 -1.0899
16351TIP3   OH270467   5.937   3.277   5.430 -0.0697  0.3035  0.0606
16351TIP3    H170468   5.878   3.203   5.424 -0.0853  0.2255  1.0336
16351TIP3    H270469   6.012   3.253   5.375 -1.2918  0.7710 -1.8581
16352TIP3   OH270470   4.608   0.121  13.779 -0.4903 -0.4298 -0.2843
16352TIP3    H170471   4.583   0.151  13.691  2.5789 -0.4479 -1.1957
16352TIP3    H270472   4.639   0.031  13.765 -0.0368 -0.4470  0.8267
16353TIP3   OH270473   0.087   3.768  15.399  0.1405 -0.3234  0.3334
16353TIP3    H170474   0.054   3.706  15.333 -0.4223  0.7906 -0.4541
16353TIP3    H270475   0.008   3.812  15.431  0.7171  1.5323 -0.7188
16354TIP3   OH270476   4.322   6.531  11.338  0.0917 -0.1239 -0.3640
16354TIP3    H170477   4.312   6.616  11.295 -1.6234  0.0058  0.2403
16354TIP3    H270478   4.315   6.468  11.267 -1.7181  0.1296 -0.4366
16355TIP3   OH270479   4.744   4.746  14.088  0.3371  0.3178  0.8996
16355TIP3    H170480   4.766   4.715  14.176  1.5465 -3.0947 -0.5148
16355TIP3    H270481   4.829   4.769  14.049 -0.2260  2.1283  0.7429
16356TIP3   OH270482   5.773   0.049  17.024  0.4394 -0.7703 -0.4225
16356TIP3    H170483   5.776  -0.045  17.008  0.0100 -0.8222 -0.2076
16356TIP3    H270484   5.699   0.080  16.971 -0.1190 -0.7302  0.3771
16357TIP3   OH270485   0.257   5.052  11.398 -0.2386  1.1022 -0.1307
16357TIP3    H170486   0.318   4.979  11.395 -0.1320  1.1981 -0.3008
16357TIP3    H270487   0.225   5.060  11.308 -2.6664 -0.7947  0.5078
16358TIP3   OH270488   5.603   2.612   2.077  0.4071  0.0942  0.2994
16358TIP3    H170489   5.581   2.519   2.077  1.0398 -0.0668  1.4631
16358TIP3    H270490   5.621   2.632   2.169  1.7940  0.9980 -0.1571
16359TIP3   OH270491   0.324   1.306   2.986 -0.8108 -0.0062  0.9606
16359TIP3    H170492   0.397   1.258   2.948 -0.3069 -0.3068  2.2953
16359TIP3    H270493   0.284   1.351   2.911 -0.1170 -0.9500  0.0092
16360TIP3   OH270494   1.061   3.515   4.447  0.0554 -0.4546  0.0618
16360TIP3    H170495   0.992   3.511   4.514 -1.2457  0.8811 -1.1544
16360TIP3    H270496   1.121   3.582   4.477  0.0084 -0.5594  0.3886
16361TIP3   OH270497   3.642   5.793  13.221 -0.7718  0.3584  0.0101
16361TIP3    H170498   3.704   5.724  13.244 -0.5568  0.1147 -1.2799
16361TIP3    H270499   3.672   5.870  13.269 -0.2928 -0.1174  0.4807
16362TIP3   OH270500   0.442   6.772  15.036 -0.2064  0.2563  0.4788
16362TIP3    H170501   0.400   6.759  14.951  1.0544  1.3939 -0.3441
16362TIP3    H270502   0.369   6.774  15.099 -1.1758 -0.2148 -0.6169
16363TIP3   OH270503   4.332   4.402  15.033  0.6030 -0.0715 -0.0210
16363TIP3    H170504   4.425   4.380  15.031  0.0829 -2.4367  0.5708
16363TIP3    H270505   4.316   4.431  15.123  0.5239 -0.7438  0.1807
16364TIP3   OH270506   0.168   4.746  16.376  0.4298 -0.2098 -0.1499
16364TIP3    H170507   0.092   4.739  16.319 -0.9108  0.3813  1.5254
16364TIP3    H270508   0.163   4.670  16.433  1.0272 -0.1017  0.0574
16365TIP3   OH270509   5.142   0.853   6.495  0.1547  0.4026  0.0047
16365TIP3    H170510   5.173   0.788   6.558 -0.5942  1.1869  1.2031
16365TIP3    H270511   5.047   0.842   6.494  0.2197 -0.1165 -1.5725
16366TIP3   OH270512   3.703   6.163  16.401  0.0713  0.0389  0.2303
16366TIP3    H170513   3.713   6.108  16.323 -0.9858  2.5852 -1.8228
16366TIP3    H270514   3.644   6.114  16.458 -0.7648 -1.0336 -1.5034
16367TIP3   OH270515   6.393   6.114  13.318  0.4758  0.1395 -0.0525
16367TIP3    H170516   6.305   6.130  13.352 -0.1260 -0.8905 -1.0688
16367TIP3    H270517   6.397   6.018  13.308  0.4973  0.4261 -3.1961
16368TIP3   OH270518   3.855   3.323   4.108  0.5577  0.5919  0.0585
16368TIP3    H170519   3.915   3.319   4.034  0.1584 -0.4250 -0.2178
16368TIP3    H270520   3.845   3.233   4.137 -0.5713  0.7777  0.3066
16369TIP3   OH270521   0.062   5.968   2.584 -0.1026 -0.1381  0.1638
16369TIP3    H170522   0.075   6.063   2.575  1.8851 -0.4008  0.0934
16369TIP3    H270523   0.151   5.932   2.590 -0.7867 -2.1609 -1.3527
16370TIP3   OH270524   5.304   1.555   4.898 -0.2217  0.7913 -0.1550
16370TIP3    H170525   5.282   1.624   4.835 -1.6942 -1.6617 -2.3984
16370TIP3    H270526   5.293   1.597   4.983 -0.7419  3.4502 -1.4736
16371TIP3   OH270527   6.307   5.298   0.169  0.0137  0.8903 -0.1213
16371TIP3    H170528   6.288   5.363   0.236 -0.4669 -1.5037  2.1440
16371TIP3    H270529   6.222   5.283   0.126 -0.1422  0.7868  0.2251
16372TIP3   OH270530   2.519   3.590  11.785  0.5472  0.2877  0.2056
16372TIP3    H170531   2.429   3.576  11.814  0.8717 -0.1127  1.0315
16372TIP3    H270532   2.572   3.532  11.840  0.9283 -2.5697 -3.0699
16373TIP3   OH270533   1.677   4.415  11.555 -0.0921 -0.2810 -0.9790
16373TIP3    H170534   1.626   4.393  11.633  2.9530 -0.3436  1.0961
16373TIP3    H270535   1.727   4.336  11.536  1.5331  0.7471 -1.0779
16374TIP3   OH270536   3.453   3.034   3.803  0.1660 -0.7842  0.0018
16374TIP3    H170537   3.472   2.953   3.849  1.1135 -0.0735  0.8902
16374TIP3    H270538   3.539   3.074   3.788 -0.3647  0.6935  0.7844
16375TIP3   OH270539   0.579   5.244  13.473 -0.6141  0.5303  0.1457
16375TIP3    H170540   0.621   5.189  13.539 -0.2008 -2.4294 -2.4284
16375TIP3    H270541   0.636   5.320  13.464  2.1888 -1.5498 -0.4978
16376TIP3   OH270542   4.583   1.278   3.009 -0.0452  0.4332 -0.1137
16376TIP3    H170543   4.519   1.295   3.078 -0.3518  0.5070 -0.4177
16376TIP3    H270544   4.579   1.183   2.996  1.4526  0.1374  1.3705
16377TIP3   OH270545   4.010   5.401  12.064  0.3643  0.8684 -0.0629
16377TIP3    H170546   4.072   5.328  12.072  1.0017  1.5201  0.9850
16377TIP3    H270547   3.959   5.380  11.986  0.9690 -0.3834 -0.1320
16378TIP3   OH270548   2.442   1.328   0.265 -0.0041  0.3215 -0.3731
16378TIP3    H170549   2.474   1.307   0.178 -0.4381 -1.1875 -0.1815
16378TIP3    H270550   2.507   1.388   0.302  2.7784 -2.8680  0.1301
16379TIP3   OH270551   6.489   5.845  11.455 -0.1924 -0.7422 -0.4293
16379TIP3    H170552   6.491   5.750  11.469 -1.4786 -0.7484 -0.1799
16379TIP3    H270553   6.507   5.856  11.362 -2.2994 -1.3954 -0.9419
16380TIP3   OH270554   4.917   3.512  12.667 -0.1855 -0.0090 -0.3274
16380TIP3    H170555   4.931   3.560  12.748  0.3688 -1.1663  0.2670
16380TIP3    H270556   5.002   3.475  12.645 -0.4407 -0.1020 -1.1801
16381TIP3   OH270557   2.870   2.961  11.891 -0.2271  0.2658  0.1404
16381TIP3    H170558   2.961   2.938  11.871  0.1788  1.8913  0.0630
16381TIP3    H270559   2.835   2.994  11.808 -0.9948 -0.6686  0.0848
16382TIP3   OH270560   4.530   2.266  14.594 -0.5057  0.5145  0.2507
16382TIP3    H170561   4.570   2.325  14.659 -1.4916  2.1333 -0.5904
16382TIP3    H270562   4.532   2.316  14.512  0.2200 -1.3094 -0.8563
16383TIP3   OH270563   6.444   5.566  13.215  0.2318  0.1512  0.3034
16383TIP3    H170564   6.381   5.583  13.146  0.0914 -2.5178 -0.2559
16383TIP3    H270565   6.392   5.568  13.296 -0.2302 -0.2311  0.0146
16384TIP3   OH270566   5.732   3.522  14.139 -0.3349  0.1507  0.1684
16384TIP3    H170567   5.704   3.469  14.214  0.2936 -1.1769 -0.5128
16384TIP3    H270568   5.819   3.554  14.163 -0.4195  0.2951  0.2837
16385TIP3   OH270569   4.818   5.003  14.579 -0.2916 -0.3826  0.1840
16385TIP3    H170570   4.890   4.941  14.572  0.4275  0.5268 -0.6594
16385TIP3    H270571   4.860   5.089  14.587 -1.2772  0.1034  0.3531
16386TIP3   OH270572   6.787   4.672   4.676  0.6353  0.0863 -0.4552
16386TIP3    H170573   6.875   4.686   4.711  0.3622  2.8893 -0.7689
16386TIP3    H270574   6.735   4.642   4.751  1.4243  0.2564  0.1602
16387TIP3   OH270575   4.183   4.344   5.346  0.1672 -0.8216  0.1074
16387TIP3    H170576   4.128   4.286   5.293  1.3157  0.0155 -2.0515
16387TIP3    H270577   4.230   4.398   5.282  1.8270  0.0017  1.9700
16388TIP3   OH270578   1.195   6.069   1.697 -0.0686 -0.4153  0.0238
16388TIP3    H170579   1.107   6.071   1.660  0.3733  0.9714 -1.0295
16388TIP3    H270580   1.204   6.154   1.741  0.7116 -0.5783  0.1831
16389TIP3   OH270581   1.644   3.358   0.444 -0.0849 -0.9561  0.1612
16389TIP3    H170582   1.695   3.351   0.363  0.4620 -1.5438  0.5449
16389TIP3    H270583   1.572   3.296   0.432 -1.0849  0.3416 -0.6446
16390TIP3   OH270584   2.800   0.611   5.722  0.3439  0.3528 -0.1891
16390TIP3    H170585   2.865   0.622   5.791 -0.2821  1.5621  0.2191
16390TIP3    H270586   2.804   0.692   5.671 -0.9467  0.5188 -0.0576
16391TIP3   OH270587   3.149   1.857  14.676  0.1501  0.1491  0.5545
16391TIP3    H170588   3.243   1.852  14.657  0.1369  0.5142  0.3973
16391TIP3    H270589   3.107   1.814  14.601  0.2079 -0.3508  0.8045
16392TIP3   OH270590   1.584   0.801  10.984  0.5082 -0.4133  0.0883
16392TIP3    H170591   1.587   0.754  10.900 -1.8028  0.9333 -0.7854
16392TIP3    H270592   1.672   0.792  11.019  1.3420 -1.5709 -2.1830
16393TIP3   OH270593   3.690   2.091  13.924  0.1950 -0.4027  0.4752
16393TIP3    H170594   3.647   2.155  13.981 -1.2484  0.6600 -1.7469
16393TIP3    H270595   3.625   2.023  13.910  0.4560 -0.5328 -0.1030
16394TIP3   OH270596   2.452   0.622  16.358 -0.4734  0.3385  0.1370
16394TIP3    H170597   2.488   0.546  16.404  1.0776  0.8852 -0.1474
16394TIP3    H270598   2.367   0.636  16.399  0.2161 -0.1349  1.7700
16395TIP3   OH270599   0.629   5.789  14.717  0.4250  0.3909 -0.3216
16395TIP3    H170600   0.611   5.725  14.786 -0.6563  0.9006 -0.1354
16395TIP3    H270601   0.645   5.735  14.639 -0.7275 -0.0986 -0.2206
16396TIP3   OH270602   0.248   6.565   4.688  0.3500  0.0345 -0.3808
16396TIP3    H170603   0.216   6.627   4.623  1.6417  1.1199  0.0009
16396TIP3    H270604   0.170   6.514   4.713 -0.6763  1.3418 -0.8589
16397TIP3   OH270605   5.161   4.488   5.022 -0.6815  0.0555  0.2373
16397TIP3    H170606   5.155   4.392   5.027  1.1963 -0.0523  0.5223
16397TIP3    H270607   5.183   4.506   4.931 -2.4156  0.3194 -0.1575
16398TIP3   OH270608   1.217   2.764   3.881 -0.3239  0.5507 -0.0604
16398TIP3    H170609   1.213   2.839   3.821 -1.8759 -0.8254 -1.7354
16398TIP3    H270610   1.278   2.703   3.841  0.7738  0.8110  1.1933
16399TIP3   OH270611   4.125   3.600   6.565 -0.0926  0.4033 -0.4009
16399TIP3    H170612   4.213   3.636   6.553 -0.1449  0.3816 -0.8737
16399TIP3    H270613   4.082   3.612   6.480 -0.0356 -0.9661 -0.6422
16400TIP3   OH270614   4.754   5.066  15.703 -0.1368  0.5004  0.8196
16400TIP3    H170615   4.679   5.022  15.665  0.6942 -2.6632  2.7092
16400TIP3    H270616   4.827   5.046  15.644 -0.2563  1.5093  0.3155
16401TIP3   OH270617   3.758   1.166  16.037 -0.2177  0.9038 -0.0662
16401TIP3    H170618   3.694   1.142  15.970  0.1256 -1.1759  0.3006
16401TIP3    H270619   3.719   1.240  16.082 -1.5266  0.8343 -1.0555
16402TIP3   OH270620   0.603   4.783   0.221  0.0481  1.3009  0.2764
16402TIP3    H170621   0.573   4.855   0.276 -0.4476 -0.2531  2.0859
16402TIP3    H270622   0.694   4.770   0.247 -0.8010 -0.8507  2.3534
16403TIP3   OH270623   5.468   2.015   0.445  0.1935 -0.1123  0.4363
16403TIP3    H170624   5.404   1.978   0.383  0.6416 -0.0061 -0.0930
16403TIP3    H270625   5.547   1.964   0.430  0.6616  0.7118  0.0748
16404TIP3   OH270626   0.621   4.751  12.856 -0.2139  0.2140  0.1250
16404TIP3    H170627   0.542   4.702  12.832 -0.7164 -0.0649  2.2772
16404TIP3    H270628   0.605   4.839  12.821 -1.0218 -0.1107 -0.3455
16405TIP3   OH270629   3.720   6.556   4.060 -0.1951  0.4837 -0.5486
16405TIP3    H170630   3.789   6.615   4.090 -0.4578  0.2680  0.5020
16405TIP3    H270631   3.728   6.556   3.965  2.7323 -1.3100 -0.3699
16406TIP3   OH270632   0.959   0.629   2.048  0.3585  0.6210  0.2014
16406TIP3    H170633   0.881   0.671   2.085 -0.0424  0.4243 -0.4060
16406TIP3    H270634   0.997   0.579   2.121  0.1935  1.1149  0.6276
16407TIP3   OH270635   5.294   0.542   1.726  0.3561  0.3134  0.5002
16407TIP3    H170636   5.294   0.463   1.673 -0.2239  1.4063 -1.1432
16407TIP3    H270637   5.283   0.510   1.816 -2.0518 -1.3384 -0.3259
16408TIP3   OH270638   2.523   1.651  11.665 -0.2378 -0.8548 -0.5751
16408TIP3    H170639   2.430   1.650  11.642  0.0158 -0.4960 -1.6262
16408TIP3    H270640   2.531   1.585  11.734 -1.8329  1.2947  1.7628
16409TIP3   OH270641   1.382   4.181   3.409 -0.2396  0.0197 -0.1495
16409TIP3    H170642   1.418   4.101   3.446  1.1088  0.7944  0.2562
16409TIP3    H270643   1.441   4.250   3.439 -2.4420  1.4326  1.0637
16410TIP3   OH270644   0.320   4.484  14.799  0.0178 -0.4780 -0.0867
16410TIP3    H170645   0.252   4.549  14.817  0.0271 -0.3078 -0.6412
16410TIP3    H270646   0.335   4.441  14.883  0.4856  0.6912  0.4408
16411TIP3   OH270647   4.599   5.053   1.615  0.7043 -0.1948  0.3821
16411TIP3    H170648   4.636   5.133   1.578 -1.1209  0.7877  0.5778
16411TIP3    H270649   4.581   5.075   1.707 -2.1150  0.0522 -0.1764
16412TIP3   OH270650   2.406   3.945   2.418 -0.4617 -0.4779  0.2172
16412TIP3    H170651   2.328   3.947   2.474  0.4326 -0.3694  1.4772
16412TIP3    H270652   2.453   4.025   2.439 -1.7605  1.3192 -3.1723
16413TIP3   OH270653   2.201   3.203  11.444  0.8076 -0.0869 -0.1445
16413TIP3    H170654   2.221   3.122  11.397  0.1053 -0.1428 -0.3631
16413TIP3    H270655   2.167   3.262  11.377  0.8794  0.2283  0.0975
16414TIP3   OH270656   3.266   4.955   2.879 -0.0797  0.5388 -0.1398
16414TIP3    H170657   3.245   5.032   2.931 -0.3387  0.1118  0.3931
16414TIP3    H270658   3.245   4.980   2.789 -3.9906 -0.2272  0.4791
16415TIP3   OH270659   0.141   2.164  12.767 -0.3169 -0.5556  0.0643
16415TIP3    H170660   0.189   2.083  12.747  1.6127  0.1694  1.5515
16415TIP3    H270661   0.209   2.227  12.790 -1.8526  1.2655 -0.2415
16416TIP3   OH270662   3.859   6.224   1.515 -0.5566  0.5165 -0.0671
16416TIP3    H170663   3.847   6.176   1.433  0.8012 -0.0364  0.0320
16416TIP3    H270664   3.916   6.297   1.491  1.2041 -0.5791  0.6820
16417TIP3   OH270665   0.639   5.819  10.823  0.0700  0.1271  0.1879
16417TIP3    H170666   0.629   5.851  10.912  1.3286 -0.0436  0.3919
16417TIP3    H270667   0.722   5.771  10.823 -0.6277 -1.1289 -0.6955
16418TIP3   OH270668   1.122   6.589  11.926 -0.1692 -0.0868  0.2792
16418TIP3    H170669   1.133   6.552  12.013  0.2553 -0.3638  0.1098
16418TIP3    H270670   1.210   6.588  11.888 -0.3505  0.0339 -0.1502
16419TIP3   OH270671   4.461   5.443  13.908  0.1019  0.1679 -0.1389
16419TIP3    H170672   4.401   5.504  13.865 -0.0048 -0.2926 -0.6365
16419TIP3    H270673   4.408   5.401  13.976  0.0576  0.2896 -0.0965
16420TIP3   OH270674   5.317   3.966   0.096  0.6037  0.1113 -0.3253
16420TIP3    H170675   5.343   4.056   0.117 -1.2858  0.2230  1.7513
16420TIP3    H270676   5.274   3.973   0.011 -1.1845  1.5279  0.6474
16421TIP3   OH270677   4.746   4.623  15.552  0.4782  0.1631 -0.3889
16421TIP3    H170678   4.694   4.551  15.516 -0.0411 -0.1102  0.8713
16421TIP3    H270679   4.729   4.697  15.494  1.0255 -0.7249 -1.6994
16422TIP3   OH270680   4.709   0.721   5.247 -0.3160 -0.0302  0.5765
16422TIP3    H170681   4.713   0.760   5.334  2.4370 -0.1561  0.5321
16422TIP3    H270682   4.756   0.782   5.191 -0.9683 -0.5862 -0.6118
16423TIP3   OH270683   5.774   1.331   0.926  0.0214  0.0980  0.1151
16423TIP3    H170684   5.770   1.236   0.917 -2.7564  0.2256 -0.3600
16423TIP3    H270685   5.751   1.365   0.839  1.5925  1.2209  0.1076
16424TIP3   OH270686   6.659   2.164   2.673  0.2236  0.4539  0.0198
16424TIP3    H170687   6.667   2.242   2.728  0.5269  0.3469  0.1287
16424TIP3    H270688   6.568   2.166   2.642  0.3988  1.1708 -0.4588
16425TIP3   OH270689   1.271   1.579  11.903 -0.5168  0.0917  0.0526
16425TIP3    H170690   1.358   1.586  11.865 -1.2490 -0.1960 -1.7569
16425TIP3    H270691   1.257   1.663  11.949 -0.1629  1.0552 -1.5675
16426TIP3   OH270692   0.094   3.856  16.166  0.4352  0.7488 -0.6281
16426TIP3    H170693   0.124   3.768  16.144 -2.7458 -0.3180 -0.9445
16426TIP3    H270694   0.022   3.843  16.227 -0.0122  3.1410 -0.5816
16427TIP3   OH270695   3.372   5.992   1.175  0.6626 -0.4855  0.1015
16427TIP3    H170696   3.426   6.049   1.120  0.0307  0.1671  0.1473
16427TIP3    H270697   3.342   5.923   1.116 -2.5317  1.8842 -1.1829
16428TIP3   OH270698   3.004   6.678   1.938  0.2063 -0.7000  0.3854
16428TIP3    H170699   2.967   6.727   1.865  0.2410 -0.5051  0.4994
16428TIP3    H270700   3.067   6.619   1.897  1.0341  0.1864  0.3707
16429TIP3   OH270701   5.182   4.908   0.295 -0.5473  0.2574 -0.2109
16429TIP3    H170702   5.187   4.887   0.388 -2.0742 -0.1796 -0.2144
16429TIP3    H270703   5.118   4.846   0.260 -0.5403  0.9118 -1.4084
16430TIP3   OH270704   1.955   0.573   1.975  0.4600  0.2449 -0.3116
16430TIP3    H170705   1.885   0.605   2.032  0.4845 -1.3831  0.6535
16430TIP3    H270706   2.027   0.553   2.035  1.1100  0.1700 -1.1112
16431TIP3   OH270707   5.289   0.736   1.546  0.6858 -0.1352  0.0414
16431TIP3    H170708   5.256   0.655   1.584  2.9911 -0.3076  1.7560
16431TIP3    H270709   5.217   0.798   1.558 -0.0308 -1.1858  1.3196
16432TIP3   OH270710   5.607   4.894   6.194  0.1290  0.5911  0.2141
16432TIP3    H170711   5.547   4.831   6.154  1.6940 -1.6161  1.2502
16432TIP3    H270712   5.557   4.933   6.265 -0.8063  0.3937 -0.3322
16433TIP3   OH270713   4.239   5.312   2.475  0.3993 -0.4800  0.2269
16433TIP3    H170714   4.251   5.265   2.392  0.5992 -0.2098  0.1019
16433TIP3    H270715   4.146   5.303   2.495  0.3927 -0.7274  0.0808
16434TIP3   OH270716   0.414   3.972  17.201 -0.0244 -0.4359  0.1411
16434TIP3    H170717   0.444   3.994  17.289 -0.8165  2.8844 -0.3398
16434TIP3    H270718   0.347   3.906  17.214  1.3142 -1.4972  1.8593
16435TIP3   OH270719   6.327   5.566  16.222 -0.2125  0.3509 -0.8750
16435TIP3    H170720   6.308   5.634  16.287  2.5750  0.8806 -0.5381
16435TIP3    H270721   6.386   5.609  16.160 -0.0266 -1.1924 -1.7892
16436TIP3   OH270722   0.987   1.891  13.235 -0.4190  0.0211  0.3229
16436TIP3    H170723   1.079   1.900  13.209  0.1638 -1.0528  1.9677
16436TIP3    H270724   0.939   1.931  13.163  1.2214 -1.4763 -1.6832
16437TIP3   OH270725   5.745   5.242  12.931 -0.1032  0.4019 -0.2154
16437TIP3    H170726   5.673   5.183  12.910 -0.2162  0.8540 -1.1239
16437TIP3    H270727   5.772   5.278  12.846 -1.4185  3.2603  0.5554
16438TIP3   OH270728   3.907   2.978  11.598  0.4357  0.1570  0.4224
16438TIP3    H170729   3.989   2.988  11.648  0.8197 -1.2475  0.0777
16438TIP3    H270730   3.932   2.930  11.520 -1.0603 -2.0222  1.2325
16439TIP3   OH270731   4.600   6.203  15.541  0.0572  0.6120  0.4112
16439TIP3    H170732   4.628   6.284  15.583 -0.6669  0.2579  1.6069
16439TIP3    H270733   4.598   6.138  15.612 -1.8476  0.1738 -0.0122
16440TIP3   OH270734   5.804   6.709  13.055  0.1882  0.6388  0.1589
16440TIP3    H170735   5.826   6.724  13.147 -0.0772  1.8239  0.0294
16440TIP3    H270736   5.792   6.796  13.018  0.8406  0.1880 -1.1415
16441TIP3   OH270737   3.133   0.820   1.487  0.3239  0.2452  0.7144
16441TIP3    H170738   3.208   0.812   1.428 -0.9286  0.5623 -0.9419
16441TIP3    H270739   3.156   0.765   1.562  0.6385 -2.5607 -1.3786
16442TIP3   OH270740   0.922   6.210  13.071  0.0633  0.0376 -0.9308
16442TIP3    H170741   0.887   6.283  13.021  0.4953  0.3827 -0.7335
16442TIP3    H270742   1.002   6.186  13.026 -0.2170 -0.4921 -1.1495
16443TIP3   OH270743   5.015   3.530  10.684 -0.0837  0.4809 -0.1878
16443TIP3    H170744   4.983   3.612  10.722 -0.6318 -0.2180  0.9175
16443TIP3    H270745   5.081   3.556  10.620  0.9618  1.7129  1.3617
16444TIP3   OH270746   0.917   4.682  12.611 -0.3213  0.4260  0.3743
16444TIP3    H170747   0.836   4.632  12.597 -0.1745  0.8849 -2.3273
16444TIP3    H270748   0.890   4.774  12.609  0.4472  0.6233 -1.9962
16445TIP3   OH270749   6.420   0.976  16.957 -0.3587  0.7911 -0.6083
16445TIP3    H170750   6.440   1.068  16.969 -1.1150  0.8187  0.5749
16445TIP3    H270751   6.392   0.946  17.044  1.7452 -1.0197 -0.4904
16446TIP3   OH270752   6.235   0.352  13.841  0.0209  0.8426 -0.1185
16446TIP3    H170753   6.286   0.307  13.909 -0.7670  0.4318  0.1985
16446TIP3    H270754   6.273   0.441  13.839  0.0015  0.8809  0.9102
16447TIP3   OH270755   2.677   0.335   4.646  0.0018 -0.7825 -0.5670
16447TIP3    H170756   2.606   0.344   4.709  1.3186 -3.0140  1.3218
16447TIP3    H270757   2.716   0.423   4.642 -1.8842  0.0773 -0.4653
16448TIP3   OH270758   5.072   1.224  15.038  0.1706  0.2381 -0.2098
16448TIP3    H170759   5.151   1.279  15.039  0.3325 -0.0091  0.6769
16448TIP3    H270760   5.022   1.256  14.963  0.8731  0.7400 -0.4720
16449TIP3   OH270761   2.674   2.633   1.725 -0.0383  0.1086 -0.5348
16449TIP3    H170762   2.608   2.685   1.682  0.2516  1.7935  1.0088
16449TIP3    H270763   2.635   2.608   1.809  1.7560  2.3738  1.0504
16450TIP3   OH270764   2.043   1.021   3.893  0.8794  0.7511  0.0488
16450TIP3    H170765   1.988   0.943   3.885  0.0138  1.1774  1.5870
16450TIP3    H270766   2.132   0.988   3.897  0.7336  0.0266 -2.2241
16451TIP3   OH270767   5.650   1.685   4.791  0.3504  0.0065  0.2205
16451TIP3    H170768   5.582   1.746   4.821  1.3295  1.4871 -0.5381
16451TIP3    H270769   5.725   1.740   4.772  1.9988 -1.6966  1.6480
16452TIP3   OH270770   0.010   0.678  13.420  0.6179 -0.0209 -0.0872
16452TIP3    H170771   0.064   0.605  13.390  0.5662  0.0806 -0.4313
16452TIP3    H270772   0.009   0.739  13.346  0.1517  0.0438 -0.0314
16453TIP3   OH270773   4.665   2.942  16.266  0.7760 -0.2417 -0.0575
16453TIP3    H170774   4.758   2.946  16.287  1.4336 -1.1079 -2.6346
16453TIP3    H270775   4.649   3.019  16.212 -0.3040  0.5573  1.3523
16454TIP3   OH270776   1.916   0.283   2.282  0.0457 -0.1284 -0.3401
16454TIP3    H170777   1.856   0.283   2.208  0.6894  0.2419 -0.8774
16454TIP3    H270778   1.860   0.284   2.359 -0.6358 -0.9115 -0.8182
16455TIP3   OH270779   1.754   3.523  10.434  0.7995  0.1806 -0.2110
16455TIP3    H170780   1.838   3.546  10.473  1.6106  0.5945 -2.1470
16455TIP3    H270781   1.765   3.542  10.341 -0.8998 -1.3165 -0.7378
16456TIP3   OH270782   0.819   0.427  15.671 -0.2729  0.1717 -0.7097
16456TIP3    H170783   0.798   0.454  15.761 -0.6643  0.5213 -0.9075
16456TIP3    H270784   0.860   0.341  15.682 -0.1426  0.2943 -0.1792
16457TIP3   OH270785   2.372   0.931  16.047  0.1147 -0.0426 -0.0515
16457TIP3    H170786   2.359   0.981  15.966  0.8015  0.1491 -0.0448
16457TIP3    H270787   2.287   0.891  16.064 -0.1932  0.3951 -0.5518
16458TIP3   OH270788   3.188   4.248   2.420 -0.3333  0.6726  0.0535
16458TIP3    H170789   3.098   4.273   2.403 -0.5942 -0.4450 -0.2018
16458TIP3    H270790   3.187   4.216   2.511 -0.4061 -0.3164 -0.2908
16459TIP3   OH270791   0.677   4.214  14.476  0.3850 -0.4594  0.0014
16459TIP3    H170792   0.589   4.239  14.505  0.9550  1.9154 -0.1923
16459TIP3    H270793   0.663   4.179  14.387 -0.3686 -0.1823  0.0032
16460TIP3   OH270794   0.574   2.151  12.711  0.5262 -0.0617  0.1331
16460TIP3    H170795   0.545   2.196  12.790  1.5169  1.3227 -0.2780
16460TIP3    H270796   0.502   2.162  12.649  0.6574  0.7572  0.1184
16461TIP3   OH270797   1.378   3.999  14.280 -0.7116  0.1147 -0.2186
16461TIP3    H170798   1.400   3.958  14.197 -0.9977  1.9994 -1.2506
16461TIP3    H270799   1.458   3.995  14.332 -0.3386 -0.4547 -0.8461
16462TIP3   OH270800   6.364   4.267   2.932  0.5198  0.6341  0.4591
16462TIP3    H170801   6.312   4.311   2.999  0.0562  0.4006  0.2550
16462TIP3    H270802   6.454   4.272   2.964  0.2268 -0.0264  1.3972
16463TIP3   OH270803   3.864   0.356  13.066 -0.0746  0.2106  0.7943
16463TIP3    H170804   3.784   0.338  13.017 -0.0680  0.5205  0.6677
16463TIP3    H270805   3.935   0.332  13.007 -0.0821 -0.6025  1.1176
16464TIP3   OH270806   1.689   0.381   1.854 -0.0616  0.0223  0.4430
16464TIP3    H170807   1.619   0.445   1.839  0.3701 -0.1243 -2.6853
16464TIP3    H270808   1.759   0.431   1.897  0.7468  2.0642 -3.0365
16465TIP3   OH270809   6.631   4.494  14.115  0.3460  0.3297  0.1876
16465TIP3    H170810   6.676   4.519  14.196  2.3463 -1.3910 -0.3292
16465TIP3    H270811   6.663   4.556  14.050 -1.6428  2.0237  0.7971
16466TIP3   OH270812   5.209   6.131   3.569 -0.4240  0.8117  0.2401
16466TIP3    H170813   5.161   6.183   3.634 -0.9852 -0.6842  1.0539
16466TIP3    H270814   5.151   6.058   3.550  0.6964  0.0483 -0.2766
16467TIP3   OH270815   6.543   3.927   5.537  0.0029 -0.3296  0.1852
16467TIP3    H170816   6.568   3.883   5.618  1.1509 -0.9096 -0.4701
16467TIP3    H270817   6.486   3.864   5.493  1.6205 -1.1767 -0.7386
16468TIP3   OH270818   6.150   1.616  10.605 -0.1754  0.2428  1.2084
16468TIP3    H170819   6.243   1.605  10.584 -0.2857  1.6312 -0.0790
16468TIP3    H270820   6.149   1.675  10.680 -0.0134 -0.1979  1.5647
16469TIP3   OH270821   6.480   5.553  12.862  0.3640  0.1245  0.3585
16469TIP3    H170822   6.557   5.573  12.807  0.0501 -0.7107 -0.3983
16469TIP3    H270823   6.515   5.499  12.933  0.5660  0.1675  0.2936
16470TIP3   OH270824   4.888   5.834  15.198 -0.0727  0.7366  0.4142
16470TIP3    H170825   4.979   5.821  15.226  0.7283  1.5053 -1.7457
16470TIP3    H270826   4.851   5.746  15.196  1.3424  0.1562 -1.0494
16471TIP3   OH270827   2.907   1.221  14.855 -0.3326  0.3358 -0.3080
16471TIP3    H170828   2.857   1.168  14.793 -0.8125 -0.4574  0.7452
16471TIP3    H270829   2.862   1.210  14.938  0.2772  1.4395  0.1837
16472TIP3   OH270830   6.289   5.928   5.104 -0.1282 -0.5444 -0.5046
16472TIP3    H170831   6.308   5.917   5.011 -1.5671  0.7408 -0.9741
16472TIP3    H270832   6.327   6.013   5.127  1.1077 -1.3037  0.3464
16473TIP3   OH270833   4.434   4.767  17.122  0.3227 -0.5956 -0.1671
16473TIP3    H170834   4.446   4.685  17.074 -0.6108 -0.2825 -0.9541
16473TIP3    H270835   4.522   4.789  17.153  0.9837 -0.7333 -1.8694
16474TIP3   OH270836   5.086   1.083   2.526 -0.1924  0.7334 -0.0339
16474TIP3    H170837   5.076   1.039   2.441  1.8011  1.3434 -0.5980
16474TIP3    H270838   5.080   1.012   2.590 -0.1728  0.0721 -0.7560
16475TIP3   OH270839   1.114   3.898  14.233  0.0726  0.2018  0.6398
16475TIP3    H170840   1.118   3.803  14.244 -1.3163  0.2060  1.3327
16475TIP3    H270841   1.045   3.912  14.168 -0.2832  0.7613  1.1263
16476TIP3   OH270842   4.314   1.417  12.525  0.3096 -0.5872  0.2701
16476TIP3    H170843   4.406   1.430  12.503  0.1987 -0.0088  0.1370
16476TIP3    H270844   4.312   1.420  12.621  0.2349  0.8010  0.2387
16477TIP3   OH270845   0.317   6.055   4.515 -0.4749  0.5745  0.0596
16477TIP3    H170846   0.407   6.057   4.483 -0.5481  0.2623 -0.1760
16477TIP3    H270847   0.319   5.991   4.587 -0.6582  0.0159 -0.4271
16478TIP3   OH270848   1.259   3.345   3.781 -0.2618  0.2138 -0.6488
16478TIP3    H170849   1.312   3.278   3.825 -0.5071 -2.1392 -3.7354
16478TIP3    H270850   1.321   3.412   3.755  0.3336  0.1476  0.5791
16479TIP3   OH270851   0.188   5.911   3.664 -0.1689 -0.0551  0.1750
16479TIP3    H170852   0.209   5.988   3.612 -0.6784 -0.2323 -0.2964
16479TIP3    H270853   0.273   5.871   3.683 -0.0767 -0.9396 -1.9853
16480TIP3   OH270854   0.055   0.426  12.517  0.0646 -0.0365 -0.3082
16480TIP3    H170855  -0.003   0.363  12.474 -0.3422 -0.8688  1.4048
16480TIP3    H270856   0.077   0.489  12.449 -2.3822 -0.0484 -1.1471
16481TIP3   OH270857   4.554   3.394  13.519  0.6428  0.1686 -0.1117
16481TIP3    H170858   4.583   3.407  13.428  3.4666  0.8287  0.8377
16481TIP3    H270859   4.537   3.300  13.526 -2.0359  0.4360 -1.9557
16482TIP3   OH270860   2.747   4.760   1.724 -0.8921  0.4789  0.1961
16482TIP3    H170861   2.661   4.717   1.731 -1.3380  1.0732 -1.4113
16482TIP3    H270862   2.798   4.703   1.667 -0.8355  1.0859 -0.3615
16483TIP3   OH270863   5.875   4.688  16.325 -0.2261 -0.1416 -0.2536
16483TIP3    H170864   5.952   4.740  16.348 -0.0987  0.4586 -1.9400
16483TIP3    H270865   5.876   4.614  16.386 -0.2523  1.6545  1.9983
16484TIP3   OH270866   6.741   2.467  17.169 -0.2674  0.0999  0.6180
16484TIP3    H170867   6.799   2.450  17.095 -0.7531  0.4274  0.1617
16484TIP3    H270868   6.674   2.399  17.162 -0.8579  0.7244  0.1915
16485TIP3   OH270869   3.632   1.685   2.018  0.6744 -0.8268 -0.2580
16485TIP3    H170870   3.660   1.623   2.085  0.8355 -1.3533 -0.8074
16485TIP3    H270871   3.597   1.630   1.947 -3.6979 -0.1826  1.2328
16486TIP3   OH270872   1.028   2.059   3.860 -0.4352 -0.0568 -0.0092
16486TIP3    H170873   0.963   2.006   3.906 -1.0685  0.3220 -0.4624
16486TIP3    H270874   0.989   2.146   3.853 -0.9128 -0.4068 -2.3532
16487TIP3   OH270875   2.459   6.557  11.219  0.3238  0.6953 -0.2503
16487TIP3    H170876   2.547   6.594  11.205  0.5015  0.8211  1.1663
16487TIP3    H270877   2.428   6.598  11.300 -0.4859 -0.3954 -0.0016
16488TIP3   OH270878   5.877   4.132   4.013  0.3616 -0.1326  0.2623
16488TIP3    H170879   5.897   4.062   3.950 -0.0893 -1.9374  2.0597
16488TIP3    H270880   5.893   4.092   4.098 -2.4278  1.1346  1.4375
16489TIP3   OH270881   4.870   3.993   3.225 -0.1292 -0.0323 -0.8261
16489TIP3    H170882   4.788   3.993   3.176 -1.1480  0.6860  0.8459
16489TIP3    H270883   4.860   4.065   3.287  0.7048 -1.6089  1.1539
16490TIP3   OH270884   2.139   4.148  12.107  0.2512 -0.4052  0.1891
16490TIP3    H170885   2.131   4.162  12.013 -3.2730  0.6588  0.5706
16490TIP3    H270886   2.169   4.233  12.141 -0.0316 -0.3166  0.2132
16491TIP3   OH270887   0.943   2.080   2.192 -0.8477  0.1264  0.3866
16491TIP3    H170888   0.965   2.119   2.108 -0.3813  0.4540  0.6597
16491TIP3    H270889   1.026   2.071   2.238 -1.0856 -0.1377  0.7776
16492TIP3   OH270890   1.379   0.434   4.009  0.2568  0.0447 -0.0247
16492TIP3    H170891   1.317   0.378   3.963  0.3371  0.3561 -0.5225
16492TIP3    H270892   1.325   0.484   4.070  0.1746 -0.5087  0.3508
16493TIP3   OH270893   2.041   3.933   3.683  0.4275 -0.3648  0.2840
16493TIP3    H170894   1.989   3.901   3.757 -0.0510 -0.3779 -0.0634
16493TIP3    H270895   2.099   3.859   3.662 -1.9326 -1.7080 -1.6995
16494TIP3   OH270896   6.428   1.540   4.273  0.6241 -0.2259 -0.4286
16494TIP3    H170897   6.389   1.588   4.200 -2.2234 -1.6820  0.0439
16494TIP3    H270898   6.477   1.606   4.322  0.4929  1.2603 -2.2742
16495TIP3   OH270899   2.697   5.801   2.083 -0.0333  0.5734 -0.1600
16495TIP3    H170900   2.742   5.812   2.000 -0.7767  2.3559 -0.3551
16495TIP3    H270901   2.610   5.768   2.059  0.4328 -0.8435  0.0639
16496TIP3   OH270902   2.576   0.535   1.386  0.1163 -0.2664 -1.0419
16496TIP3    H170903   2.653   0.582   1.355  0.4094  0.4046  0.6524
16496TIP3    H270904   2.504   0.598   1.379  0.3073  0.0920  0.2524
16497TIP3   OH270905   5.701   1.936   2.529  0.6910 -0.3436  0.2945
16497TIP3    H170906   5.704   2.006   2.595  0.3085 -0.2590  0.2248
16497TIP3    H270907   5.791   1.905   2.523  0.8011 -0.0831  0.5723
16498TIP3   OH270908   1.546   2.790   5.003 -0.4263 -0.3197  0.0836
16498TIP3    H170909   1.461   2.831   5.017 -0.6248 -0.6598 -0.1091
16498TIP3    H270910   1.552   2.779   4.908 -0.0623 -0.0757  0.0795
16499TIP3   OH270911   2.870   4.293  16.931  0.3321  0.0510 -0.3400
16499TIP3    H170912   2.790   4.309  16.881  1.3401  0.2719 -1.9329
16499TIP3    H270913   2.868   4.199  16.948  0.6370 -0.2824 -2.0149
16500TIP3   OH270914   5.588   0.883  10.892  0.5136  0.1467  0.2775
16500TIP3    H170915   5.562   0.927  10.973  2.4722  0.4397  0.7736
16500TIP3    H270916   5.535   0.803  10.890 -1.7993  1.6500  0.2417
16501TIP3   OH270917   0.039   5.198   0.366  0.3007  0.4037  0.4516
16501TIP3    H170918   0.026   5.217   0.273  1.0550  1.4044  0.5502
16501TIP3    H270919  -0.048   5.206   0.404 -0.0496 -0.2263 -0.2064
16502TIP3   OH270920   0.302   5.670   3.165  0.1181  0.2309  0.2280
16502TIP3    H170921   0.357   5.634   3.095  1.7924  0.4109  1.4040
16502TIP3    H270922   0.318   5.764   3.162 -0.6419  0.3586  0.1563
16503TIP3   OH270923   5.651   1.031   4.538  0.0785 -0.5686  0.2878
16503TIP3    H170924   5.632   1.038   4.444 -0.0897 -2.2803  0.1652
16503TIP3    H270925   5.582   1.081   4.581 -0.3512 -0.5083 -0.4681
16504TIP3   OH270926   3.502   5.004   3.364 -0.4583  0.5443 -0.0377
16504TIP3    H170927   3.456   5.064   3.305  0.3677  1.6716  0.4367
16504TIP3    H270928   3.582   5.051   3.388  0.4290 -0.9430  0.0008
16505TIP3   OH270929   0.180   1.848  15.435  0.2584  0.0702  0.0675
16505TIP3    H170930   0.163   1.826  15.344 -2.7280 -1.6435  0.9427
16505TIP3    H270931   0.143   1.936  15.446  1.6888  0.7687 -0.6316
16506TIP3   OH270932   1.382   3.002  16.079 -0.1191  0.1377  0.3855
16506TIP3    H170933   1.407   3.093  16.066  1.5053 -0.3539 -0.0899
16506TIP3    H270934   1.415   2.957  16.000  0.9772 -1.2090  1.5808
16507TIP3   OH270935   4.921   5.803   1.204 -0.2367  0.9273  0.4194
16507TIP3    H170936   4.976   5.882   1.208 -1.4711  1.7408  2.0187
16507TIP3    H270937   4.938   5.767   1.117  1.7963  1.9037  0.3757
16508TIP3   OH270938   4.565   1.841  16.133  0.2616  0.6293 -0.9398
16508TIP3    H170939   4.636   1.793  16.176  1.3867  3.0072 -0.0820
16508TIP3    H270940   4.565   1.807  16.043  1.8862 -0.0870 -0.7007
16509TIP3   OH270941   6.105   6.174  12.740  0.6638 -0.0526  0.1026
16509TIP3    H170942   6.095   6.256  12.693  1.5724 -0.1765 -0.3157
16509TIP3    H270943   6.179   6.130  12.697  2.2366  0.3369  2.3652
16510TIP3   OH270944   2.623   6.016  12.008 -0.1946  0.1206  0.5165
16510TIP3    H170945   2.586   5.967  12.081 -1.5934  0.9226  0.3600
16510TIP3    H270946   2.550   6.028  11.947  1.0095 -0.7699 -1.1541
16511TIP3   OH270947   6.223   4.636  15.948 -0.1904 -0.4147 -0.3289
16511TIP3    H170948   6.147   4.642  15.889 -0.1424 -0.5467 -0.4042
16511TIP3    H270949   6.260   4.724  15.948  0.7578 -0.7941 -1.7654
16512TIP3   OH270950   3.628   2.243   4.148  0.2469 -0.2200 -0.9782
16512TIP3    H170951   3.562   2.304   4.181  0.5371  0.3990 -1.5397
16512TIP3    H270952   3.585   2.157   4.153  0.4609 -0.2193  1.4618
16513TIP3   OH270953   2.370   5.074   4.084 -0.0772 -0.1749  0.2509
16513TIP3    H170954   2.343   4.987   4.114  1.4618 -0.2791  1.4492
16513TIP3    H270955   2.436   5.101   4.149  0.4357  1.3054 -0.8748
16514TIP3   OH270956   3.634   5.124   5.577 -0.0033  0.1573 -0.3603
16514TIP3    H170957   3.542   5.142   5.595 -0.3298 -1.6883 -0.0892
16514TIP3    H270958   3.679   5.148   5.659 -0.0947  1.9043 -0.7920
16515TIP3   OH270959   4.907   6.104   1.681  0.0108  0.1001 -0.1018
16515TIP3    H170960   4.970   6.128   1.613  0.7801 -3.1348 -0.5839
16515TIP3    H270961   4.903   6.181   1.738  3.6854  0.7468 -0.6186
16516TIP3   OH270962   0.382   3.478  12.783  0.2339 -0.0282  0.3106
16516TIP3    H170963   0.413   3.387  12.780 -1.9875 -0.7991  0.2196
16516TIP3    H270964   0.404   3.513  12.696 -0.5263 -1.0284 -0.2957
16517TIP3   OH270965   6.042   0.349  15.371 -0.1035 -0.2057  0.4506
16517TIP3    H170966   6.110   0.412  15.347 -1.2085  0.7417 -0.2711
16517TIP3    H270967   6.065   0.270  15.322  0.0696  0.3522 -0.3890
16518TIP3   OH270968   2.329   1.170   2.036 -0.2741 -0.4032  1.0456
16518TIP3    H170969   2.299   1.144   2.124 -3.7370  1.1711  0.3854
16518TIP3    H270970   2.284   1.110   1.977  0.2819 -0.0003  0.2091
16519TIP3   OH270971   2.257   4.484  12.749 -0.2208 -0.1798  0.2899
16519TIP3    H170972   2.212   4.449  12.673 -2.2422  0.4695  1.1399
16519TIP3    H270973   2.349   4.462  12.735 -0.9002 -2.3435 -1.0674
16520TIP3   OH270974   0.329   4.400  13.086 -0.0556 -0.7372  0.6957
16520TIP3    H170975   0.270   4.334  13.122  0.8624 -1.8211  0.2371
16520TIP3    H270976   0.412   4.354  13.072  0.1728  0.1379 -0.9915
16521TIP3   OH270977   5.317   3.866   5.144  0.0424  0.2160 -0.6925
16521TIP3    H170978   5.289   3.921   5.217  0.2987  1.7679 -1.7486
16521TIP3    H270979   5.367   3.924   5.087 -0.8537 -0.7571 -2.5341
16522TIP3   OH270980   3.311   5.951  12.817 -0.0166  0.0299 -0.0483
16522TIP3    H170981   3.250   5.984  12.882  0.0801  0.7651 -0.3336
16522TIP3    H270982   3.257   5.932  12.740 -0.1527 -0.9651  0.2773
16523TIP3   OH270983   5.623   1.291  12.139 -0.4967 -0.6897  0.1547
16523TIP3    H170984   5.706   1.316  12.180 -0.2234 -0.2022 -0.6781
16523TIP3    H270985   5.630   1.325  12.050 -0.9923 -1.9182 -0.3613
16524TIP3   OH270986   2.650   3.845  13.483  0.3616  0.0296 -0.3137
16524TIP3    H170987   2.605   3.823  13.564  0.9818  1.0939  0.3275
16524TIP3    H270988   2.700   3.924  13.503  2.2944 -0.9499 -1.0929
16525TIP3   OH270989   2.267   4.660   3.526 -0.1695 -0.3108  0.1931
16525TIP3    H170990   2.360   4.636   3.532  0.7308  2.6882 -1.0812
16525TIP3    H270991   2.243   4.640   3.435 -0.3900  0.2354  0.1328
16526TIP3   OH270992   0.074   5.247  12.168  0.2980 -0.5546 -0.4523
16526TIP3    H170993   0.102   5.317  12.108  2.6034 -0.5523  0.5924
16526TIP3    H270994   0.078   5.168  12.115  1.3323 -0.4077 -0.6035
16527TIP3   OH270995   1.654   3.073   3.319  0.6058  0.1549  0.1543
16527TIP3    H170996   1.675   3.053   3.228 -1.5170  0.0444 -0.3402
16527TIP3    H270997   1.569   3.115   3.315 -0.7294 -2.2009  2.2768
16528TIP3   OH270998   1.062   5.229   0.534 -0.1071 -0.1158  0.3467
16528TIP3    H170999   1.010   5.301   0.570  0.0473 -0.0906  0.5181
16528TIP3    H271000   1.136   5.221   0.594  0.7049  0.6203 -0.5550
16529TIP3   OH271001   6.155   0.359   4.833 -0.3258  0.0694  0.5690
16529TIP3    H171002   6.156   0.436   4.776  0.5635 -1.0796 -0.9986
16529TIP3    H271003   6.241   0.359   4.874  1.0889 -2.0747 -2.2163
16530TIP3   OH271004   2.402   4.825   3.919  0.6864  0.0542  0.4905
16530TIP3    H171005   2.458   4.888   3.964  2.9798 -1.8081  0.3078
16530TIP3    H271006   2.323   4.820   3.973  1.4513  1.3165  1.7530
16531TIP3   OH271007   5.877   4.581   1.989 -0.1984 -0.1209  0.1326
16531TIP3    H171008   5.828   4.530   2.054 -1.4790 -0.9080 -1.4040
16531TIP3    H271009   5.968   4.556   2.003 -0.5531 -0.9447  1.0502
16532TIP3   OH271010   2.441   0.274   3.701 -0.0125 -0.0746 -0.0102
16532TIP3    H171011   2.467   0.228   3.781 -0.9852  2.6698  1.9548
16532TIP3    H271012   2.510   0.339   3.687 -1.4386  1.5383  0.3835
16533TIP3   OH271013   5.276   2.903  12.936  0.5567 -0.8184 -0.0876
16533TIP3    H171014   5.308   2.966  13.000 -0.7824 -1.1790  0.9558
16533TIP3    H271015   5.297   2.942  12.851 -0.3189  1.0951  0.5402
16534TIP3   OH271016   6.293   1.401   3.971  0.4175  0.4248  0.0815
16534TIP3    H171017   6.374   1.411   3.923  0.6350 -1.1824  0.0813
16534TIP3    H271018   6.250   1.487   3.965  1.5289  0.9164 -0.9537
16535TIP3   OH271019   6.550   3.382   6.414  0.0540  0.6320 -0.2595
16535TIP3    H171020   6.608   3.454   6.438  0.3129 -0.0279  1.1364
16535TIP3    H271021   6.606   3.320   6.368  0.1867  0.5842 -0.0352
16536TIP3   OH271022   5.222   3.556   2.620 -0.6442 -0.4730 -0.3285
16536TIP3    H171023   5.310   3.553   2.657 -1.2300 -0.3775  1.1035
16536TIP3    H271024   5.181   3.633   2.661 -1.5067 -0.6971 -0.7442
16537TIP3   OH271025   0.032   5.664   5.504  0.1807  0.3079 -0.3128
16537TIP3    H171026   0.110   5.684   5.452  0.0026 -2.4662 -1.7648
16537TIP3    H271027  -0.036   5.718   5.466  0.6525  0.2464 -1.2666
16538TIP3   OH271028   1.089   3.872   0.510  0.3364  0.1061  0.2203
16538TIP3    H171029   1.041   3.925   0.446 -0.3883 -0.6966  0.0988
16538TIP3    H271030   1.090   3.926   0.589 -2.1264 -0.5028  0.7003
16539TIP3   OH271031   5.554   6.018   4.596 -0.0695  0.3127  0.4301
16539TIP3    H171032   5.497   5.942   4.611 -1.5496  0.9002 -1.9000
16539TIP3    H271033   5.599   5.998   4.514 -0.4377  1.9323 -0.1775
16540TIP3   OH271034   1.636   1.823  11.439 -0.4816  0.2612  0.0552
16540TIP3    H171035   1.676   1.886  11.499  0.3939  0.5887 -0.8568
16540TIP3    H271036   1.579   1.876  11.382 -0.9627  0.0150  0.3047
16541TIP3   OH271037   6.631   3.325   3.156 -0.4151 -0.5037  0.4425
16541TIP3    H171038   6.671   3.242   3.131 -0.2655 -0.2555 -0.1676
16541TIP3    H271039   6.630   3.325   3.251 -1.1134 -1.5428  0.4418
16542TIP3   OH271040   6.305   3.462  12.832 -0.1046  0.5467 -0.0687
16542TIP3    H171041   6.229   3.490  12.884 -2.0981 -2.3013 -1.3242
16542TIP3    H271042   6.328   3.377  12.869  2.0280  1.0267 -0.2427
16543TIP3   OH271043   0.778   0.086   2.030  0.6472 -0.1460  0.3435
16543TIP3    H171044   0.724   0.120   1.959 -1.6272 -1.5583  1.3011
16543TIP3    H271045   0.828   0.015   1.990  2.4355  1.6793 -0.7365
16544TIP3   OH271046   3.217   5.177   0.870 -0.3533 -1.2013  0.1282
16544TIP3    H171047   3.302   5.134   0.861  0.5571  0.2868  1.5386
16544TIP3    H271048   3.223   5.253   0.812 -0.1602 -0.2720  1.3463
16545TIP3   OH271049   1.212   5.102   0.005  0.2354 -0.4956  0.4343
16545TIP3    H171050   1.199   5.105   0.100 -0.5210 -0.2543  0.3267
16545TIP3    H271051   1.148   5.038  -0.026  1.2541 -1.4207  0.2078
16546TIP3   OH271052   4.743   0.163  14.919  0.2576 -0.0099  0.3476
16546TIP3    H171053   4.757   0.090  14.858 -2.0844 -0.0841 -0.1762
16546TIP3    H271054   4.707   0.233  14.864 -0.2147  0.5298  1.3331
16547TIP3   OH271055   2.808   1.346   4.927  0.1148  0.3196 -0.6779
16547TIP3    H171056   2.824   1.438   4.906 -1.0344  0.6309 -0.2257
16547TIP3    H271057   2.787   1.306   4.842  1.3082  0.3155 -0.9803
16548TIP3   OH271058   6.377   1.026  15.849  0.3701  0.0115 -0.2563
16548TIP3    H171059   6.284   1.002  15.844  0.3664  0.0640 -0.4639
16548TIP3    H271060   6.420   0.948  15.882 -0.0147  0.6356  1.8430
16549TIP3   OH271061   2.632   4.899  13.819  0.0247 -1.0342  0.4297
16549TIP3    H171062   2.564   4.873  13.880 -0.6025  0.3191  0.3195
16549TIP3    H271063   2.606   4.860  13.735  0.2800 -1.9176  0.7538
16550TIP3   OH271064   2.211   2.954   4.042  0.2475 -0.3946 -0.0819
16550TIP3    H171065   2.291   2.957   4.095 -1.4889  0.2774  2.5954
16550TIP3    H271066   2.188   3.046   4.028 -1.4613 -0.5711  1.4123
16551TIP3   OH271067   5.554   3.110   5.650 -0.6049  0.2610  0.1849
16551TIP3    H171068   5.473   3.057   5.647 -1.0037  0.8924 -0.2452
16551TIP3    H271069   5.528   3.190   5.695  0.9289 -1.4739  4.3854
16552TIP3   OH271070   1.194   6.051  12.699 -0.0224 -0.7940 -0.0159
16552TIP3    H171071   1.204   5.956  12.700  1.4977 -0.6501  0.8421
16552TIP3    H271072   1.279   6.084  12.667 -0.2331  0.2962  0.5110
16553TIP3   OH271073   6.666   4.626  10.914  0.3251  0.4147  0.0033
16553TIP3    H171074   6.718   4.554  10.950 -0.1116  0.3109  0.4332
16553TIP3    H271075   6.608   4.583  10.851  0.6217  0.5050 -0.3361
16554TIP3   OH271076   5.818   3.687  13.534  0.2807 -0.1155 -0.3288
16554TIP3    H171077   5.770   3.668  13.615  0.7221  0.0298 -0.0336
16554TIP3    H271078   5.890   3.744  13.562  0.1433  0.3432 -0.8999
16555TIP3   OH271079   6.519   0.131   0.724 -0.3048  0.0396 -0.5803
16555TIP3    H171080   6.491   0.217   0.755  0.8701  0.2878 -0.1716
16555TIP3    H271081   6.601   0.148   0.677  0.7545 -1.0442  0.8242
16556TIP3   OH271082   4.074   2.988  15.938 -0.7774  0.5307  0.5276
16556TIP3    H171083   3.993   2.954  15.900  0.0125 -0.3603 -0.4076
16556TIP3    H271084   4.089   2.932  16.015 -1.5680  1.3442  1.2843
16557TIP3   OH271085   2.032   5.145  12.294 -0.4023  0.3661 -0.1828
16557TIP3    H171086   2.010   5.192  12.374  0.6905 -0.2727  0.4966
16557TIP3    H271087   2.111   5.096  12.315  0.3033  0.7420 -1.8694
16558TIP3   OH271088   1.745   5.299   0.398 -0.2113 -0.0402  0.2174
16558TIP3    H171089   1.835   5.318   0.372 -0.1079  3.4902  2.8693
16558TIP3    H271090   1.750   5.214   0.440  1.8367 -0.0119  0.1034
16559TIP3   OH271091   3.484   2.671  11.943 -0.1883  0.2732 -0.0812
16559TIP3    H171092   3.484   2.631  11.857  0.3178  0.1936 -0.0441
16559TIP3    H271093   3.494   2.765  11.926  1.3549  0.1287 -0.0568
16560TIP3   OH271094   4.134   3.788   0.350 -0.0401 -0.3458 -0.6492
16560TIP3    H171095   4.042   3.815   0.344 -0.2388 -1.2199 -1.6108
16560TIP3    H271096   4.182   3.869   0.365 -1.0808 -0.0044  1.0143
16561TIP3   OH271097   1.927   5.845  10.575 -0.2671  0.1614  0.2038
16561TIP3    H171098   1.851   5.800  10.538 -0.1307  0.3343 -0.2953
16561TIP3    H271099   1.997   5.780  10.571 -0.0875  0.3885 -0.4537
16562TIP3   OH271100   2.174   5.187  11.569  0.1976  0.0019 -0.7778
16562TIP3    H171101   2.129   5.105  11.546  0.7706 -0.9851  1.4258
16562TIP3    H271102   2.162   5.243  11.493 -1.2095 -1.7240 -1.8860
16563TIP3   OH271103   6.301   6.097   3.244  0.7144 -0.1096  0.2748
16563TIP3    H171104   6.334   6.163   3.184  1.6538 -1.7844 -1.0840
16563TIP3    H271105   6.308   6.138   3.331 -0.3559  2.1963 -0.6707
16564TIP3   OH271106   4.184   4.535   0.489  0.5088  0.5005 -0.1989
16564TIP3    H171107   4.234   4.460   0.522 -1.2799 -0.5008  0.3073
16564TIP3    H271108   4.114   4.548   0.553  0.6447  2.4528 -0.4253
16565TIP3   OH271109   5.861   3.205   2.090 -0.3934  0.4727 -0.8224
16565TIP3    H171110   5.813   3.140   2.142  1.6923 -2.0484 -1.9643
16565TIP3    H271111   5.816   3.206   2.006  0.4472 -0.5757 -1.2909
16566TIP3   OH271112   2.731   4.830  16.402 -0.1425 -0.7406  0.5754
16566TIP3    H171113   2.662   4.763  16.407 -1.0350  0.2460  2.1413
16566TIP3    H271114   2.807   4.784  16.367 -0.9438 -2.4078  0.9742
16567TIP3   OH271115   4.602   2.587  13.244  0.0669  0.1703  0.6092
16567TIP3    H171116   4.607   2.637  13.325  0.5839  2.1385 -0.5716
16567TIP3    H271117   4.510   2.592  13.218 -0.0025 -0.0363  0.8146
16568TIP3   OH271118   1.121   1.641  17.228 -0.8658 -0.5163 -0.3388
16568TIP3    H171119   1.086   1.555  17.203 -1.2874 -0.4713  0.0839
16568TIP3    H271120   1.215   1.632  17.217 -0.8841 -1.1135 -0.0803
16569TIP3   OH271121   4.083   4.211  14.272 -0.2111 -0.8224 -0.3880
16569TIP3    H171122   3.990   4.191  14.275 -0.3017 -0.7986 -2.2992
16569TIP3    H271123   4.126   4.129  14.298 -0.7338 -1.5592 -1.7647
16570TIP3   OH271124   4.373   0.915  10.530  0.1648  0.0235  0.8044
16570TIP3    H171125   4.378   0.828  10.490 -3.4041 -0.2698  0.8434
16570TIP3    H271126   4.439   0.914  10.600 -0.5419 -3.0009  1.4728
16571TIP3   OH271127   3.795   3.194  14.506  0.0780  0.1875 -0.3200
16571TIP3    H171128   3.780   3.100  14.504  0.2542  0.1656 -0.5359
16571TIP3    H271129   3.889   3.204  14.492  0.2668  0.3328  0.9513
16572TIP3   OH271130   4.847   3.509   3.960  0.1620  0.1762 -0.3468
16572TIP3    H171131   4.888   3.549   4.037  1.0223  0.0940 -0.7586
16572TIP3    H271132   4.920   3.475   3.908 -0.6469 -4.4518  1.3308
16573TIP3   OH271133   5.045   6.376   1.249  0.1020 -0.6099  0.1455
16573TIP3    H171134   4.976   6.440   1.264  0.1442 -0.5503  0.0823
16573TIP3    H271135   5.053   6.370   1.153 -0.2734 -1.1070  0.1418
16574TIP3   OH271136   3.069   6.638   0.144 -0.1642 -0.4871  0.4233
16574TIP3    H171137   3.156   6.665   0.115  0.4825 -1.7706  1.1460
16574TIP3    H271138   3.012   6.656   0.069  0.3752  2.1117  0.5833
16575TIP3   OH271139   4.607   1.301   3.931  0.1317  0.2508 -0.1144
16575TIP3    H171140   4.697   1.302   3.963 -0.0829  1.7291  0.5016
16575TIP3    H271141   4.589   1.393   3.910 -1.4145  0.0477  0.3095
16576TIP3   OH271142   0.046   3.447   5.571 -0.1619 -0.0961 -0.5771
16576TIP3    H171143   0.056   3.507   5.497 -1.3136  0.2599 -0.4589
16576TIP3    H271144  -0.038   3.472   5.610  0.7251  0.1584  1.2319
16577TIP3   OH271145   5.383   0.526  14.081 -0.1100  0.0457 -0.7277
16577TIP3    H171146   5.476   0.527  14.105 -0.0407 -1.1354 -0.9643
16577TIP3    H271147   5.358   0.619  14.082  0.5647  0.2473  1.3138
16578TIP3   OH271148   3.491   3.705   4.511 -0.1716 -0.0922  0.3324
16578TIP3    H171149   3.404   3.666   4.518  0.0477 -0.9663 -1.5525
16578TIP3    H271150   3.535   3.654   4.443  1.0904  1.6891 -0.2214
16579TIP3   OH271151   0.512   6.227  12.488  0.9888  0.7612 -0.5754
16579TIP3    H171152   0.420   6.198  12.486  0.8925  1.1422 -2.6520
16579TIP3    H271153   0.560   6.152  12.524 -0.2220  0.8664  1.3434
16580TIP3   OH271154   3.325   4.395   6.078 -0.4312  0.5282 -0.2024
16580TIP3    H171155   3.303   4.302   6.067 -0.8493  0.5957  0.0607
16580TIP3    H271156   3.265   4.426   6.145  0.6688  0.6317  0.7564
16581TIP3   OH271157   2.615   1.623  10.821 -0.0686 -0.2836 -0.1289
16581TIP3    H171158   2.705   1.598  10.840  0.3417  1.2086 -0.0171
16581TIP3    H271159   2.563   1.544  10.839  1.1913 -1.1149 -0.0801
16582TIP3   OH271160   3.385   3.231   6.203  0.0642 -0.0552  0.2436
16582TIP3    H171161   3.333   3.155   6.229  1.7701 -0.5010  2.4424
16582TIP3    H271162   3.422   3.264   6.284  1.7908  1.3316 -1.0684
16583TIP3   OH271163   3.173   4.952  13.570 -0.0433 -0.0261  0.0492
16583TIP3    H171164   3.096   4.895  13.571 -0.0358 -0.0187  0.9830
16583TIP3    H271165   3.141   5.033  13.530 -0.0584 -0.6637 -1.2634
16584TIP3   OH271166   3.455   0.880   2.293  0.4240 -0.2516  0.2759
16584TIP3    H171167   3.449   0.816   2.364  1.2342 -0.6435 -0.0065
16584TIP3    H271168   3.381   0.939   2.308  1.1507  0.2281  1.9916
16585TIP3   OH271169   5.198   4.128   4.060 -0.2180 -0.0822  0.2376
16585TIP3    H171170   5.254   4.108   4.135  0.0538 -0.2935 -0.0191
16585TIP3    H271171   5.250   4.102   3.984 -1.5340 -2.4230  0.0737
16586TIP3   OH271172   0.275   0.932   2.402 -0.1382 -0.2567  0.1434
16586TIP3    H171173   0.231   0.903   2.322 -1.3027  0.9955  0.3202
16586TIP3    H271174   0.228   0.888   2.472 -0.3492  0.1416  0.2543
16587TIP3   OH271175   5.498   1.089   1.570 -0.1058  0.2010  0.0486
16587TIP3    H171176   5.414   1.126   1.544  0.5845  0.4259 -1.9646
16587TIP3    H271177   5.476   1.022   1.636 -1.9108 -0.3028 -1.0338
16588TIP3   OH271178   3.242   1.208  17.040  0.4499  0.3978  0.0085
16588TIP3    H171179   3.223   1.297  17.071 -2.3444  0.1223 -0.7070
16588TIP3    H271180   3.161   1.182  16.995  1.7501 -1.9801 -1.0013
16589TIP3   OH271181   5.935   1.133  12.732  0.1368 -0.6745 -0.1346
16589TIP3    H171182   6.027   1.115  12.710  0.7188 -0.0164  1.6554
16589TIP3    H271183   5.903   1.053  12.772  0.8349  0.0856  1.9869
16590TIP3   OH271184   1.072   1.869   2.808 -0.2275 -0.0801 -0.4504
16590TIP3    H171185   1.070   1.780   2.774  0.3416 -0.3832  0.2988
16590TIP3    H271186   1.081   1.925   2.731  0.0841 -0.7044 -0.8642
16591TIP3   OH271187   1.773   4.347  15.213 -0.4520  0.4806 -0.2738
16591TIP3    H171188   1.864   4.349  15.185 -0.4324  1.2098 -0.1579
16591TIP3    H271189   1.767   4.411  15.284 -0.2558 -2.0986  2.1737
16592TIP3   OH271190   1.175   6.118  12.008  0.0226  0.1698 -0.4112
16592TIP3    H171191   1.162   6.072  12.092 -0.9320 -0.2264 -0.7629
16592TIP3    H271192   1.195   6.208  12.033 -0.9323  0.2131  0.2493
16593TIP3   OH271193   6.071   6.571   5.790 -0.4874  0.4722  0.1525
16593TIP3    H171194   6.054   6.496   5.848  0.7346 -1.4706 -1.8881
16593TIP3    H271195   6.124   6.631   5.842  1.8492 -1.9092  0.6031
16594TIP3   OH271196   3.174   6.423   0.288 -0.1960 -0.3117  0.0493
16594TIP3    H171197   3.229   6.446   0.364  1.2004 -0.6688 -0.8337
16594TIP3    H271198   3.132   6.505   0.264  1.3205  0.3691 -0.3380
16595TIP3   OH271199   5.164   5.355  15.012  0.0215 -0.0340 -0.1147
16595TIP3    H171200   5.083   5.404  14.998 -1.7777 -3.2838 -1.6834
16595TIP3    H271201   5.232   5.422  15.017 -2.4735  2.6633 -0.8868
16596TIP3   OH271202   2.796   1.640   6.068 -0.3730  0.0161 -0.2179
16596TIP3    H171203   2.781   1.566   6.127  1.1060 -0.4197 -0.3601
16596TIP3    H271204   2.821   1.712   6.125 -0.0715 -0.0921 -0.2105
16597TIP3   OH271205   1.717   3.673  13.253 -0.0511 -0.3480  0.3625
16597TIP3    H171206   1.746   3.584  13.230  0.1876 -0.1782 -0.0069
16597TIP3    H271207   1.744   3.684  13.344  1.3864 -0.0630 -0.0794
16598TIP3   OH271208   1.869   1.065   4.933  0.7170 -0.7391 -0.8723
16598TIP3    H171209   1.796   1.126   4.920  1.7518  0.7567  0.1556
16598TIP3    H271210   1.893   1.076   5.025  2.5170 -0.8890 -1.3041
16599TIP3   OH271211   2.766   2.133   5.843  0.4409  0.5585 -0.1559
16599TIP3    H171212   2.751   2.224   5.866 -0.0099  0.5411 -0.3800
16599TIP3    H271213   2.859   2.118   5.862 -0.1307  0.2456  2.6826
16600TIP3   OH271214   1.768   0.830   0.461 -0.2499 -0.2494 -0.2382
16600TIP3    H171215   1.719   0.767   0.408 -0.6930  0.6616 -0.9184
16600TIP3    H271216   1.728   0.824   0.548  0.5497 -1.8202  0.0330
16601TIP3   OH271217   1.260   5.392  16.086 -0.0600  0.3329 -0.0397
16601TIP3    H171218   1.236   5.421  15.998  1.6869  2.3645  0.1132
16601TIP3    H271219   1.202   5.441  16.144  0.8391  1.2685  0.0752
16602TIP3   OH271220   4.874   0.425  14.153 -0.0034 -0.0021 -0.2270
16602TIP3    H171221   4.794   0.405  14.104  0.2085 -1.4500 -0.0042
16602TIP3    H271222   4.865   0.375  14.235  1.3267 -0.5173 -0.3906
16603TIP3   OH271223   1.550   3.182   6.754  0.0013 -0.2456 -0.0521
16603TIP3    H171224   1.520   3.266   6.719 -0.7385 -0.8949 -0.9750
16603TIP3    H271225   1.626   3.160   6.701  0.9222  0.4015  0.9623
16604TIP3   OH271226   1.669   2.693   0.452 -0.2888 -0.3226  0.3926
16604TIP3    H171227   1.608   2.623   0.430  0.2985 -1.0649  1.0804
16604TIP3    H271228   1.747   2.648   0.484  0.1435  0.6437  0.7397
16605TIP3   OH271229   0.943   6.410   1.036 -0.7676 -0.2045 -0.0560
16605TIP3    H171230   0.890   6.390   1.113 -0.6846  0.7236  0.2512
16605TIP3    H271231   0.925   6.338   0.975 -4.2961  1.3018 -0.9372
16606TIP3   OH271232   2.368   1.639   5.948  0.3779  0.6380  0.0667
16606TIP3    H171233   2.377   1.707   6.015 -0.1982 -0.1339  0.9463
16606TIP3    H271234   2.359   1.687   5.866 -0.6110  1.6397  0.7453
16607TIP3   OH271235   0.493   0.877  11.551  0.7289 -0.3000  0.4693
16607TIP3    H171236   0.490   0.968  11.578  1.6018  0.4367 -1.8084
16607TIP3    H271237   0.573   0.842  11.589  2.2644  0.8886 -1.6064
16608TIP3   OH271238   4.197   5.743   2.097  0.3538  0.0899  0.7138
16608TIP3    H171239   4.137   5.816   2.111  0.0728 -0.0624  0.3058
16608TIP3    H271240   4.141   5.669   2.074  0.7600  0.1986 -0.6653
16609TIP3   OH271241   2.464   0.765   6.042 -0.4667 -0.5656  0.5530
16609TIP3    H171242   2.380   0.773   6.086  0.1484 -0.7773  1.7985
16609TIP3    H271243   2.442   0.754   5.949 -1.7011  3.4034  0.2850
16610TIP3   OH271244   0.867   4.776   1.600 -0.1389 -0.7109  0.6985
16610TIP3    H171245   0.952   4.777   1.643  1.2461 -1.1445 -1.8674
16610TIP3    H271246   0.843   4.868   1.590 -0.0888 -0.5941  1.6643
16611TIP3   OH271247   2.224   0.285  13.964  0.3313  0.0382  0.0129
16611TIP3    H171248   2.240   0.379  13.966  0.8050 -0.0444  0.1730
16611TIP3    H271249   2.220   0.263  13.871  0.0359  0.2480 -0.0237
16612TIP3   OH271250   1.363   6.756  12.352  0.1175  0.4245 -0.4356
16612TIP3    H171251   1.446   6.750  12.401 -0.3733  1.1869  0.5024
16612TIP3    H271252   1.380   6.709  12.271  0.3141 -2.7236  1.3482
16613TIP3   OH271253   5.804   6.174   0.906 -0.9666 -0.2492  0.3797
16613TIP3    H171254   5.711   6.171   0.932 -0.8278  0.8188  1.0227
16613TIP3    H271255   5.815   6.261   0.869 -0.4140 -0.6888 -0.4954
16614TIP3   OH271256   1.451   0.709  16.668  0.2693  0.1983  0.3742
16614TIP3    H171257   1.524   0.748  16.620  0.7307  0.4090  1.2380
16614TIP3    H271258   1.479   0.619  16.685 -0.6844 -0.4480 -1.3876
16615TIP3   OH271259   2.860   0.905   1.111  0.1461  0.3291  0.4809
16615TIP3    H171260   2.855   0.819   1.067 -0.5544  0.8156 -0.4120
16615TIP3    H271261   2.769   0.924   1.134  0.4056  0.4884  1.3548
16616TIP3   OH271262   5.059   1.880   2.519  0.1458  0.4601  0.3407
16616TIP3    H171263   5.105   1.964   2.522  2.3286 -0.7063  0.1793
16616TIP3    H271264   4.975   1.900   2.478  1.0031  2.3975 -0.5039
16617TIP3   OH271265   5.067   3.383  10.908 -0.6703 -0.1110 -0.8259
16617TIP3    H171266   4.987   3.352  10.952  0.2204 -0.1173  0.8281
16617TIP3    H271267   5.037   3.411  10.821 -2.7674  1.4962  0.3677
16618TIP3   OH271268   5.292   4.561  15.252  0.3815 -0.2388  0.0225
16618TIP3    H171269   5.327   4.585  15.338  0.8389 -0.1117 -0.1975
16618TIP3    H271270   5.241   4.481  15.268 -0.1384  0.1894  0.5388
16619TIP3   OH271271   3.425   5.298   2.794 -0.3478 -0.5478  0.1702
16619TIP3    H171272   3.496   5.250   2.750 -0.6285 -0.7486 -0.0604
16619TIP3    H271273   3.380   5.231   2.845  1.0798 -0.0074  2.2021
16620TIP3   OH271274   6.669   4.736   1.540  0.4697  0.2675 -0.0414
16620TIP3    H171275   6.733   4.684   1.589 -0.3963  0.8736  1.7719
16620TIP3    H271276   6.635   4.798   1.603 -2.2453 -0.3414 -0.8368
16621TIP3   OH271277   4.852   4.843  15.990  0.8507  0.3379  0.2544
16621TIP3    H171278   4.872   4.847  16.084 -1.8582 -0.4354  0.9102
16621TIP3    H271279   4.795   4.918  15.975  0.5008 -0.0990 -0.5922
16622TIP3   OH271280   2.261   6.547   3.163 -0.8794  0.3289  0.3797
16622TIP3    H171281   2.270   6.563   3.257 -0.7784  1.1160  0.2436
16622TIP3    H271282   2.196   6.610   3.134  0.8127  1.7283 -0.4931
16623TIP3   OH271283   1.499   6.177   6.455  0.9726  0.3592  0.2903
16623TIP3    H171284   1.482   6.266   6.485 -0.4723  0.0272  0.4735
16623TIP3    H271285   1.420   6.152   6.408  0.9000 -1.2458  1.2412
16624TIP3   OH271286   5.851   2.375   2.911 -0.0179 -0.0373  0.1383
16624TIP3    H171287   5.885   2.425   2.985 -0.6929  0.5361  0.0582
16624TIP3    H271288   5.771   2.334   2.944  0.4100 -0.8919  0.1397
16625TIP3   OH271289   0.885   2.296  12.937 -0.5898 -0.6433  0.6762
16625TIP3    H171290   0.797   2.317  12.905 -1.6926 -1.4771  3.0349
16625TIP3    H271291   0.884   2.201  12.946  1.0901 -0.8003 -0.7570
16626TIP3   OH271292   5.902   2.859   2.080 -1.1508  0.2721  0.8508
16626TIP3    H171293   5.943   2.927   2.027  0.0818 -1.9643 -1.1851
16626TIP3    H271294   5.822   2.837   2.032 -0.0947 -1.6754 -0.0683
16627TIP3   OH271295   2.924   5.081   4.177 -0.8296 -0.2850 -0.2214
16627TIP3    H171296   2.957   5.114   4.093  0.0294  0.2987  0.3472
16627TIP3    H271297   2.973   5.001   4.193  0.1765  0.4765  0.5256
16628TIP3   OH271298   0.035   6.151   2.929  0.3678  0.8460 -0.3192
16628TIP3    H171299   0.061   6.142   3.021  0.5195 -0.5796 -0.4823
16628TIP3    H271300  -0.018   6.074   2.912  0.2078  1.1848 -1.3900
16629TIP3   OH271301   1.916   6.089   0.942 -0.1465  0.0917  0.0364
16629TIP3    H171302   1.855   6.069   0.871  1.8380 -0.6586 -1.4975
16629TIP3    H271303   1.870   6.155   0.995 -3.0429 -1.8309  0.0167
16630TIP3   OH271304   2.609   1.677   3.814  0.4217  0.1535 -0.1388
16630TIP3    H171305   2.654   1.712   3.737 -1.1711  0.1127 -1.0988
16630TIP3    H271306   2.605   1.750   3.875  3.0284 -0.2164  0.5481
16631TIP3   OH271307   4.307   4.234   3.096  0.2078 -0.4834  0.3254
16631TIP3    H171308   4.255   4.158   3.122 -0.1404 -0.1733  0.5496
16631TIP3    H271309   4.372   4.244   3.166  0.1248 -0.4556  0.3996
16632TIP3   OH271310   4.716   0.382   2.286 -0.3865 -0.2576  0.2062
16632TIP3    H171311   4.674   0.381   2.200 -1.4142 -0.3535  0.7064
16632TIP3    H271312   4.809   0.392   2.266 -0.7663  1.3625 -0.8550
16633TIP3   OH271313   6.059   3.368   1.993  0.5857  0.1807  0.1683
16633TIP3    H171314   5.989   3.326   2.042 -1.3319 -0.2728 -2.8045
16633TIP3    H271315   6.105   3.295   1.950  1.3732  0.6617  0.1785
16634TIP3   OH271316   4.756   6.732   1.313  0.3034  0.1702  0.2145
16634TIP3    H171317   4.782   6.662   1.253 -0.8405 -1.2177  1.3247
16634TIP3    H271318   4.803   6.714   1.394 -0.7907  0.0585  0.8446
16635TIP3   OH271319   6.425   0.840  16.689  0.5122  0.2112 -0.2261
16635TIP3    H171320   6.462   0.909  16.634 -0.6567 -0.1743 -1.5204
16635TIP3    H271321   6.414   0.881  16.775  0.4963  1.4150 -0.8034
16636TIP3   OH271322   4.056   4.980   5.874  0.2755 -0.3904 -0.3436
16636TIP3    H171323   4.031   4.926   5.949  0.6725  1.5119  1.2043
16636TIP3    H271324   3.992   4.959   5.806 -1.2359 -0.7722  1.1642
16637TIP3   OH271325   4.435   1.652   3.151  0.3135  0.1067 -0.0896
16637TIP3    H171326   4.341   1.659   3.169  0.4637  1.0581  0.3827
16637TIP3    H271327   4.455   1.731   3.100  1.0565  0.4132  0.6741
16638TIP3   OH271328   5.870   3.034  12.186 -0.6357  0.1958  0.4730
16638TIP3    H171329   5.876   3.019  12.280 -0.6149 -0.1016  0.4226
16638TIP3    H271330   5.786   2.997  12.161  0.1895 -1.4511  0.0397
16639TIP3   OH271331   6.354   3.175  16.595  0.1481 -0.3918  0.0492
16639TIP3    H171332   6.326   3.186  16.686  0.6771 -1.3514  0.3365
16639TIP3    H271333   6.399   3.256  16.574 -0.2694 -0.0267  0.5325
16640TIP3   OH271334   5.662   5.988   5.936 -0.2528 -0.2645  0.6243
16640TIP3    H171335   5.650   6.005   6.030 -3.0908 -2.5385  0.7341
16640TIP3    H271336   5.648   6.073   5.895 -3.5640 -0.0744  1.9532
16641TIP3   OH271337   5.738   0.789   1.888 -0.4492  0.1520  0.1514
16641TIP3    H171338   5.650   0.785   1.849 -0.5410 -0.4857  0.4190
16641TIP3    H271339   5.750   0.882   1.909 -1.4254  0.1108  0.9452
16642TIP3   OH271340   1.815   2.908  15.716  0.7074 -0.1316  0.5711
16642TIP3    H171341   1.800   3.002  15.713  1.0354 -0.0726  0.8964
16642TIP3    H271342   1.733   2.870  15.681  0.6736  0.2757  0.2011
16643TIP3   OH271343   2.568   1.823  16.869 -0.4674 -0.2587  0.0446
16643TIP3    H171344   2.640   1.813  16.806 -0.5106 -0.5000  0.0275
16643TIP3    H271345   2.505   1.755  16.842 -0.9029  0.2496 -0.2246
16644TIP3   OH271346   4.429   2.621  12.212  0.1813  0.0842  0.0634
16644TIP3    H171347   4.454   2.646  12.300 -1.0649  0.1314  0.4123
16644TIP3    H271348   4.335   2.607  12.217  0.2203 -0.6731 -1.0763
16645TIP3   OH271349   5.524   5.469   2.225  0.0555  0.0678 -0.1001
16645TIP3    H171350   5.472   5.431   2.154 -0.6348 -0.8220  0.8708
16645TIP3    H271351   5.485   5.555   2.239 -0.1892  0.0081 -0.4051
16646TIP3   OH271352   5.514   5.599   1.089 -0.3808  0.1456  0.2759
16646TIP3    H171353   5.523   5.519   1.038 -2.4429 -0.0258  0.1640
16646TIP3    H271354   5.480   5.663   1.026  0.6729  0.9471  0.5124
16647TIP3   OH271355   3.982   6.218   1.072  0.5407  0.5193 -0.1991
16647TIP3    H171356   3.989   6.219   0.977  1.8269 -1.6464 -0.1600
16647TIP3    H271357   4.072   6.208   1.103 -0.1668 -2.5252  1.0882
16648TIP3   OH271358   1.473   1.599   2.678  0.2315  0.1745 -0.0264
16648TIP3    H171359   1.474   1.549   2.596  1.4327  0.0348  0.0612
16648TIP3    H271360   1.386   1.582   2.715 -0.7837  1.2123 -1.8443
16649TIP3   OH271361   1.413   2.197  16.141  0.2491  0.2754 -0.0139
16649TIP3    H171362   1.442   2.288  16.144  2.0727 -0.2913  0.2394
16649TIP3    H271363   1.362   2.185  16.221  2.3418  0.3428  1.3722
16650TIP3   OH271364   6.566   5.999   4.412  0.9325 -0.4449 -0.4490
16650TIP3    H171365   6.525   6.007   4.326  2.8820 -1.4830 -1.5137
16650TIP3    H271366   6.514   5.933   4.458  0.3457 -0.4433 -1.1134
16651TIP3   OH271367   5.623   4.829  10.685  0.2331 -0.3119  0.0873
16651TIP3    H171368   5.604   4.911  10.729 -0.6932 -0.4062 -0.1211
16651TIP3    H271369   5.663   4.854  10.602 -0.0990 -0.0677 -0.0011
16652TIP3   OH271370   5.852   3.658  15.069 -0.0982 -0.2991 -0.0562
16652TIP3    H171371   5.940   3.638  15.037  0.0967  1.5861 -0.7483
16652TIP3    H271372   5.822   3.575  15.108  2.2507 -0.7732  0.8777
16653TIP3   OH271373   6.230   1.335  12.593 -0.1988 -0.4364  0.1304
16653TIP3    H171374   6.213   1.298  12.680 -3.4896 -0.5638 -0.4794
16653TIP3    H271375   6.231   1.430  12.607 -2.1635 -0.3959  0.1287
16654TIP3   OH271376   6.037   1.794   5.563  0.0758 -0.2594  0.7389
16654TIP3    H171377   6.122   1.820   5.599 -0.2299 -0.0178  1.2891
16654TIP3    H271378   6.019   1.709   5.603  0.7392 -0.9946 -0.5058
16655TIP3   OH271379   6.262   1.020   6.745 -0.3629 -0.2856  0.3935
16655TIP3    H171380   6.213   1.018   6.827  0.2180 -0.7105  0.7336
16655TIP3    H271381   6.229   1.097   6.699 -2.6294 -1.5435 -0.1756
16656TIP3   OH271382   4.522   5.880   4.227 -0.7517 -0.1524  0.1598
16656TIP3    H171383   4.437   5.924   4.233 -1.1840 -0.7645 -1.2822
16656TIP3    H271384   4.501   5.790   4.203  0.2185 -0.7395  1.4588
16657TIP3   OH271385   3.864   5.715   2.752  0.1718 -0.1339 -0.4147
16657TIP3    H171386   3.832   5.753   2.834  1.8640  1.2607 -0.3960
16657TIP3    H271387   3.816   5.761   2.684  0.5428  0.4082 -0.3070
16658TIP3   OH271388   1.910   1.781  16.772  0.7626 -0.2175 -0.0769
16658TIP3    H171389   1.834   1.834  16.794  1.3332  0.1998  0.9224
16658TIP3    H271390   1.885   1.736  16.691 -1.3903 -1.7818  1.3983
16659TIP3   OH271391   1.754   3.751  16.880  0.2241  0.1938 -0.1526
16659TIP3    H171392   1.769   3.823  16.819  0.6731 -0.6770 -1.0704
16659TIP3    H271393   1.802   3.677  16.843  1.0524 -0.1763  1.5881
16660TIP3   OH271394   6.523   6.456  15.147  0.1718 -0.4159  0.5429
16660TIP3    H171395   6.589   6.388  15.161  0.7405  0.2796  1.2590
16660TIP3    H271396   6.570   6.525  15.100  0.2434  0.5535  2.0196
16661TIP3   OH271397   3.472   1.086   4.966  0.3338  0.2355  0.4650
16661TIP3    H171398   3.546   1.133   5.003 -0.0506  2.6314 -1.6772
16661TIP3    H271399   3.498   1.067   4.876 -0.5972 -1.2974  0.5069
16662TIP3   OH271400   3.663   1.088   5.348  0.5444 -0.5335  0.1491
16662TIP3    H171401   3.569   1.103   5.344  0.6918  0.6166  0.7279
16662TIP3    H271402   3.685   1.051   5.263 -0.4856 -1.1322  0.1456
16663TIP3   OH271403   6.615   1.427  11.624 -0.1090 -0.1927  0.0655
16663TIP3    H171404   6.530   1.442  11.582 -0.3900 -3.1580 -0.5426
16663TIP3    H271405   6.600   1.352  11.682  1.7994  0.0465  0.9012
16664TIP3   OH271406   2.999   4.504   1.330  0.3185  0.2447 -0.1352
16664TIP3    H171407   3.081   4.517   1.377 -0.4313  0.1947  1.1889
16664TIP3    H271408   3.027   4.470   1.244  1.7362  1.3393 -0.1289
16665TIP3   OH271409   0.243   5.599  13.172  0.2927 -0.1121 -0.1133
16665TIP3    H171410   0.291   5.611  13.090 -0.0037 -1.1618 -0.4395
16665TIP3    H271411   0.311   5.600  13.240  0.4960  1.1709 -0.3261
16666TIP3   OH271412   0.492   1.765  16.529 -0.2192  0.4369 -0.0291
16666TIP3    H171413   0.563   1.737  16.472 -0.7647 -1.1364  0.0231
16666TIP3    H271414   0.465   1.850  16.494  1.1759  0.7018 -0.5010
16667TIP3   OH271415   1.350   3.652  11.919  0.1935  0.3636 -0.6759
16667TIP3    H171416   1.304   3.574  11.950  0.2924  0.3274 -0.6190
16667TIP3    H271417   1.316   3.666  11.831  0.5318 -0.0252 -0.8674
16668TIP3   OH271418   2.323   4.971  11.765  0.3024 -0.0253 -0.3248
16668TIP3    H171419   2.396   5.033  11.762 -0.1473  0.4835 -1.0276
16668TIP3    H271420   2.250   5.021  11.800  0.3525 -0.6035  0.6156
16669TIP3   OH271421   6.369   1.323  14.494 -0.1450 -0.4243  0.0199
16669TIP3    H171422   6.306   1.363  14.434  0.0074 -0.2010  0.0097
16669TIP3    H271423   6.399   1.395  14.549 -0.1081 -0.5837  0.2099
16670TIP3   OH271424   3.268   5.676  15.694  0.0648  0.4730  0.1975
16670TIP3    H171425   3.265   5.746  15.759  1.0771  0.8864 -0.1897
16670TIP3    H271426   3.217   5.709  15.620 -0.2134  0.4283  0.3685
16671TIP3   OH271427   2.053   6.574   5.430 -0.0707  0.5588  0.4740
16671TIP3    H171428   2.077   6.483   5.449  0.2029  0.3675 -0.7171
16671TIP3    H271429   1.975   6.590   5.482 -0.4521 -0.5522  0.2519
16672TIP3   OH271430   4.505   2.727  11.764  0.2806  0.2614  0.1941
16672TIP3    H171431   4.528   2.683  11.846 -1.5063 -1.2348 -0.0685
16672TIP3    H271432   4.409   2.730  11.765  0.2947  1.8149 -1.0352
16673TIP3   OH271433   5.819   3.076  13.169 -0.0931  0.4654  0.4678
16673TIP3    H171434   5.828   2.994  13.218 -0.9007 -1.0677 -1.8482
16673TIP3    H271435   5.774   3.135  13.229 -2.1092 -1.7139  1.2033
16674TIP3   OH271436   3.761   2.425   0.418  0.3807  0.3214 -0.1998
16674TIP3    H171437   3.738   2.382   0.336  0.4311 -0.5391  0.2235
16674TIP3    H271438   3.844   2.384   0.444  0.1003  0.2076  0.5339
16675TIP3   OH271439   2.104   2.361  14.620  0.0057  0.4750 -0.1804
16675TIP3    H171440   2.181   2.357  14.676  0.7348  0.6675 -1.1503
16675TIP3    H271441   2.069   2.449  14.633 -0.6503  0.0459  1.0310
16676TIP3   OH271442   0.221   1.931   1.582  0.1266 -0.2992  0.0880
16676TIP3    H171443   0.149   1.913   1.521  0.6238  2.2295 -1.3317
16676TIP3    H271444   0.278   1.855   1.574 -1.5178 -1.5596 -0.0450
16677TIP3   OH271445   1.388   4.411  13.012 -0.2317 -0.0296 -0.5257
16677TIP3    H171446   1.383   4.470  13.086  0.3119 -1.6069  0.7910
16677TIP3    H271447   1.297   4.386  12.995 -0.4867  1.2814 -1.2095
16678TIP3   OH271448   0.004   6.323  13.769  0.0959  0.5995 -0.0396
16678TIP3    H171449   0.003   6.393  13.834 -0.6472  0.0856  0.5197
16678TIP3    H271450  -0.017   6.367  13.686 -1.4711  0.8794  0.4906
16679TIP3   OH271451   4.152   2.148  13.646  0.0803  0.2418 -0.6267
16679TIP3    H171452   4.210   2.074  13.628 -0.8139 -0.5912 -0.1602
16679TIP3    H271453   4.067   2.107  13.663 -0.3899  1.3745 -0.2407
16680TIP3   OH271454   2.106   1.001   1.030 -0.3307 -0.1946 -0.1653
16680TIP3    H171455   2.193   1.040   1.038 -1.0510  1.3953  0.1831
16680TIP3    H271456   2.119   0.909   1.052  0.8640  0.4896  2.2160
16681TIP3   OH271457   2.645   2.040   5.314 -0.5674 -0.6659  0.1033
16681TIP3    H171458   2.677   2.108   5.372 -0.6747 -0.4276 -0.1173
16681TIP3    H271459   2.663   1.958   5.360  0.2503 -0.5280  0.0348
16682TIP3   OH271460   0.471   5.347   4.184 -0.0399 -0.4863 -0.1044
16682TIP3    H171461   0.551   5.385   4.148  0.6342 -0.3674  1.4892
16682TIP3    H271462   0.413   5.422   4.197  0.9543 -0.0693  2.1796
16683TIP3   OH271463   0.917   5.138  15.388  0.1140  0.0204 -0.2720
16683TIP3    H171464   0.848   5.191  15.348  0.5515  0.8319  0.0369
16683TIP3    H271465   0.997   5.165  15.344  0.0133 -2.2028 -1.8882
16684TIP3   OH271466   6.020   0.751  15.290  0.0401  0.0662  0.1113
16684TIP3    H171467   6.082   0.681  15.269  0.6972  0.6933 -0.0772
16684TIP3    H271468   6.026   0.812  15.216  0.1516  0.7710  0.6850
16685TIP3   OH271469   4.943   1.218  16.937  0.1401  0.1118  0.2371
16685TIP3    H171470   4.937   1.269  17.018  0.1065  0.2116  0.1736
16685TIP3    H271471   5.033   1.228  16.909 -0.1943  1.1730 -0.4521
16686TIP3   OH271472   4.924   0.361  14.412 -0.2978 -0.2277  0.1512
16686TIP3    H171473   5.010   0.403  14.404 -0.2477 -0.4152 -0.3072
16686TIP3    H271474   4.905   0.364  14.505 -0.4630  1.1647  0.0782
16687TIP3   OH271475   6.137   5.360   3.624  0.1569  0.1466 -0.5231
16687TIP3    H171476   6.074   5.296   3.589 -0.0266 -0.1660  0.3645
16687TIP3    H271477   6.179   5.315   3.696 -0.5100  1.2884  0.5982
16688TIP3   OH271478   2.220   2.780   1.751 -0.4139 -0.2631  0.4439
16688TIP3    H171479   2.138   2.830   1.748 -0.7987 -0.9115 -0.0708
16688TIP3    H271480   2.288   2.843   1.732 -0.9494 -0.0659 -0.8345
16689TIP3   OH271481   0.224   0.328  12.707 -0.3722  0.0745  0.6530
16689TIP3    H171482   0.151   0.357  12.652 -0.0769 -0.7313 -0.1710
16689TIP3    H271483   0.283   0.283  12.647 -0.2686 -1.2330  1.7086
16690TIP3   OH271484   3.523   5.223   5.842  0.4996 -0.1562 -0.3444
16690TIP3    H171485   3.551   5.297   5.789  2.1261 -0.1944  0.4279
16690TIP3    H271486   3.554   5.244   5.930 -0.3393 -1.0585  0.1747
16691TIP3   OH271487   4.033   3.689   6.324 -0.1949  0.2781  0.3861
16691TIP3    H171488   4.086   3.759   6.284 -1.1655  1.1652  0.6429
16691TIP3    H271489   3.948   3.729   6.339 -1.0392 -1.2292 -0.2563
16692TIP3   OH271490   4.663   4.509  16.156  0.2214 -0.4392 -0.4378
16692TIP3    H171491   4.703   4.428  16.123  2.2367 -0.3091  1.5783
16692TIP3    H271492   4.673   4.571  16.084  3.6556 -0.4447 -0.0474
16693TIP3   OH271493   6.041   1.198  14.955 -0.4197  0.3166  0.0449
16693TIP3    H171494   6.037   1.103  14.961 -0.1750  0.2383 -1.0032
16693TIP3    H271495   5.952   1.227  14.977 -0.6646 -0.1925 -0.2725
16694TIP3   OH271496   1.165   0.104  13.917 -0.2890  0.5617  0.1138
16694TIP3    H171497   1.150   0.033  13.979  3.8881  0.7099  1.3999
16694TIP3    H271498   1.172   0.183  13.971  1.0194  1.0542 -0.7339
16695TIP3   OH271499   1.593   4.332   3.913 -0.2684 -0.0997  0.1151
16695TIP3    H171500   1.629   4.244   3.908  0.5133  0.2203 -0.1294
16695TIP3    H271501   1.550   4.346   3.829 -0.9768 -0.4954  0.4166
16696TIP3   OH271502   4.833   3.757   2.875  0.3935  0.0336  0.5837
16696TIP3    H171503   4.763   3.704   2.837 -0.4650  2.3671 -1.2252
16696TIP3    H271504   4.825   3.744   2.970  0.3352 -3.1373  0.2045
16697TIP3   OH271505   0.864   0.073  11.308  0.4851 -0.1997 -0.9133
16697TIP3    H171506   0.945   0.093  11.262  0.0387  0.8606 -1.2395
16697TIP3    H271507   0.890   0.009  11.375  1.6732  0.4830 -0.7077
16698TIP3   OH271508   6.483   0.795  15.891 -0.1188  0.1570 -0.1597
16698TIP3    H171509   6.447   0.761  15.973  0.9794  1.0243  0.6995
16698TIP3    H271510   6.573   0.762  15.888 -0.7293 -1.4411 -1.9625
16699TIP3   OH271511   5.550   4.248  15.465  0.7352 -0.0857  0.5372
16699TIP3    H171512   5.626   4.280  15.417 -0.3372  1.1738 -0.3676
16699TIP3    H271513   5.546   4.154  15.445  0.8103  0.2606 -1.1390
16700TIP3   OH271514   1.171   5.124  15.288  0.9558  0.8645 -0.3125
16700TIP3    H171515   1.192   5.044  15.335  3.5563  2.0698  0.6944
16700TIP3    H271516   1.148   5.096  15.200  0.8260 -1.0366  0.3154
16701TIP3   OH271517   4.609   2.416  14.841 -0.2478  0.0562 -0.5560
16701TIP3    H171518   4.603   2.427  14.936 -4.7617 -1.6935 -0.5451
16701TIP3    H271519   4.570   2.495  14.804 -0.4653 -0.2346 -0.9534
16702TIP3   OH271520   0.334   2.985   6.644  0.2543  0.3628 -0.7209
16702TIP3    H171521   0.287   2.913   6.687  0.6831  0.3256 -0.3146
16702TIP3    H271522   0.266   3.051   6.628  0.2185  0.6658  0.6336
16703TIP3   OH271523   6.701   0.646  16.784 -0.1365 -0.0999 -0.3829
16703TIP3    H171524   6.620   0.596  16.789  0.6093 -1.2368  0.4861
16703TIP3    H271525   6.758   0.607  16.850 -0.0963  2.9333  1.4869
16704TIP3   OH271526   1.226   1.371  17.220  0.8412  0.1936 -0.2769
16704TIP3    H171527   1.306   1.388  17.270  1.2686 -1.5782 -0.3049
16704TIP3    H271528   1.164   1.340  17.286  0.6735  0.0717 -0.4953
16705TIP3   OH271529   5.799   0.642  11.982  0.4234 -0.5469 -0.3420
16705TIP3    H171530   5.762   0.728  12.005  0.4913  0.2025 -2.8586
16705TIP3    H271531   5.722   0.588  11.962  0.5013 -0.1770 -1.6679
16706TIP3   OH271532   6.265   4.047   0.890  0.0200  0.6838 -0.2169
16706TIP3    H171533   6.312   3.979   0.938 -0.6848  1.9097  2.2876
16706TIP3    H271534   6.204   3.999   0.834 -0.2143 -0.8006  1.2571
16707TIP3   OH271535   3.984   6.034  13.340 -0.7343  0.3573 -0.2662
16707TIP3    H171536   3.986   5.986  13.258  2.9541 -1.3841  0.7260
16707TIP3    H271537   4.065   6.085  13.340  0.1791 -0.9532  2.9414
16708TIP3   OH271538   5.995   4.793  10.887  0.2655  0.1823  0.0941
16708TIP3    H171539   5.913   4.821  10.927 -0.7637 -2.2697 -0.1929
16708TIP3    H271540   6.034   4.733  10.951  0.4424 -0.8573 -0.9587
16709TIP3   OH271541   5.169   2.167   4.490  0.9741  0.4116 -0.7273
16709TIP3    H171542   5.136   2.255   4.510 -0.3553 -0.4158  0.8377
16709TIP3    H271543   5.091   2.113   4.483  1.8043 -0.7421 -1.2366
16710TIP3   OH271544   6.110   0.598   1.709 -0.0976 -0.1194  0.2726
16710TIP3    H171545   6.193   0.575   1.753  0.1726  0.3538  0.0123
16710TIP3    H271546   6.049   0.530   1.737  0.7307 -1.2403 -0.5882
16711TIP3   OH271547   6.505   5.730  16.880 -0.0229 -0.2934 -0.5269
16711TIP3    H171548   6.424   5.697  16.918  0.6062 -1.3123 -0.0467
16711TIP3    H271549   6.536   5.795  16.943 -1.5891  1.7293 -1.7805
16712TIP3   OH271550   0.265   2.231   1.009 -0.3105 -1.0560  0.3949
16712TIP3    H171551   0.211   2.186   0.944  1.6039 -3.1806  0.1945
16712TIP3    H271552   0.323   2.287   0.958 -0.2260 -1.1443  0.3925
16713TIP3   OH271553   5.924   3.720  17.098 -0.3832 -0.2374 -0.0341
16713TIP3    H171554   5.878   3.745  17.017 -0.2556 -1.4438 -0.4919
16713TIP3    H271555   5.943   3.627  17.086  0.5640 -0.1725  0.9475
16714TIP3   OH271556   5.120   5.998   1.201 -0.8082  0.0419 -0.3248
16714TIP3    H171557   5.165   5.921   1.165 -1.2691 -0.1478 -0.4915
16714TIP3    H271558   5.146   6.070   1.143 -0.9455 -0.1210 -0.5873
16715TIP3   OH271559   1.744   3.058   5.397 -0.1869 -0.1660 -0.1333
16715TIP3    H171560   1.748   2.966   5.371 -0.4835 -0.4164  0.6840
16715TIP3    H271561   1.820   3.098   5.354 -0.2527 -0.7180 -0.7714
16716TIP3   OH271562   2.738   2.201  14.004  0.1222  0.0178 -0.3508
16716TIP3    H171563   2.683   2.208  13.926  1.4399  3.2948 -1.0311
16716TIP3    H271564   2.678   2.171  14.072 -1.4521 -1.0688 -2.1380
16717TIP3   OH271565   2.620   0.090   5.216  0.3923 -0.4663  0.6679
16717TIP3    H171566   2.608   0.072   5.123 -0.0228 -1.2573  0.8666
16717TIP3    H271567   2.535   0.071   5.255  0.1611  1.2228  1.0092
16718TIP3   OH271568   5.141   0.193  15.397 -0.4712  0.4654 -0.2594
16718TIP3    H171569   5.056   0.217  15.360 -0.3000  0.1995 -0.8317
16718TIP3    H271570   5.191   0.160  15.323 -0.7672 -1.8619  0.5298
16719TIP3   OH271571   6.405   2.497   5.333 -0.3535 -0.2273 -0.7486
16719TIP3    H171572   6.392   2.524   5.424 -0.0075  0.1881 -0.8212
16719TIP3    H271573   6.323   2.454   5.310 -2.4811  4.1254 -1.8289
16720TIP3   OH271574   4.020   4.288  10.501 -0.9397  0.3294  0.0086
16720TIP3    H171575   3.971   4.362  10.538  1.6633  1.6055  0.9890
16720TIP3    H271576   4.038   4.314  10.411  1.7990  1.8837  0.9540
16721TIP3   OH271577   5.987   3.512   4.030  0.2014  0.2238  0.0513
16721TIP3    H171578   6.054   3.445   4.014  0.2814  0.6508 -1.5754
16721TIP3    H271579   5.986   3.564   3.949 -0.3799  1.7320  1.0067
16722TIP3   OH271580   5.867   1.797  15.931  0.4650 -0.5299  0.4201
16722TIP3    H171581   5.797   1.832  15.986 -0.1610 -0.5240 -0.3682
16722TIP3    H271582   5.831   1.716  15.894  1.3675 -1.2292  1.0663
16723TIP3   OH271583   3.928   1.675   3.507  0.1584 -0.0389  0.4704
16723TIP3    H171584   3.939   1.767   3.485  0.4127 -0.3270 -0.6603
16723TIP3    H271585   4.013   1.635   3.489 -0.2429 -0.6834 -0.0269
16724TIP3   OH271586   6.381   6.049   0.628  0.3146 -0.1856  0.1769
16724TIP3    H171587   6.324   5.978   0.659  0.8883 -0.5200  0.4621
16724TIP3    H271588   6.343   6.073   0.543 -0.0614 -0.6294  0.2133
16725TIP3   OH271589   2.686   2.550   1.457 -0.1262  0.0109  0.3571
16725TIP3    H171590   2.627   2.571   1.385  0.9980  0.8217 -0.3428
16725TIP3    H271591   2.629   2.515   1.525 -1.3457  0.3113 -0.4908
16726TIP3   OH271592   1.861   6.557  14.314  0.1330  0.4361 -0.4824
16726TIP3    H171593   1.855   6.465  14.342  0.3030  0.4622 -0.3664
16726TIP3    H271594   1.881   6.552  14.221  0.5078  0.3598 -0.3957
16727TIP3   OH271595   4.654   0.007  12.921  0.7265 -0.0815 -0.5988
16727TIP3    H171596   4.621   0.088  12.882 -2.7508 -0.6353  1.0026
16727TIP3    H271597   4.665  -0.053  12.847  0.0714  0.7758 -1.3996
16728TIP3   OH271598   2.223   1.607   6.710  0.3238  0.2914 -0.5892
16728TIP3    H171599   2.235   1.533   6.769  0.4766  0.1745 -0.7649
16728TIP3    H271600   2.294   1.599   6.646  0.1682  0.4217 -0.7830
16729TIP3   OH271601   0.154   3.623  12.858 -0.0049  0.0194 -0.5050
16729TIP3    H171602   0.226   3.563  12.838 -0.4851 -1.2012  1.2527
16729TIP3    H271603   0.081   3.591  12.806  0.5128  0.8594 -1.7825
16730TIP3   OH271604   5.320   3.313   6.408  0.3414 -0.2303  0.4816
16730TIP3    H171605   5.415   3.320   6.418  0.1910  0.0014  1.8679
16730TIP3    H271606   5.305   3.221   6.385  0.7879 -0.6269  1.7511
16731TIP3   OH271607   1.654   0.174  13.021  0.2870  0.0455  0.0130
16731TIP3    H171608   1.683   0.222  12.943 -0.8034  1.6356  0.5465
16731TIP3    H271609   1.731   0.169  13.076  0.6616  0.3282 -0.4822
16732TIP3   OH271610   1.225   4.702   5.398  0.4580  0.6096  0.8798
16732TIP3    H171611   1.299   4.759   5.420  0.8543 -0.1802  1.6424
16732TIP3    H271612   1.172   4.753   5.337  1.9827  0.9289 -0.2095
16733TIP3   OH271613   6.290   0.917   2.871 -0.3870  0.1733 -0.6513
16733TIP3    H171614   6.205   0.883   2.900 -0.6889 -1.0616 -2.8714
16733TIP3    H271615   6.268   0.998   2.824 -0.3361 -0.1157 -1.1750
16734TIP3   OH271616   0.372   0.472   0.086 -0.5486 -0.3681 -0.6437
16734TIP3    H171617   0.378   0.520   0.003 -0.8041 -0.0391 -0.4725
16734TIP3    H271618   0.279   0.463   0.103 -0.5290  2.0135  0.9986
16735TIP3   OH271619   2.724   4.667  14.810 -0.1619 -0.1327 -0.2128
16735TIP3    H171620   2.705   4.586  14.856 -1.8922  0.2124 -0.2820
16735TIP3    H271621   2.640   4.694  14.774  0.3138  1.9103  0.1626
16736TIP3   OH271622   5.638   0.513   0.400  0.5322  0.2360 -0.0900
16736TIP3    H171623   5.687   0.551   0.328  0.5804  0.4372  0.0495
16736TIP3    H271624   5.603   0.431   0.365  0.7447  0.2244 -0.2706
16737TIP3   OH271625   2.223   3.271   5.763  0.6744  0.4927  0.6098
16737TIP3    H171626   2.241   3.336   5.831 -1.8032  0.2268  1.5825
16737TIP3    H271627   2.146   3.304   5.717  1.4283 -0.0828 -1.1001
16738TIP3   OH271628   2.106   3.236   5.039  0.0033  0.3324  0.5114
16738TIP3    H171629   2.100   3.144   5.067 -0.6413 -0.0509 -0.8677
16738TIP3    H271630   2.100   3.233   4.944 -0.1137  1.8285  0.4577
16739TIP3   OH271631   5.243   0.906  10.933 -0.1069  0.1541  0.4265
16739TIP3    H171632   5.194   0.975  10.977  0.6289  0.6133  0.5487
16739TIP3    H271633   5.241   0.832  10.993 -0.3243  0.3029  0.6039
16740TIP3   OH271634   0.118   1.585  12.781 -0.0619 -0.3178 -0.2720
16740TIP3    H171635   0.139   1.673  12.811  1.7565 -1.6288  2.5243
16740TIP3    H271636   0.026   1.572  12.807 -0.8505  1.3266 -2.1959
16741TIP3   OH271637   0.105   3.057  14.630 -0.1386 -0.3546  0.2742
16741TIP3    H171638   0.095   3.021  14.718  1.1322 -0.5406  0.3550
16741TIP3    H271639   0.169   3.128  14.640 -0.0758 -0.2995 -0.4685
16742TIP3   OH271640   0.911   5.851  16.232 -0.3014  0.1041  0.2878
16742TIP3    H171641   0.965   5.874  16.307  1.5341 -2.5602 -0.1208
16742TIP3    H271642   0.878   5.763  16.253 -2.4559  0.6733 -0.5822
16743TIP3   OH271643   0.468   2.113  14.008  0.4061 -0.0259 -0.7998
16743TIP3    H171644   0.408   2.055  13.962 -0.4438  0.6014 -0.4900
16743TIP3    H271645   0.412   2.176  14.053  1.3157  1.1286 -1.2411
16744TIP3   OH271646   1.370   2.268  11.041  0.1008  0.1233  0.1786
16744TIP3    H171647   1.376   2.285  10.947  1.0047  0.6423  0.3228
16744TIP3    H271648   1.451   2.304  11.077  0.6268 -1.7153  0.9104
16745TIP3   OH271649   2.865   0.957   3.451  0.1188 -0.4887  0.2655
16745TIP3    H171650   2.893   0.907   3.527 -0.0624 -0.9252  0.0518
16745TIP3    H271651   2.781   0.996   3.477  0.4153 -0.0291  0.5433
16746TIP3   OH271652   0.684   0.137   2.809 -0.0422  0.5337 -0.2774
16746TIP3    H171653   0.706   0.198   2.739  0.7959  1.2317  0.5856
16746TIP3    H271654   0.733   0.057   2.788 -0.7925  0.2983 -1.1649
16747TIP3   OH271655   1.963   5.327   5.853 -0.4704  0.1596  0.4695
16747TIP3    H171656   1.974   5.341   5.947 -3.3627 -0.7564  0.9941
16747TIP3    H271657   1.999   5.240   5.837  0.9120  0.7045  0.5173
16748TIP3   OH271658   2.184   0.779  15.391 -0.1384  0.3286  0.1334
16748TIP3    H171659   2.218   0.743  15.474 -2.6247  1.9308  1.9289
16748TIP3    H271660   2.168   0.702  15.337 -0.4634 -0.9295  1.9584
16749TIP3   OH271661   3.269   0.511   3.644  0.2087 -0.0561 -0.3350
16749TIP3    H171662   3.279   0.422   3.611  2.2143 -0.4395  1.2086
16749TIP3    H271663   3.212   0.554   3.580 -0.0120 -2.1633 -1.6019
16750TIP3   OH271664   6.557   5.342   0.045  0.0866 -0.2997  0.3271
16750TIP3    H171665   6.490   5.315   0.108  0.0059 -0.8716 -0.0035
16750TIP3    H271666   6.508   5.367  -0.033  0.2732 -1.1703 -0.0817
16751TIP3   OH271667   5.678   2.200  11.032 -0.0761  0.0481 -0.3230
16751TIP3    H171668   5.767   2.226  11.057  0.1985 -1.5061  0.3620
16751TIP3    H271669   5.645   2.274  10.980  1.1115  1.2361  0.5760
16752TIP3   OH271670   0.204   0.342  16.383 -0.2943 -0.2234  0.1917
16752TIP3    H171671   0.216   0.321  16.475  1.2447 -0.0598  0.0350
16752TIP3    H271672   0.167   0.430  16.383  1.4287  0.5184  0.6238
16753TIP3   OH271673   0.719   6.648   5.905 -0.3233  0.8065  0.0405
16753TIP3    H171674   0.675   6.611   5.982  0.3210  1.4229  0.7076
16753TIP3    H271675   0.812   6.633   5.920 -0.2907 -0.6115 -1.4339
16754TIP3   OH271676   3.788   3.831  16.624 -0.1978 -0.1968  0.5852
16754TIP3    H171677   3.739   3.814  16.544 -1.0501  0.1916  1.0197
16754TIP3    H271678   3.845   3.905  16.602  0.4769 -0.8800 -0.0269
16755TIP3   OH271679   6.412   2.127  14.835 -0.0435 -0.1825 -0.3292
16755TIP3    H171680   6.483   2.188  14.816  1.2342 -1.7054 -0.5311
16755TIP3    H271681   6.364   2.167  14.907  1.7338  0.3153  0.5908
16756TIP3   OH271682   1.096   3.067   1.782 -0.3441 -0.1736  0.3768
16756TIP3    H171683   1.023   3.129   1.789 -0.8871 -1.0048  2.7474
16756TIP3    H271684   1.144   3.078   1.865  1.6301 -0.3713 -0.7148
16757TIP3   OH271685   6.773   2.200   2.374  0.0294  0.3116 -0.0444
16757TIP3    H171686   6.694   2.223   2.422 -1.0827 -2.8614 -0.2733
16757TIP3    H271687   6.742   2.151   2.298  2.2235 -1.7139  0.3017
16758TIP3   OH271688   5.489   1.576   1.867 -0.1608  0.2572 -0.3353
16758TIP3    H171689   5.451   1.488   1.862  0.1948 -0.0688  1.9212
16758TIP3    H271690   5.572   1.563   1.912  0.0004  1.7189 -0.2072
16759TIP3   OH271691   4.291   1.580   5.097  0.2454 -0.2409  0.2423
16759TIP3    H171692   4.211   1.586   5.046  1.0883  0.2343 -1.0481
16759TIP3    H271693   4.355   1.538   5.039  0.5935 -1.7641  1.6884
16760TIP3   OH271694   0.563   2.236   1.899 -1.1841  0.1263 -0.3011
16760TIP3    H171695   0.629   2.173   1.927 -0.8115  0.2512 -0.8774
16760TIP3    H271696   0.600   2.321   1.922 -0.7639  0.2428 -1.3832
16761TIP3   OH271697   1.568   4.137   1.298 -0.2897  0.1654  0.2612
16761TIP3    H171698   1.505   4.187   1.246 -0.7428  0.1801  0.8189
16761TIP3    H271699   1.518   4.107   1.374 -0.2307 -1.8810 -0.5032
16762TIP3   OH271700   4.862   1.936   1.867 -0.5918  0.0503  0.7839
16762TIP3    H171701   4.838   2.029   1.867 -2.6999 -0.4143 -1.7999
16762TIP3    H271702   4.792   1.894   1.918 -0.2195 -0.2312  1.0594
16763TIP3   OH271703   0.560   0.812  15.154  0.3697 -1.1489  0.6773
16763TIP3    H171704   0.643   0.799  15.199  1.0665 -0.5564 -0.4299
16763TIP3    H271705   0.577   0.786  15.063 -0.2082  0.5236  0.0844
16764TIP3   OH271706   2.927   3.042  11.636  0.1266  0.5295 -0.2191
16764TIP3    H171707   3.008   3.093  11.642 -0.7423  1.8010  0.9843
16764TIP3    H271708   2.935   2.995  11.553  2.6650 -0.3648  0.4803
16765TIP3   OH271709   2.675   4.716  15.370  0.1092  0.2590 -0.0854
16765TIP3    H171710   2.689   4.764  15.452  0.7998 -0.5418  0.2869
16765TIP3    H271711   2.581   4.717  15.357 -0.0801 -0.2174  1.1212
16766TIP3   OH271712   5.905   4.918   3.256 -0.2368  0.5086  0.6987
16766TIP3    H171713   5.834   4.948   3.312 -0.5063 -0.5552  0.9427
16766TIP3    H271714   5.878   4.941   3.167 -0.0136  1.7941  0.9539
16767TIP3   OH271715   3.355   5.953   3.981 -0.0847  0.0110 -0.4642
16767TIP3    H171716   3.375   5.882   3.920 -0.4455  1.3461 -2.1622
16767TIP3    H271717   3.286   6.003   3.939 -2.1127 -0.4513  2.1658
16768TIP3   OH271718   2.576   2.982   2.012 -0.1520 -0.0182  0.0352
16768TIP3    H171719   2.618   3.039   1.948  0.1671 -1.2003 -0.8042
16768TIP3    H271720   2.483   3.002   2.004 -0.1932 -0.7168 -1.3515
16769TIP3   OH271721   3.266   4.364  16.474  0.0635 -0.1421 -0.0343
16769TIP3    H171722   3.244   4.293  16.414  2.0104 -1.3166  0.5865
16769TIP3    H271723   3.224   4.340  16.556  0.1064 -0.2037 -0.0291
16770TIP3   OH271724   5.739   5.112   5.604 -0.7633 -0.1501  0.2992
16770TIP3    H171725   5.651   5.079   5.626 -0.6947 -0.0794  0.6708
16770TIP3    H271726   5.739   5.203   5.634 -0.3671 -0.3187  0.8087
16771TIP3   OH271727   4.776   6.695  13.160  0.1541 -0.1105 -0.2511
16771TIP3    H171728   4.725   6.725  13.084  1.1713  0.0069 -0.8879
16771TIP3    H271729   4.846   6.642  13.122  0.9418  0.3394  0.5780
16772TIP3   OH271730   1.425   5.555   1.883  0.4240 -0.1442 -0.8182
16772TIP3    H171731   1.486   5.622   1.852  0.4311  0.1821 -0.1016
16772TIP3    H271732   1.343   5.574   1.836 -0.8293  2.9545  2.4395
16773TIP3   OH271733   6.001   2.950   1.502 -0.4903  0.3311  0.4658
16773TIP3    H171734   6.029   3.009   1.572 -0.3114  0.4633  0.2835
16773TIP3    H271735   6.057   2.873   1.511  0.1536  0.7235 -0.0907
16774TIP3   OH271736   2.603   1.998  13.572 -0.9442 -0.5921  0.4084
16774TIP3    H171737   2.656   2.000  13.492  1.3924 -2.8244  1.8390
16774TIP3    H271738   2.521   2.041  13.547  0.9133  1.5589 -2.2956
16775TIP3   OH271739   2.737   2.473   0.933  0.0381 -0.6115  0.3620
16775TIP3    H171740   2.774   2.552   0.971  0.5333 -0.2285 -0.8728
16775TIP3    H271741   2.730   2.412   1.006  0.5234  0.2542  1.1441
16776TIP3   OH271742   3.806   3.313   1.550  0.1874 -0.2345 -0.1021
16776TIP3    H171743   3.860   3.313   1.629 -0.8541 -0.2386  0.6207
16776TIP3    H271744   3.719   3.340   1.581 -0.2546 -0.3658 -1.2280
16777TIP3   OH271745   6.441   2.913  10.463 -0.3162  0.6825 -0.1846
16777TIP3    H171746   6.504   2.845  10.439 -2.0864 -0.4520 -1.7680
16777TIP3    H271747   6.395   2.877  10.538 -1.1738  0.1782 -0.9510
16778TIP3   OH271748   4.043   4.073  16.156 -0.3096  0.4469 -0.0963
16778TIP3    H171749   4.067   4.151  16.205 -0.8494  0.6398 -0.1345
16778TIP3    H271750   4.077   4.000  16.209  0.3271  0.7100 -0.1408
16779TIP3   OH271751   5.274   0.143  11.815 -0.4082  1.1918 -0.7312
16779TIP3    H171752   5.258   0.226  11.860 -0.6294 -0.8438  3.2360
16779TIP3    H271753   5.350   0.106  11.860 -1.1095 -1.3045 -1.5164
16780TIP3   OH271754   5.901   5.777   1.316 -0.1567 -0.3183  0.1705
16780TIP3    H171755   5.958   5.801   1.243  0.8522 -0.3705  0.9312
16780TIP3    H271756   5.870   5.861   1.351 -1.2509 -0.3133 -0.7816
16781TIP3   OH271757   0.726   5.800  16.499  0.6466 -0.2772 -0.0984
16781TIP3    H171758   0.641   5.830  16.468  0.0148 -2.5105 -0.5882
16781TIP3    H271759   0.737   5.713  16.460  1.4639 -1.5956  2.9101
16782TIP3   OH271760   5.741   6.557  10.640 -0.5312  0.0948 -0.0282
16782TIP3    H171761   5.682   6.538  10.567  1.1499  3.2529 -2.3591
16782TIP3    H271762   5.731   6.651  10.655  0.6509 -0.1316  2.5283
16783TIP3   OH271763   5.117   3.535   1.385  0.2009  0.5805 -0.2863
16783TIP3    H171764   5.045   3.473   1.387  0.6592  0.0073 -0.9847
16783TIP3    H271765   5.076   3.621   1.394 -0.5306  0.2435 -0.3899
16784TIP3   OH271766   3.214   2.896  12.241 -0.0080  0.0434  0.2411
16784TIP3    H171767   3.140   2.858  12.288  1.5072 -1.3075  1.5999
16784TIP3    H271768   3.208   2.859  12.153  0.3465 -1.8319  0.9971
16785TIP3   OH271769   6.344   4.691  11.387  0.3141 -0.2730 -1.0961
16785TIP3    H171770   6.278   4.739  11.337 -2.2381 -1.4022  1.0382
16785TIP3    H271771   6.359   4.746  11.464  1.3189 -0.3807 -1.2209
16786TIP3   OH271772   1.073   4.750   5.727  0.1148  0.2223  0.0124
16786TIP3    H171773   1.168   4.762   5.719  0.1741 -0.6909 -0.8501
16786TIP3    H271774   1.036   4.806   5.659  0.1872 -1.3070 -1.3372
16787TIP3   OH271775   0.437   5.521   1.317  0.6568  0.4267 -0.3555
16787TIP3    H171776   0.445   5.540   1.223 -0.1532 -0.0877 -0.5326
16787TIP3    H271777   0.345   5.538   1.337  0.6733 -0.1419  0.1933
16788TIP3   OH271778   3.096   5.918   2.147 -0.7089  0.3650 -0.6427
16788TIP3    H171779   3.041   5.841   2.165  1.3086 -1.0337 -0.3148
16788TIP3    H271780   3.154   5.924   2.222 -0.4628  1.8944 -0.9402
16789TIP3   OH271781   2.983   2.889  16.895 -0.5103  0.0336  0.4380
16789TIP3    H171782   3.036   2.897  16.974 -0.6675 -1.2250  0.6778
16789TIP3    H271783   2.944   2.802  16.900 -0.5330 -0.0647 -1.0184
16790TIP3   OH271784   3.702   0.615   1.269 -0.7173  0.1613  0.0676
16790TIP3    H171785   3.661   0.543   1.222 -0.3787 -1.3370  1.9752
16790TIP3    H271786   3.672   0.605   1.360  2.2260  0.1895  1.1251
16791TIP3   OH271787   2.901   6.264   6.388  0.3583  0.6409 -0.6531
16791TIP3    H171788   2.977   6.260   6.447  0.4513  1.5972 -0.7069
16791TIP3    H271789   2.826   6.270   6.447  0.2829 -0.7764 -0.5899
16792TIP3   OH271790   2.382   2.175  13.515 -0.8479 -1.0381 -0.1149
16792TIP3    H171791   2.432   2.247  13.476 -0.1609 -0.9146  0.9957
16792TIP3    H271792   2.292   2.189  13.483 -0.7105  0.2895  0.0550
16793TIP3   OH271793   2.024   1.543  15.820 -0.1531 -0.4834 -0.5517
16793TIP3    H171794   1.959   1.499  15.875  1.5916 -0.8716  1.2688
16793TIP3    H271795   2.019   1.635  15.847  0.1651 -0.5402 -0.3032
16794TIP3   OH271796   6.731   6.655  15.466  0.1166  0.1477 -0.0533
16794TIP3    H171797   6.737   6.742  15.506 -1.7397 -0.0554  0.7295
16794TIP3    H271798   6.764   6.667  15.377 -1.5621  2.0137 -0.4581
16795TIP3   OH271799   1.820   1.970  10.430 -0.0195 -0.2369 -0.4664
16795TIP3    H171800   1.730   2.001  10.423 -0.4247 -0.6844  2.4385
16795TIP3    H271801   1.866   2.014  10.358 -1.7436  2.9170  0.2786
16796TIP3   OH271802   4.925   0.488   3.453 -0.3860 -0.1603 -0.3131
16796TIP3    H171803   4.899   0.415   3.397  0.0400 -0.8661  0.3993
16796TIP3    H271804   5.019   0.497   3.438 -0.4284  0.2225 -0.3679
16797TIP3   OH271805   6.233   0.532  10.634  0.0961  0.3040  0.4894
16797TIP3    H171806   6.248   0.517  10.541 -0.5895  0.3146  0.3762
16797TIP3    H271807   6.211   0.625  10.640  0.5739  0.4054  0.7173
16798TIP3   OH271808   6.148   1.692   0.959 -0.2210 -0.0130  0.0078
16798TIP3    H171809   6.141   1.607   1.001 -1.2588  0.9207  1.7653
16798TIP3    H271810   6.058   1.724   0.952  0.1632  1.0128 -0.4580
16799TIP3   OH271811   1.240   2.370  15.111 -0.0896  0.4095 -0.4218
16799TIP3    H171812   1.305   2.440  15.120 -0.6711  0.7393  1.4235
16799TIP3    H271813   1.290   2.295  15.081  1.0838  0.7810  0.5564
16800TIP3   OH271814   3.615   3.456   0.372  0.1353  0.0894  0.4211
16800TIP3    H171815   3.632   3.408   0.291  2.7187  2.1078 -0.3271
16800TIP3    H271816   3.594   3.545   0.343  2.1683  1.1157  1.9588
16801TIP3   OH271817   0.912   1.192  16.627 -0.0005  0.0184 -0.3989
16801TIP3    H171818   0.947   1.137  16.698 -0.2942  0.1569 -0.1441
16801TIP3    H271819   0.853   1.253  16.671  0.4237  0.6245 -0.6620
16802TIP3   OH271820   3.091   3.579  11.328  0.2347  0.0497  0.0422
16802TIP3    H171821   3.161   3.543  11.274  0.1544 -0.8010  0.5049
16802TIP3    H271822   3.112   3.672  11.336  0.1303  0.2274 -1.6371
16803TIP3   OH271823   3.615   2.137  15.182  0.0344  0.3426  0.1029
16803TIP3    H171824   3.573   2.169  15.103 -0.9125 -1.7741 -0.3031
16803TIP3    H271825   3.707   2.128  15.159  0.1559  1.9183 -0.0322
16804TIP3   OH271826   4.741   0.414   1.600  0.0594  0.2241 -0.0494
16804TIP3    H171827   4.824   0.459   1.588 -0.9672  2.6326  1.4813
16804TIP3    H271828   4.692   0.470   1.660 -1.9147 -2.1426  0.6233
16805TIP3   OH271829   0.676   3.821   2.879 -0.0370  0.0766  0.1653
16805TIP3    H171830   0.619   3.751   2.849 -0.5594  0.1768  0.9251
16805TIP3    H271831   0.618   3.896   2.890  0.3769  0.3974  0.1813
16806TIP3   OH271832   6.467   2.818   4.581  0.2297 -0.6192  0.3967
16806TIP3    H171833   6.534   2.769   4.533  1.2102  0.8342  0.2684
16806TIP3    H271834   6.498   2.818   4.671  0.7172  0.5666  0.2338
16807TIP3   OH271835   6.774   3.584   0.911  0.2139 -0.0627 -0.3916
16807TIP3    H171836   6.710   3.612   0.976  0.1544 -0.7748 -0.1433
16807TIP3    H271837   6.859   3.596   0.954  0.2774  1.3735 -0.9069
16808TIP3   OH271838   3.759   1.744  15.737 -0.0276 -0.4641  0.0056
16808TIP3    H171839   3.808   1.768  15.658  0.7777 -0.2692  0.5598
16808TIP3    H271840   3.795   1.659  15.763 -1.0134 -1.0268 -0.4174
16809TIP3   OH271841   5.567   3.065  15.170 -0.3142  0.1264 -0.5158
16809TIP3    H171842   5.561   3.120  15.248 -0.4540 -0.0547 -0.3985
16809TIP3    H271843   5.603   3.123  15.103  0.6863  0.0314 -0.0694
16810TIP3   OH271844   2.132   3.745   1.505 -0.0015  0.1781  0.5591
16810TIP3    H171845   2.220   3.734   1.542 -0.6408 -1.7641  1.5814
16810TIP3    H271846   2.075   3.758   1.580 -0.8841 -0.6953  0.0494
16811TIP3   OH271847   1.632   4.299  14.925  0.1984  0.6430  0.0456
16811TIP3    H171848   1.545   4.337  14.913  0.5998  0.8827 -2.3727
16811TIP3    H271849   1.661   4.332  15.011 -2.4275 -0.1959  1.3050
16812TIP3   OH271850   3.220   0.465  12.330  0.1938 -0.1222 -0.0902
16812TIP3    H171851   3.254   0.553  12.314  0.4600 -0.4991 -1.6202
16812TIP3    H271852   3.297   0.414  12.357 -0.2858  0.5586  2.7430
16813TIP3   OH271853   0.586   6.069   2.966 -0.0941  0.6617  0.4049
16813TIP3    H171854   0.664   6.075   2.912 -1.8547 -1.4054 -2.4745
16813TIP3    H271855   0.515   6.101   2.910 -1.9676 -1.4748  1.4823
16814TIP3   OH271856   3.030   5.026  16.014 -0.0926  0.1617 -0.4827
16814TIP3    H171857   3.012   5.119  15.999  0.9697  0.7576  1.7239
16814TIP3    H271858   2.953   4.981  15.979 -1.2923  1.9707 -0.2498
16815TIP3   OH271859   5.283   1.282   4.130  0.0584  0.4150 -0.7993
16815TIP3    H171860   5.378   1.279   4.138 -0.0457  0.1191  0.4316
16815TIP3    H271861   5.251   1.263   4.218 -1.1370  1.0607 -1.0847
16816TIP3   OH271862   1.097   3.158   2.033 -0.3577 -0.0979 -0.4183
16816TIP3    H171863   1.084   3.250   2.054 -0.3803 -0.0074 -0.8312
16816TIP3    H271864   1.045   3.111   2.099 -0.3185  0.1801 -0.1890
16817TIP3   OH271865   6.190   1.310  10.930 -0.2708 -0.1318  0.4815
16817TIP3    H171866   6.168   1.286  10.840  2.8075  0.5202 -0.4938
16817TIP3    H271867   6.232   1.396  10.923  1.2033 -0.6608  2.3621
16818TIP3   OH271868   5.440   6.337  11.562  0.4172 -0.1144  0.6974
16818TIP3    H171869   5.458   6.285  11.483  1.1912 -0.1234  0.8766
16818TIP3    H271870   5.446   6.275  11.634  1.7857  0.3081  0.9541
16819TIP3   OH271871   3.258   3.542   4.580  0.4522  0.8366 -0.2187
16819TIP3    H171872   3.166   3.547   4.608  0.2102 -0.0924 -0.8197
16819TIP3    H271873   3.293   3.466   4.627  0.6389  0.5952 -0.7486
16820TIP3   OH271874   5.011   5.344   2.321 -0.2789  0.5577  0.2144
16820TIP3    H171875   5.079   5.311   2.262  2.0179  1.4004  2.2993
16820TIP3    H271876   4.998   5.273   2.384 -1.4704  0.3402 -0.2597
16821TIP3   OH271877   0.539   0.749  13.961  0.5159  0.4800 -0.5009
16821TIP3    H171878   0.515   0.835  13.926 -2.8623  0.1880  0.9288
16821TIP3    H271879   0.530   0.758  14.056  5.0424 -0.0691  0.0547
16822TIP3   OH271880   1.159   3.648   2.372  0.6672 -0.1614 -0.0206
16822TIP3    H171881   1.163   3.709   2.446  0.0939  1.4013 -1.2406
16822TIP3    H271882   1.233   3.673   2.316  0.5641 -0.7280 -0.4083
16823TIP3   OH271883   3.238   1.100   4.392  0.0397  0.0482 -0.1150
16823TIP3    H171884   3.213   1.070   4.479 -1.0747 -0.5964 -0.6443
16823TIP3    H271885   3.331   1.081   4.385  0.3558  1.0050  1.2906
16824TIP3   OH271886   3.600   0.763  10.999  0.1485  0.8775  0.4496
16824TIP3    H171887   3.686   0.743  10.964  0.9108  1.0860  2.1497
16824TIP3    H271888   3.568   0.680  11.033 -0.7542  0.5920 -1.0519
16825TIP3   OH271889   3.626   5.778   3.194 -0.0507 -0.1928  0.1758
16825TIP3    H171890   3.612   5.687   3.171 -1.3485  0.2914 -1.0636
16825TIP3    H271891   3.537   5.815   3.200  0.4194  0.6925  1.8464
16826TIP3   OH271892   0.882   6.396  16.899 -0.3286 -0.2158 -0.1440
16826TIP3    H171893   0.875   6.450  16.978  1.1874  0.1017 -0.2133
16826TIP3    H271894   0.799   6.411  16.853  0.0474  2.0298 -0.1359
16827TIP3   OH271895   4.739   1.583   5.615 -0.5318  0.4706  0.2235
16827TIP3    H171896   4.737   1.495   5.577  0.8434 -0.4342  2.1304
16827TIP3    H271897   4.820   1.584   5.667 -0.7980  2.6935  0.6343
16828TIP3   OH271898   2.308   4.608  16.519 -0.4495  0.0900 -0.3400
16828TIP3    H171899   2.275   4.684  16.566 -1.3534 -0.0822 -0.6853
16828TIP3    H271900   2.233   4.548  16.514 -0.1502 -0.2171 -1.3171
16829TIP3   OH271901   3.942   3.291   1.881 -0.0986 -0.3901 -0.4083
16829TIP3    H171902   4.017   3.232   1.886 -0.7817 -1.2398 -0.0139
16829TIP3    H271903   3.868   3.238   1.909 -0.6422  0.8123  0.4587
16830TIP3   OH271904   4.423   4.882   0.833 -0.3421  0.0740 -0.0412
16830TIP3    H171905   4.336   4.851   0.857  0.1041 -1.5181 -0.4228
16830TIP3    H271906   4.482   4.816   0.869  0.7898  1.7972  1.3163
16831TIP3   OH271907   5.050   5.882   4.395  0.1029 -0.2409 -0.3036
16831TIP3    H171908   5.123   5.935   4.363 -0.0023 -0.5033 -1.0065
16831TIP3    H271909   4.977   5.906   4.339 -0.7046  0.9896  1.2580
16832TIP3   OH271910   5.379   5.560   1.343  0.2041  0.3391  0.0203
16832TIP3    H171911   5.440   5.558   1.270  2.9068  0.8891  2.1975
16832TIP3    H271912   5.406   5.488   1.400 -0.7529  0.9905  1.3373
16833TIP3   OH271913   6.690   1.529   4.538  0.0550  0.2487 -0.3965
16833TIP3    H171914   6.699   1.479   4.619 -0.5027 -0.0660 -0.5334
16833TIP3    H271915   6.685   1.463   4.469  1.7968  0.5194 -0.8283
16834TIP3   OH271916   0.393   1.012  14.205  1.1063 -0.2320 -0.1099
16834TIP3    H171917   0.370   1.031  14.296  1.3853 -0.1885 -0.0474
16834TIP3    H271918   0.313   1.030  14.155  1.3580  1.1115 -0.0513
16835TIP3   OH271919   2.071   4.045  11.410  0.6207  0.3623 -0.4762
16835TIP3    H171920   2.142   3.983  11.393 -1.1275 -1.4973 -1.1904
16835TIP3    H271921   1.992   4.002  11.375 -1.0495  1.8805  1.2787
16836TIP3   OH271922   6.242   2.176  12.243 -0.2926 -0.5778 -0.0927
16836TIP3    H171923   6.205   2.187  12.330 -1.2331  0.4062 -0.6054
16836TIP3    H271924   6.184   2.114  12.200 -0.4879 -0.1981 -0.3852
16837TIP3   OH271925   3.769   1.234  11.390  0.0944  0.3997  0.2107
16837TIP3    H171926   3.765   1.173  11.316  1.6786  1.3527 -0.7109
16837TIP3    H271927   3.712   1.307  11.364  1.6918  1.3586 -0.7138
16838TIP3   OH271928   3.763   1.462  17.160  0.3108 -0.4288 -0.7514
16838TIP3    H171929   3.842   1.440  17.209 -0.1111 -0.0776  0.1078
16838TIP3    H271930   3.707   1.506  17.224 -1.0612 -1.7323 -1.0390
16839TIP3   OH271931   2.493   0.040   3.977 -0.0824 -0.6708 -0.2024
16839TIP3    H171932   2.509   0.033   3.883 -0.5905 -0.5289 -0.3036
16839TIP3    H271933   2.517   0.130   3.998  1.2051 -1.0650  0.0421
16840TIP3   OH271934   1.592   2.339  10.212 -0.5305 -0.5659 -0.6246
16840TIP3    H171935   1.639   2.416  10.181  0.4738 -0.8039  0.2721
16840TIP3    H271936   1.500   2.360  10.200 -0.2606  0.8548 -0.2294
16841TIP3   OH271937   5.413   4.640  11.640 -0.4695 -0.7836 -0.0564
16841TIP3    H171938   5.383   4.731  11.647 -1.2543 -1.0216 -0.3221
16841TIP3    H271939   5.368   4.605  11.563  0.3421 -1.2049 -0.3442
16842TIP3   OH271940   0.582   1.528   0.275 -0.2031 -0.0418  0.1096
16842TIP3    H171941   0.587   1.608   0.223 -1.0673  0.5280  0.8861
16842TIP3    H271942   0.548   1.462   0.215  1.1840 -0.0126 -0.7327
16843TIP3   OH271943   3.300   3.330   0.995 -0.2294 -0.3283  0.5221
16843TIP3    H171944   3.384   3.289   1.018  1.3041  2.4767  0.1409
16843TIP3    H271945   3.303   3.337   0.899 -1.1038 -0.6314  0.4707
16844TIP3   OH271946   5.208   2.766   4.884 -0.5235  0.0405 -0.0008
16844TIP3    H171947   5.274   2.778   4.816 -1.9005  0.3812 -1.3117
16844TIP3    H271948   5.155   2.693   4.853  0.3832 -1.4687  1.9711
16845TIP3   OH271949   1.360   3.627   0.019 -0.1289 -0.1017 -0.2241
16845TIP3    H171950   1.307   3.694  -0.023  0.6635  0.4491 -0.3576
16845TIP3    H271951   1.440   3.673   0.046  0.7206 -1.1311 -0.9338
16846TIP3   OH271952   3.184   6.369  12.096  0.3229  0.1571 -0.1279
16846TIP3    H171953   3.202   6.440  12.035 -0.9980  1.1135  0.5671
16846TIP3    H271954   3.235   6.390  12.174  0.1060  0.2279 -0.0042
16847TIP3   OH271955   3.855   5.738  16.427 -0.2088  0.4206 -0.3165
16847TIP3    H171956   3.782   5.746  16.367  2.1175  1.7467 -3.0952
16847TIP3    H271957   3.894   5.653  16.407 -0.5964 -0.0065  0.7136
16848TIP3   OH271958   4.795   6.212  11.723 -0.4542  0.3309  0.0626
16848TIP3    H171959   4.722   6.156  11.748 -1.0982  0.6169 -1.1680
16848TIP3    H271960   4.873   6.156  11.731 -1.0143 -0.5218 -0.4684
16849TIP3   OH271961   6.445   4.998  13.003 -0.7696  0.0502 -0.1166
16849TIP3    H171962   6.505   5.025  13.073 -0.8776  1.6202 -0.5997
16849TIP3    H271963   6.500   4.954  12.939 -0.3151  0.4760 -0.0204
16850TIP3   OH271964   3.128   6.655  16.458 -0.0055 -0.2747  0.2653
16850TIP3    H171965   3.036   6.676  16.471  0.0519 -0.5780  1.2249
16850TIP3    H271966   3.128   6.568  16.417 -0.1804  0.4546 -1.2944
16851TIP3   OH271967   4.233   4.808  14.555 -0.5267  0.2382  0.0569
16851TIP3    H171968   4.221   4.714  14.545  1.6638 -0.0495 -0.0402
16851TIP3    H271969   4.206   4.826  14.645 -0.0827 -0.6409  0.3692
16852TIP3   OH271970   3.040   3.444  12.636  0.2813  0.1461  0.0821
16852TIP3    H171971   2.955   3.485  12.657  0.6765  1.4457 -0.7799
16852TIP3    H271972   3.046   3.370  12.697 -2.6251 -1.5239 -1.5202
16853TIP3   OH271973   5.645   4.651   4.376  0.4377  0.5448  0.2875
16853TIP3    H171974   5.728   4.652   4.327  0.3008 -1.9337 -0.0667
16853TIP3    H271975   5.580   4.622   4.312 -0.9989  3.6492  0.2309
16854TIP3   OH271976   5.049   5.024  16.904  0.4237 -0.0615  0.4985
16854TIP3    H171977   5.023   5.085  16.973  1.2724  1.2291 -0.2971
16854TIP3    H271978   4.978   5.029  16.839  0.2306 -0.3226  0.6900
16855TIP3   OH271979   2.046   3.756   3.371  0.0875 -0.0357 -0.5652
16855TIP3    H171980   2.104   3.831   3.361 -0.6541  0.3369 -2.3067
16855TIP3    H271981   2.075   3.693   3.305 -0.9469 -0.1829 -0.8997
16856TIP3   OH271982   3.060   3.347   5.773 -0.3592  0.2695  0.3632
16856TIP3    H171983   2.969   3.331   5.750 -0.6208  2.8394 -0.5988
16856TIP3    H271984   3.097   3.260   5.788 -2.3940 -0.9544 -1.4306
16857TIP3   OH271985   4.145   4.955   2.153 -0.0311 -0.7554  0.0315
16857TIP3    H171986   4.120   4.885   2.093 -3.1394  0.5833 -0.3286
16857TIP3    H271987   4.162   4.911   2.236 -0.2350 -2.1105 -0.6299
16858TIP3   OH271988   3.102   5.600   0.897 -0.4152 -0.3133  0.8639
16858TIP3    H171989   3.018   5.615   0.853 -0.2346  0.9442  0.9527
16858TIP3    H271990   3.085   5.618   0.989 -0.0716 -0.1864  0.9020
16859TIP3   OH271991   4.288   1.881   1.068 -0.2583 -0.4285 -0.1173
16859TIP3    H171992   4.359   1.939   1.042  0.0533 -0.6048  0.3443
16859TIP3    H271993   4.209   1.934   1.057 -0.1889 -0.6606 -1.9273
16860TIP3   OH271994   3.060   4.173  14.342 -0.3286 -0.0539  0.4957
16860TIP3    H171995   3.013   4.228  14.404 -1.0080 -0.5019  0.3835
16860TIP3    H271996   3.040   4.210  14.256  1.0967  0.9333  0.5725
16861TIP3   OH271997   6.554   3.232  14.637 -0.0296  0.3971 -0.3417
16861TIP3    H171998   6.637   3.261  14.674 -0.6616  0.7944  0.7977
16861TIP3    H271999   6.557   3.261  14.546  1.0180  0.5250 -0.2770
16862TIP3   OH272000   1.389   4.632   6.615 -0.0551 -0.4229  0.2557
16862TIP3    H172001   1.370   4.700   6.550  2.4829 -0.4648 -0.5614
16862TIP3    H272002   1.303   4.599   6.640 -1.2858  2.3157 -0.1522
16863TIP3   OH272003   1.347   1.704  12.721  0.2493  0.5824  0.0615
16863TIP3    H172004   1.279   1.704  12.789 -0.9717 -1.5739 -1.1017
16863TIP3    H272005   1.366   1.612  12.706  1.6818  1.0906 -1.3651
16864TIP3   OH272006   3.718   6.612  13.457  0.4231 -0.2299 -0.0535
16864TIP3    H172007   3.697   6.621  13.364 -0.9728 -2.2107  0.0365
16864TIP3    H272008   3.812   6.625  13.462  0.5345 -0.2287 -1.7636
16865TIP3   OH272009   3.815   4.557  10.296  0.2149  0.5597  0.2124
16865TIP3    H172010   3.840   4.646  10.320  0.7136 -0.1392  2.3443
16865TIP3    H272011   3.898   4.514  10.275  0.2270 -0.1058  1.6092
16866TIP3   OH272012   1.810   3.411   1.449  0.1131  0.3847  0.1966
16866TIP3    H172013   1.844   3.499   1.465 -0.5328  0.7974 -0.6725
16866TIP3    H272014   1.812   3.369   1.535  0.3090  1.2883  0.6408
16867TIP3   OH272015   6.435   0.687   1.713  0.6620  0.0961 -0.5518
16867TIP3    H172016   6.529   0.670   1.700  0.7440  0.2118 -0.1216
16867TIP3    H272017   6.407   0.621   1.776  0.3872 -0.1268 -0.9110
16868TIP3   OH272018   5.169   4.677   2.323  0.0585  0.1644 -0.9063
16868TIP3    H172019   5.144   4.608   2.262 -1.1430  0.4711 -0.7851
16868TIP3    H272020   5.193   4.631   2.403  1.4624 -0.2280 -1.5553
16869TIP3   OH272021   0.600   5.319  12.834 -0.2599  0.4948  0.1230
16869TIP3    H172022   0.549   5.388  12.791 -0.9068  0.5766  1.0107
16869TIP3    H272023   0.558   5.238  12.806  0.6463  0.4403 -1.1095
16870TIP3   OH272024   5.656   1.819  12.389 -0.3084  0.1952  0.2310
16870TIP3    H172025   5.694   1.790  12.305  3.2968  3.0802  0.7196
16870TIP3    H272026   5.660   1.741  12.445  1.4254 -0.6207 -0.9682
16871TIP3   OH272027   3.287   1.876  17.221 -0.0409  0.0105 -0.1871
16871TIP3    H172028   3.212   1.859  17.164  1.8363 -1.8125 -2.2169
16871TIP3    H272029   3.360   1.893  17.160  1.7349 -0.6494  1.6965
16872TIP3   OH272030   1.682   1.267   5.413 -0.1847  0.0615 -0.2010
16872TIP3    H172031   1.656   1.175   5.416  0.7977 -0.1936  0.7461
16872TIP3    H272032   1.610   1.311   5.368 -0.8876 -1.0909 -0.2139
16873TIP3   OH272033   0.937   2.826   0.453  0.4978 -0.2655 -1.0576
16873TIP3    H172034   0.960   2.733   0.461  1.6675  0.0533 -0.6381
16873TIP3    H272035   0.977   2.854   0.371 -0.1544 -0.2114 -1.3613
16874TIP3   OH272036   3.576   6.008  15.605  0.0369  0.3265 -0.6435
16874TIP3    H172037   3.514   6.076  15.634  1.6261  0.7798  1.8126
16874TIP3    H272038   3.529   5.962  15.536 -1.5294  3.2165 -1.6128
16875TIP3   OH272039   3.364   6.633  16.710 -0.3571  0.3726  0.0721
16875TIP3    H172040   3.294   6.604  16.652 -2.4583  2.1796  1.6444
16875TIP3    H272041   3.358   6.574  16.786  0.4049 -0.0113 -0.1538
16876TIP3   OH272042   2.902   0.720   2.022  0.3660 -0.2741 -0.3072
16876TIP3    H172043   2.925   0.671   2.101  0.1058  0.7619  0.4184
16876TIP3    H272044   2.807   0.717   2.017  0.3438  0.1808 -0.2353
16877TIP3   OH272045   0.160   4.945  13.455 -0.2403  0.3555 -0.1136
16877TIP3    H172046   0.144   5.019  13.397 -0.4803  0.8618  0.5956
16877TIP3    H272047   0.081   4.891  13.449 -0.7492  1.0126  0.6450
16878TIP3   OH272048   5.152   3.391   0.186 -0.5490  0.1085 -0.1101
16878TIP3    H172049   5.217   3.400   0.117 -0.8205  0.4612 -0.3211
16878TIP3    H272050   5.195   3.424   0.265  0.3013 -1.7138  0.2241
16879TIP3   OH272051   4.410   6.345   6.238 -0.2706  0.2004 -0.0610
16879TIP3    H172052   4.324   6.344   6.279  0.7723  2.1693  2.3671
16879TIP3    H272053   4.457   6.273   6.280 -0.2917  0.0760 -0.2566
16880TIP3   OH272054   5.942   1.322   3.970  0.9373 -0.3565 -0.3426
16880TIP3    H172055   5.881   1.350   3.902  0.2596  1.0937  0.8216
16880TIP3    H272056   6.027   1.316   3.925  0.3812 -0.0311 -1.4519
16881TIP3   OH272057   3.222   0.215  13.536  0.1249 -0.1448  0.4365
16881TIP3    H172058   3.269   0.254  13.610  1.2743 -1.9826  0.7088
16881TIP3    H272059   3.242   0.272  13.462  0.5923  0.5835  1.1169
16882TIP3   OH272060   2.466   3.063  15.670 -0.1047 -0.1819 -0.1692
16882TIP3    H172061   2.466   3.034  15.762 -0.7064 -0.9802 -0.4212
16882TIP3    H272062   2.374   3.068  15.647  0.0518 -0.0293 -0.7520
16883TIP3   OH272063   6.111   5.464  12.187  0.5785 -0.0536  0.0843
16883TIP3    H172064   6.156   5.392  12.145  1.8461  0.3312  0.7534
16883TIP3    H272065   6.108   5.533  12.121 -1.0774 -0.8729 -0.7207
16884TIP3   OH272066   1.737   1.717   2.338  0.3019  0.0655  0.2211
16884TIP3    H172067   1.725   1.804   2.300 -2.2857 -0.1510  0.4481
16884TIP3    H272068   1.715   1.727   2.430  1.0920 -0.5877  0.4833
16885TIP3   OH272069   5.472   2.628  12.149 -0.2433 -0.4336  0.1218
16885TIP3    H172070   5.438   2.714  12.125  0.8003 -0.2810 -0.8491
16885TIP3    H272071   5.558   2.624  12.108 -0.1316 -1.7999  0.4668
16886TIP3   OH272072   2.015   0.680   5.432  0.5729  0.5012  0.9564
16886TIP3    H172073   1.958   0.603   5.423  1.7415 -0.0682 -1.9677
16886TIP3    H272074   2.053   0.672   5.519  1.1995 -2.6321  0.4424
16887TIP3   OH272075   0.443   1.735   4.814  0.5443 -0.1992  0.0034
16887TIP3    H172076   0.363   1.708   4.859 -0.6935  0.0264 -2.0208
16887TIP3    H272077   0.429   1.828   4.795  1.2058 -0.2061 -0.5313
16888TIP3   OH272078   3.287   0.671  13.353 -0.1592 -0.2220 -0.2711
16888TIP3    H172079   3.315   0.741  13.295 -0.8755 -0.2013 -0.6067
16888TIP3    H272080   3.294   0.592  13.299 -0.1585 -0.2926 -0.1662
16889TIP3   OH272081   6.752   4.269   0.498 -0.0621 -0.4768  0.0740
16889TIP3    H172082   6.677   4.296   0.551 -0.3794 -0.1342 -0.5439
16889TIP3    H272083   6.828   4.278   0.556 -0.7274 -2.8629  1.3803
16890TIP3   OH272084   3.223   1.503  11.768  0.0364  0.2936  0.1066
16890TIP3    H172085   3.174   1.534  11.692  0.1341 -1.6044 -0.7598
16890TIP3    H272086   3.278   1.577  11.793 -1.3041  1.5437 -0.5512
16891TIP3   OH272087   4.116   3.775   5.782 -0.3434 -0.1937  0.3552
16891TIP3    H172088   4.208   3.771   5.811  0.1969 -1.7382 -1.4983
16891TIP3    H272089   4.084   3.685   5.792 -1.3608  0.1259  0.0283
16892TIP3   OH272090   4.534   2.610  10.473 -0.0925 -0.6553  0.1308
16892TIP3    H172091   4.565   2.540  10.415 -0.5424 -1.0676  0.3839
16892TIP3    H272092   4.571   2.588  10.559 -0.8446 -0.9963  0.3728
16893TIP3   OH272093   0.370   5.841   5.006 -0.5451  0.2894 -0.4854
16893TIP3    H172094   0.278   5.846   4.979 -0.4758  1.1262 -0.5738
16893TIP3    H272095   0.409   5.923   4.975  0.4989 -0.5506 -1.4309
16894TIP3   OH272096   0.337   6.333   1.519  0.4115  0.3028 -0.0820
16894TIP3    H172097   0.339   6.344   1.424 -1.0433 -0.0741 -0.1596
16894TIP3    H272098   0.244   6.325   1.541  0.8409 -1.6152  1.1504
16895TIP3   OH272099   6.292   6.329   3.738  0.2261  0.1340  0.5709
16895TIP3    H172100   6.237   6.394   3.695  2.6466  1.5300 -0.5193
16895TIP3    H272101   6.299   6.361   3.828 -0.3273  0.2080  0.5943
16896TIP3   OH272102   5.988   2.369  10.323  0.1552  0.1584 -0.4329
16896TIP3    H172103   5.960   2.409  10.405 -0.4364  0.3849 -0.7405
16896TIP3    H272104   6.028   2.441  10.274 -1.2557  0.4760 -1.1487
16897TIP3   OH272105   5.844   5.649   3.275  0.0949  0.1179  0.0602
16897TIP3    H172106   5.900   5.718   3.240  0.1855  0.3980  0.7451
16897TIP3    H272107   5.780   5.695   3.330  0.1308 -0.3384  0.4856
16898TIP3   OH272108   2.013   4.435  15.352 -0.2355  0.3785  0.5964
16898TIP3    H172109   1.934   4.485  15.370 -0.8027  0.4668 -1.8919
16898TIP3    H272110   2.006   4.357  15.408 -1.5531  0.8985  1.1739
16899TIP3   OH272111   4.784   1.234   5.066 -0.2593 -0.0985 -0.1416
16899TIP3    H172112   4.867   1.277   5.082 -0.0126 -0.6712  0.1471
16899TIP3    H272113   4.718   1.301   5.083  0.1120  0.1321  0.3851
16900TIP3   OH272114   1.162   0.519   2.288  0.5516  0.2834 -0.4399
16900TIP3    H172115   1.207   0.571   2.354 -0.1234 -0.0390  0.2861
16900TIP3    H272116   1.207   0.434   2.290  0.5577  0.2872 -0.4157
16901TIP3   OH272117   3.400   4.932  15.028  0.6076 -0.1622 -0.2748
16901TIP3    H172118   3.411   4.837  15.036 -1.1150 -0.3260  0.2044
16901TIP3    H272119   3.341   4.956  15.100  2.5878  1.5767  0.8533
16902TIP3   OH272120   5.164   2.556  12.049 -0.5284 -0.2542  0.2015
16902TIP3    H172121   5.239   2.612  12.026 -0.2513 -1.5653 -2.2330
16902TIP3    H272122   5.199   2.495  12.114  0.7527 -1.2854 -1.4037
16903TIP3   OH272123   3.934   5.628  13.245  0.4155 -0.0403  0.4199
16903TIP3    H172124   3.995   5.630  13.319  0.8638  0.9615  0.0439
16903TIP3    H272125   3.979   5.678  13.176 -0.1992 -0.5470 -0.3648
16904TIP3   OH272126   3.776   5.894  13.462  0.5860 -0.2352  0.2001
16904TIP3    H172127   3.780   5.853  13.548 -1.3233  1.5811  1.2140
16904TIP3    H272128   3.860   5.939  13.453  0.6894 -0.1938  1.2667
16905TIP3   OH272129   5.654   2.499   1.709  0.0297  0.3530  0.4014
16905TIP3    H172130   5.688   2.411   1.699  0.2878  0.6864 -1.7784
16905TIP3    H272131   5.731   2.553   1.728 -0.0931  0.1867  1.4457
16906TIP3   OH272132   2.615   2.666  16.036  0.0319 -0.3569 -0.3352
16906TIP3    H172133   2.545   2.687  16.097  0.4682 -2.4248  0.9164
16906TIP3    H272134   2.582   2.592  15.985  0.0695  0.6970 -1.9432
16907TIP3   OH272135   4.165   5.232  15.535 -0.5269 -0.0941 -0.1411
16907TIP3    H172136   4.166   5.180  15.615 -0.1937 -0.6566 -0.5131
16907TIP3    H272137   4.213   5.312  15.557  0.1285 -0.5353  0.0262
16908TIP3   OH272138   2.425   1.821   1.526 -0.3791  0.3740  0.0463
16908TIP3    H172139   2.403   1.746   1.471  0.6457 -0.8350  1.2558
16908TIP3    H272140   2.514   1.804   1.556 -0.7052  1.2912  1.6142
16909TIP3   OH272141   6.782   3.393  14.681 -0.0114 -0.2202  0.3785
16909TIP3    H172142   6.802   3.475  14.725 -0.1436  0.0569 -0.0784
16909TIP3    H272143   6.867   3.352  14.667  0.1978  0.6863 -1.0370
16910TIP3   OH272144   2.897   1.689  14.961  0.5374 -0.2577  0.2527
16910TIP3    H172145   2.913   1.781  14.938 -0.6738  0.4740  2.1777
16910TIP3    H272146   2.803   1.676  14.945  0.6544 -1.0940  0.2151
16911TIP3   OH272147   4.887   4.238  11.599  0.0300  0.0055  0.5433
16911TIP3    H172148   4.805   4.209  11.559 -0.7496  0.5748  1.7095
16911TIP3    H272149   4.882   4.333  11.597  0.3968  0.0380  1.1703
16912TIP3   OH272150   5.017   3.538  15.926  0.0664 -0.0932 -0.2590
16912TIP3    H172151   5.091   3.478  15.930 -0.0913 -0.3621 -1.2552
16912TIP3    H272152   4.940   3.483  15.942  0.1420  0.3560  1.7981
16913TIP3   OH272153   6.203   2.893   2.344  0.4859  0.7955  0.6655
16913TIP3    H172154   6.162   2.806   2.347  1.9151  0.1365  2.0575
16913TIP3    H272155   6.196   2.920   2.252 -1.2016 -0.1768  0.4846
16914TIP3   OH272156   4.324   0.575  16.454  0.2264  0.2878  0.0127
16914TIP3    H172157   4.240   0.592  16.411  0.4676  1.4762 -0.0125
16914TIP3    H272158   4.358   0.496  16.411  0.5409  1.5428 -2.1096
16915TIP3   OH272159   1.763   0.147   5.846 -0.1678 -0.0968  0.3690
16915TIP3    H172160   1.719   0.062   5.841  1.1142 -0.8577  1.6684
16915TIP3    H272161   1.812   0.154   5.764 -1.1683 -0.1021 -0.2308
16916TIP3   OH272162   1.998   2.740   1.087  0.0451 -0.0529  0.3578
16916TIP3    H172163   1.989   2.772   1.176 -2.2900 -1.0699  0.5188
16916TIP3    H272164   2.041   2.812   1.040  2.1745  0.1307  2.4540
16917TIP3   OH272165   1.629   4.936  15.915 -0.2414  0.0837  0.2076
16917TIP3    H172166   1.551   4.916  15.864  0.8832 -0.9313 -1.1818
16917TIP3    H272167   1.696   4.957  15.849  0.7126  0.7067  1.3544
16918TIP3   OH272168   1.972   4.671  12.686 -0.6053 -0.2667 -0.2480
16918TIP3    H172169   1.888   4.677  12.733 -0.1057 -0.6727  0.7046
16918TIP3    H272170   2.027   4.739  12.726 -0.7590  0.6050 -1.4809
16919TIP3   OH272171   4.185   1.943  14.888  0.6180 -0.3894 -0.0904
16919TIP3    H172172   4.256   1.996  14.924  0.1400  1.1938 -1.3938
16919TIP3    H272173   4.184   1.964  14.795 -0.8347 -1.2545 -0.2899
16920TIP3   OH272174   0.232   4.083   2.453 -0.7864  0.7972 -0.2705
16920TIP3    H172175   0.257   4.168   2.490 -0.4954  0.3581  0.5671
16920TIP3    H272176   0.305   4.060   2.396 -1.6414  1.8936 -1.8501
16921TIP3   OH272177   5.721   3.168  11.670  0.0170 -0.7387  0.0552
16921TIP3    H172178   5.723   3.262  11.656 -0.8566 -0.5374  1.2056
16921TIP3    H272179   5.724   3.130  11.582  1.9827  0.3194 -0.3580
16922TIP3   OH272180   0.467   3.169  12.506 -0.0598 -0.2742  0.0691
16922TIP3    H172181   0.441   3.168  12.598 -1.0922  0.5049 -0.2122
16922TIP3    H272182   0.534   3.237  12.500 -2.0672  1.7260 -0.2974
16923TIP3   OH272183   6.151   2.936   4.178  0.6629 -0.5951 -0.0519
16923TIP3    H172184   6.150   2.860   4.120 -0.2785 -1.2732  0.8327
16923TIP3    H272185   6.093   3.000   4.135 -2.3546 -2.1601  1.4860
16924TIP3   OH272186   3.679   4.502   4.121 -0.3878  0.5139 -0.7287
16924TIP3    H172187   3.686   4.443   4.196 -0.8796  0.4620 -0.7255
16924TIP3    H272188   3.761   4.488   4.072 -0.3404  0.0994 -0.5320
16925TIP3   OH272189   0.572   3.154   1.091 -0.3410  0.0077  0.1908
16925TIP3    H172190   0.620   3.081   1.052 -0.3607  0.4893 -0.7482
16925TIP3    H272191   0.480   3.128   1.086 -0.3613  0.1769 -0.3112
16926TIP3   OH272192   2.196   6.039   2.749  0.9282  0.1903 -0.2469
16926TIP3    H172193   2.266   6.012   2.689  1.0568  1.3459 -0.6269
16926TIP3    H272194   2.187   6.133   2.734  2.0361  0.8192  2.6298
16927TIP3   OH272195   5.724   1.037   2.450  0.1224  0.5553  0.6722
16927TIP3    H172196   5.741   1.025   2.357  0.5606  0.8629  0.7094
16927TIP3    H272197   5.652   0.977   2.470 -0.1813  0.7159  0.0666
16928TIP3   OH272198   4.629   2.281  13.343 -0.1166  0.4377  0.0023
16928TIP3    H172199   4.620   2.228  13.264 -0.7215  0.5375  0.0005
16928TIP3    H272200   4.591   2.365  13.320  1.2213  1.0099 -0.1222
16929TIP3   OH272201   4.729   5.508  13.076  0.5941 -0.0268 -0.0681
16929TIP3    H172202   4.654   5.451  13.060  0.7266 -0.2490  0.0902
16929TIP3    H272203   4.782   5.460  13.140 -0.1424  1.0442  1.3615
16930TIP3   OH272204   6.593   4.414   5.267 -0.7773  0.0626  0.4211
16930TIP3    H172205   6.580   4.453   5.353  1.5018  0.1102  0.7522
16930TIP3    H272206   6.681   4.377   5.269 -0.5464  0.3692 -2.0064
16931TIP3   OH272207   0.581   1.304  10.990 -0.2679  0.3604 -0.2720
16931TIP3    H172208   0.598   1.213  10.967 -0.1089 -0.6654  3.4987
16931TIP3    H272209   0.618   1.355  10.918 -1.6260 -2.5727 -3.1178
16932TIP3   OH272210   6.172   3.007   1.277  0.2657  0.5860 -0.3337
16932TIP3    H172211   6.182   2.960   1.360  2.5564 -0.1681 -1.0018
16932TIP3    H272212   6.078   3.018   1.267 -0.2036 -1.8678  0.9826
16933TIP3   OH272213   6.116   0.184   3.290 -0.1355 -0.2145  0.3795
16933TIP3    H172214   6.178   0.137   3.346 -0.2738  0.4961  1.1438
16933TIP3    H272215   6.167   0.256   3.254 -0.2709 -0.1781  0.2616
16934TIP3   OH272216   6.497   5.931  15.395 -0.5965  0.3866  0.4819
16934TIP3    H172217   6.499   6.026  15.407 -0.3047  0.2783  1.3068
16934TIP3    H272218   6.589   5.904  15.403 -0.4257  0.2524 -1.6148
16935TIP3   OH272219   0.924   5.234  11.386 -0.9092 -0.5105 -0.4771
16935TIP3    H172220   0.885   5.263  11.304 -1.4282 -0.9734 -0.4010
16935TIP3    H272221   1.009   5.198  11.362 -1.1948 -0.9319 -0.8528
16936TIP3   OH272222   4.136   1.301  11.085  0.2917  0.4122 -0.4212
16936TIP3    H172223   4.042   1.312  11.104  0.2083 -0.4099 -0.3447
16936TIP3    H272224   4.138   1.272  10.994  0.5624  1.9424 -0.9215
16937TIP3   OH272225   6.158   6.435  11.266  0.4880 -0.2752 -0.1070
16937TIP3    H172226   6.080   6.480  11.300  1.2567  1.6899 -0.8579
16937TIP3    H272227   6.207   6.504  11.222  2.3490 -1.6348 -0.1870
16938TIP3   OH272228   0.502   2.978  13.911  0.5059 -0.3035  0.1941
16938TIP3    H172229   0.413   2.968  13.879  0.7843 -0.3173 -0.6000
16938TIP3    H272230   0.496   3.041  13.982  0.0946  0.9342 -0.9288
16939TIP3   OH272231   0.235   4.877   4.568  0.2012 -0.3733  0.1890
16939TIP3    H172232   0.282   4.910   4.492 -1.2936 -1.4628 -1.2518
16939TIP3    H272233   0.161   4.937   4.579  0.4403 -0.1864  0.8302
16940TIP3   OH272234   3.228   0.885   6.179 -0.3417 -0.3398 -0.1323
16940TIP3    H172235   3.211   0.880   6.273  0.8664  1.4261  0.2164
16940TIP3    H272236   3.163   0.828   6.139 -1.3914 -0.4719  1.7205
16941TIP3   OH272237   1.780   3.397   3.724  0.5667 -0.1717 -0.7020
16941TIP3    H172238   1.808   3.437   3.641  2.2452  0.2807  0.0448
16941TIP3    H272239   1.742   3.313   3.699 -0.2138  0.5619 -2.0445
16942TIP3   OH272240   3.224   1.564   2.301  0.1513 -0.3778  0.5402
16942TIP3    H172241   3.307   1.522   2.276 -0.4838 -1.7634  0.7423
16942TIP3    H272242   3.160   1.528   2.240 -0.5735 -0.3942  1.3122
16943TIP3   OH272243   4.586   2.861  15.942  0.0503  0.2455  0.1361
16943TIP3    H172244   4.557   2.846  15.852 -1.4078 -0.3167  0.6988
16943TIP3    H272245   4.592   2.774  15.981 -0.1841  0.5439  0.8468
16944TIP3   OH272246   2.133   0.420   1.016  0.1897 -0.4769  0.0515
16944TIP3    H172247   2.195   0.420   1.089 -0.3418 -1.1951  0.5090
16944TIP3    H272248   2.187   0.438   0.939  0.8227 -0.1742  0.5615
16945TIP3   OH272249   6.066   2.678  14.635  0.5279  0.4986  0.3607
16945TIP3    H172250   6.071   2.616  14.708 -0.9896 -1.3223 -1.0036
16945TIP3    H272251   6.052   2.763  14.676  2.3206 -0.0974  2.2808
16946TIP3   OH272252   3.966   6.729  13.431 -0.2344  0.0819 -0.0199
16946TIP3    H172253   3.928   6.813  13.404 -2.6276 -1.0501 -0.2760
16946TIP3    H272254   3.998   6.690  13.350  0.0160  0.3349 -0.0412
16947TIP3   OH272255   3.369   3.894  13.621 -0.6529  0.3766 -0.6802
16947TIP3    H172256   3.421   3.913  13.542  0.6050 -0.4432 -0.0681
16947TIP3    H272257   3.320   3.974  13.637 -0.1433  0.9128 -1.7143
16948TIP3   OH272258   2.102   3.191   2.754 -0.1943 -0.4866  0.0329
16948TIP3    H172259   2.040   3.226   2.818  0.2318 -0.3244  0.3599
16948TIP3    H272260   2.137   3.112   2.796  0.3719 -0.1697  0.1705
16949TIP3   OH272261   1.423   4.363   2.896 -0.0107  0.3757 -0.3161
16949TIP3    H172262   1.479   4.303   2.848  1.5682  1.9645 -0.5064
16949TIP3    H272263   1.460   4.366   2.984 -0.0143  1.1550 -0.3369
16950TIP3   OH272264   1.407   4.521  16.920 -0.4332  0.2243 -0.0393
16950TIP3    H172265   1.379   4.502  17.010  0.7638  0.7522  0.4604
16950TIP3    H272266   1.387   4.614  16.907  0.6655  0.5023  0.1794
16951TIP3   OH272267   5.662   0.421   1.469 -0.1476  0.1008  0.3148
16951TIP3    H172268   5.632   0.503   1.507 -2.4883 -0.8542  0.6557
16951TIP3    H272269   5.617   0.417   1.384  2.5663  0.7302 -1.2011
16952TIP3   OH272270   5.177   4.395  16.948 -0.1195  0.2571 -1.0070
16952TIP3    H172271   5.094   4.402  16.900  0.2009  1.0809 -1.4571
16952TIP3    H272272   5.228   4.331  16.898 -1.7704 -2.9203  1.2162
16953TIP3   OH272273   1.570   3.407  12.488  0.0922 -0.2424 -0.4025
16953TIP3    H172274   1.587   3.329  12.540 -0.5529  0.0107  0.1905
16953TIP3    H272275   1.475   3.412  12.482  0.1369  0.3569 -0.6547
16954TIP3   OH272276   5.008   1.522  14.492 -0.6822 -0.2404 -0.5478
16954TIP3    H172277   4.945   1.563  14.432 -0.1044  1.3724 -0.0873
16954TIP3    H272278   5.047   1.596  14.538  0.1673 -1.3627  0.5385
16955TIP3   OH272279   0.162   3.565  16.188 -0.5257 -0.0950  0.3906
16955TIP3    H172280   0.241   3.534  16.230 -0.3915 -1.8644 -1.0943
16955TIP3    H272281   0.091   3.533  16.243 -0.2652  0.2161  0.9091
16956TIP3   OH272282   5.580   1.062   3.636  0.4777 -0.9213  0.4797
16956TIP3    H172283   5.563   1.110   3.554  1.5173  0.3451  0.9842
16956TIP3    H272284   5.675   1.052   3.638  0.3769 -1.7479  1.0955
16957TIP3   OH272285   1.958   0.446  14.024 -0.5217  0.2600  0.4743
16957TIP3    H172286   1.921   0.385  13.960  0.5116 -0.5620  0.6383
16957TIP3    H272287   1.883   0.481  14.071 -1.2286  0.2576 -0.6513
16958TIP3   OH272288   4.640   4.222  11.473  0.2089  0.2619  0.4032
16958TIP3    H172289   4.576   4.234  11.543  0.3840  0.3655  0.5450
16958TIP3    H272290   4.587   4.198  11.396 -0.0750  1.1170  0.3209
16959TIP3   OH272291   3.608   4.914   1.821  0.3008  0.2680 -0.0199
16959TIP3    H172292   3.518   4.888   1.840 -0.0262  1.0428 -0.4787
16959TIP3    H272293   3.602   5.008   1.802  1.1771  0.2842 -0.2247
16960TIP3   OH272294   0.344   5.688   6.399 -0.2234  0.1407 -0.2971
16960TIP3    H172295   0.393   5.652   6.325 -0.8278 -1.0577 -0.1306
16960TIP3    H272296   0.363   5.628   6.471  1.4843  2.0750  0.9238
16961TIP3   OH272297   3.451   4.580  14.024  0.2005 -0.0437  0.0058
16961TIP3    H172298   3.527   4.619  14.067  0.0776  0.2809 -0.0697
16961TIP3    H272299   3.422   4.511  14.084 -0.6014  1.0909  0.9341
16962TIP3   OH272300   0.205   1.141  15.007 -0.0146  0.0800  0.3505
16962TIP3    H172301   0.271   1.072  15.007 -0.5381 -0.4395  2.2588
16962TIP3    H272302   0.235   1.203  14.940  1.8281 -0.6773  0.4564
16963TIP3   OH272303   3.519   4.960  13.326 -0.4810  0.0847 -0.1186
16963TIP3    H172304   3.556   5.047  13.313  2.9148 -1.0700  1.2274
16963TIP3    H272305   3.446   4.956  13.264 -0.2994  3.6243 -0.6739
16964TIP3   OH272306   2.394   4.691  14.503  0.1929 -0.4033 -0.0210
16964TIP3    H172307   2.355   4.750  14.567  0.6448 -0.9640  0.7896
16964TIP3    H272308   2.327   4.680  14.435  0.2281  1.2654 -0.3343
16965TIP3   OH272309   3.167   4.140  11.348 -0.0177 -1.1455 -0.0405
16965TIP3    H172310   3.100   4.206  11.334  0.9377 -0.0273  0.5185
16965TIP3    H272311   3.238   4.165  11.289  0.6387 -1.2363  0.6986
16966TIP3   OH272312   6.719   1.365   2.518 -0.2526 -0.3656  0.1976
16966TIP3    H172313   6.668   1.446   2.509 -2.5460 -1.8644 -0.8452
16966TIP3    H272314   6.676   1.319   2.590  0.4367 -1.0871  0.1439
16967TIP3   OH272315   2.174   3.277   6.378  0.7910 -0.0491  0.1810
16967TIP3    H172316   2.175   3.216   6.451  0.6357 -0.1543  0.0968
16967TIP3    H272317   2.081   3.292   6.360  0.8265 -0.2324 -0.1644
16968TIP3   OH272318   5.377   2.679  10.854 -0.2169  0.1038  0.0617
16968TIP3    H172319   5.470   2.669  10.873 -0.5007 -0.6092  1.0993
16968TIP3    H272320   5.356   2.605  10.797 -0.6536 -1.0335  1.6857
16969TIP3   OH272321   2.655   1.495  16.595 -0.0766 -0.0674  0.5629
16969TIP3    H172322   2.603   1.415  16.596 -0.4098  0.1136 -0.7819
16969TIP3    H272323   2.619   1.548  16.666 -2.2269  0.3525 -0.8045
16970TIP3   OH272324   3.416   1.260  11.660 -0.0867  0.1357  0.4405
16970TIP3    H172325   3.424   1.355  11.652  0.4169  0.0637 -0.0092
16970TIP3    H272326   3.326   1.245  11.687  0.0096  0.7768  1.1271
16971TIP3   OH272327   0.656   2.099  16.277  0.6404 -0.1617  0.1272
16971TIP3    H172328   0.617   2.064  16.357 -1.0655  0.6196 -0.3477
16971TIP3    H272329   0.603   2.176  16.256  1.8489  0.3736 -1.0691
16972TIP3   OH272330   1.629   6.516  10.974 -0.1329 -0.1356 -0.8784
16972TIP3    H172331   1.634   6.476  10.887  2.5601  2.2989 -1.9385
16972TIP3    H272332   1.661   6.448  11.033  0.8429 -0.8483 -2.1909
16973TIP3   OH272333   6.374   0.607   2.768  0.2503  0.5287  0.3723
16973TIP3    H172334   6.361   0.586   2.675  0.5970  0.5180  0.3258
16973TIP3    H272335   6.370   0.703   2.772  1.5457  0.6038  0.1411
16974TIP3   OH272336   5.277   1.419  16.982 -0.4236  0.2233 -0.2136
16974TIP3    H172337   5.346   1.431  17.048 -0.9017  0.5686  0.2293
16974TIP3    H272338   5.196   1.440  17.028 -0.7845  0.2499 -0.8554
16975TIP3   OH272339   0.593   6.399  11.952  0.4336 -0.1215 -0.0806
16975TIP3    H172340   0.676   6.437  11.925 -0.5604  3.0215  1.0693
16975TIP3    H272341   0.617   6.317  11.996  2.8496  0.3762 -0.4104
16976TIP3   OH272342   0.972   3.830  12.884 -0.0629 -0.2125  0.1840
16976TIP3    H172343   1.050   3.778  12.863 -1.1630 -1.7555 -0.2099
16976TIP3    H272344   0.967   3.895  12.815  0.1238 -0.9878 -0.5697
16977TIP3   OH272345   4.246   2.920  11.063 -0.2304  0.1993  0.0376
16977TIP3    H172346   4.161   2.923  11.108 -1.9249  1.7512 -3.1089
16977TIP3    H272347   4.242   2.839  11.011  0.3858  0.0765  0.1797
16978TIP3   OH272348   3.296   4.941   1.451  0.2703 -0.1429  0.6076
16978TIP3    H172349   3.378   4.900   1.477  0.2606 -0.7746 -0.3417
16978TIP3    H272350   3.248   4.953   1.533  0.6715 -1.1659  0.9987
16979TIP3   OH272351   2.813   1.082   2.794  0.5358 -0.0769 -0.2512
16979TIP3    H172352   2.779   0.994   2.778 -2.2423  0.8826  0.1303
16979TIP3    H272353   2.845   1.079   2.884 -0.2893 -0.4679  0.0316
16980TIP3   OH272354   0.292   3.908   2.777 -0.1250  0.0753  0.4576
16980TIP3    H172355   0.318   3.860   2.698 -0.8720  0.5582 -0.0882
16980TIP3    H272356   0.259   3.840   2.836 -2.3401  0.0299 -0.7910
16981TIP3   OH272357   5.040   4.695   5.755  0.3870 -0.0162 -0.0934
16981TIP3    H172358   4.979   4.708   5.827  1.3893 -0.5825  0.8859
16981TIP3    H272359   4.993   4.724   5.677 -0.6630  0.7482  0.8084
16982TIP3   OH272360   3.799   5.394  15.019  0.3089 -0.0030 -0.3652
16982TIP3    H172361   3.771   5.482  15.043  0.6441  0.5761 -2.0724
16982TIP3    H272362   3.727   5.358  14.968  0.8008 -0.1488 -0.9649
16983TIP3   OH272363   4.445   0.620   1.024 -0.2075  0.8003  0.1957
16983TIP3    H172364   4.477   0.675   1.096  3.8533 -0.9021 -0.2205
16983TIP3    H272365   4.411   0.542   1.067 -1.9084  1.6637  0.4858
16984TIP3   OH272366   4.750   2.706  16.868 -0.1582  0.1674 -0.2471
16984TIP3    H172367   4.698   2.648  16.924  1.5164  0.0177  1.1804
16984TIP3    H272368   4.690   2.778  16.846 -1.1167 -0.2391  0.9804
16985TIP3   OH272369   6.615   3.302   5.272 -0.3249  0.0116  0.4091
16985TIP3    H172370   6.707   3.291   5.247 -0.3760 -1.2360  0.7613
16985TIP3    H272371   6.602   3.240   5.343 -1.1364  1.0322  1.1610
16986TIP3   OH272372   0.553   1.590   0.803 -0.3790 -0.4400 -0.1387
16986TIP3    H172373   0.557   1.585   0.707  0.1853  3.0649 -0.3785
16986TIP3    H272374   0.644   1.578   0.831 -0.3368 -0.1221 -0.1382
16987TIP3   OH272375   4.034   2.014   3.789  0.5222  0.4822 -0.1258
16987TIP3    H172376   4.002   2.050   3.872  1.1832 -1.4728  1.0030
16987TIP3    H272377   3.991   2.068   3.722  0.1253  2.2066  1.4664
16988TIP3   OH272378   4.710   6.027  13.451 -0.1057  0.3146 -0.1959
16988TIP3    H172379   4.740   5.988  13.369 -0.6533  2.0364 -1.2387
16988TIP3    H272380   4.664   5.956  13.497  1.2162 -0.9754 -0.8230
16989TIP3   OH272381   0.598   2.109   2.652 -0.2705 -0.5572 -0.1564
16989TIP3    H172382   0.579   2.080   2.563 -0.6338 -2.1582  0.4210
16989TIP3    H272383   0.512   2.115   2.694 -0.1995  1.3070 -0.2179
16990TIP3   OH272384   5.193   5.563   2.065 -0.6112 -0.4379 -0.3868
16990TIP3    H172385   5.232   5.504   2.129  0.3229  0.4694 -0.0995
16990TIP3    H272386   5.185   5.511   1.986  3.5170  0.0272 -1.2001
16991TIP3   OH272387   5.967   4.028  15.484  0.4776 -0.1595 -0.0885
16991TIP3    H172388   5.941   3.942  15.449  0.0708 -0.0701 -0.0119
16991TIP3    H272389   6.061   4.034  15.466  0.7861 -1.1758  1.0872
16992TIP3   OH272390   5.578   1.440  11.029  0.6032 -0.1766  0.5054
16992TIP3    H172391   5.595   1.347  11.015 -0.0690 -0.2539  0.1589
16992TIP3    H272392   5.483   1.448  11.019  0.1452 -0.1000  4.1706
16993TIP3   OH272393   4.306   4.646  12.998 -0.1135 -0.6459  0.0366
16993TIP3    H172394   4.219   4.623  12.966 -0.8842 -1.3242  2.4971
16993TIP3    H272395   4.293   4.724  13.052  0.5713 -1.4998  1.4683
16994TIP3   OH272396   3.615   6.173  11.386 -0.4389 -0.0540  0.9759
16994TIP3    H172397   3.580   6.230  11.317 -1.2391 -1.9417 -0.2236
16994TIP3    H272398   3.538   6.131  11.423  0.1405 -0.3408  1.8560
16995TIP3   OH272399   5.109   3.517   6.363 -0.6984 -0.5326 -0.0689
16995TIP3    H172400   5.062   3.548   6.441 -1.8938 -0.6814 -0.7136
16995TIP3    H272401   5.171   3.453   6.397 -1.9618 -1.4098  0.6704
16996TIP3   OH272402   2.587   0.056  12.884 -0.5077  0.0544  0.1513
16996TIP3    H172403   2.505   0.105  12.873  0.4111  1.4294 -0.6710
16996TIP3    H272404   2.643   0.086  12.812  0.6603 -1.0225  0.5914
16997TIP3   OH272405   4.986   5.648  14.040  0.2308 -0.2058 -0.8441
16997TIP3    H172406   4.925   5.635  13.967  0.1728 -1.6550 -0.5567
16997TIP3    H272407   4.934   5.633  14.118  0.7458 -0.5821 -0.5707
16998TIP3   OH272408   5.039   2.963   4.367 -0.2731  0.7826  0.0532
16998TIP3    H172409   5.015   2.872   4.384 -0.3914  0.4650 -1.6840
16998TIP3    H272410   4.962   3.001   4.324 -0.2974  1.7640  0.9372
16999TIP3   OH272411   3.930   6.081  13.851  0.6904  0.4646 -0.1369
16999TIP3    H172412   3.871   6.006  13.853  0.4581  0.6704  1.4642
16999TIP3    H272413   3.914   6.123  13.767 -0.9288  0.1069 -0.0168
17000TIP3   OH272414   3.290   6.735   5.337  0.0883  0.1367  0.5580
17000TIP3    H172415   3.343   6.776   5.269 -1.2306 -0.1706 -0.6789
17000TIP3    H272416   3.300   6.793   5.413  0.7399  1.0648 -0.2213
17001TIP3   OH272417   2.905   5.838  12.296  0.3287 -0.1414 -0.0517
17001TIP3    H172418   2.991   5.880  12.286  0.7699 -0.4984  1.9411
17001TIP3    H272419   2.855   5.900  12.349 -0.5741 -0.0479 -1.0030
17002TIP3   OH272420   4.847   0.226   1.894  0.0661  0.6064  0.0721
17002TIP3    H172421   4.840   0.186   1.808  0.6050 -2.3205  1.3202
17002TIP3    H272422   4.915   0.293   1.885  1.4011 -0.9064 -1.3262
17003TIP3   OH272423   0.294   4.653   4.851 -0.0176 -0.4318  0.0714
17003TIP3    H172424   0.289   4.594   4.926  1.1652  0.4600  0.8751
17003TIP3    H272425   0.292   4.740   4.888  1.6344  0.0207 -0.8419
17004TIP3   OH272426   2.362   4.868   5.910  0.1673 -0.1355  0.5113
17004TIP3    H172427   2.374   4.871   6.005 -1.5785 -0.4581  0.7539
17004TIP3    H272428   2.314   4.948   5.889  0.1916 -0.2611 -0.0454
17005TIP3   OH272429   3.127   1.142  16.658 -0.1934  0.4236  0.1611
17005TIP3    H172430   3.048   1.152  16.605  0.2035 -1.4328 -0.8551
17005TIP3    H272431   3.117   1.057  16.701  1.0869  0.3091  0.2755
17006TIP3   OH272432   3.853   4.965  13.765 -0.5033  0.9450 -0.2951
17006TIP3    H172433   3.924   4.920  13.812  0.1358  2.6182  0.3876
17006TIP3    H272434   3.804   4.895  13.722 -0.5224 -0.5402  2.0902
17007TIP3   OH272435   3.866   0.698   5.587  0.1232 -0.3346  0.2012
17007TIP3    H172436   3.911   0.720   5.669 -0.9995  0.6412  0.5612
17007TIP3    H272437   3.777   0.730   5.598  0.2579  0.8500 -1.8467
17008TIP3   OH272438   4.933   1.564  11.956  0.5709 -0.2896 -1.0730
17008TIP3    H172439   4.933   1.526  12.044 -0.2575  0.0010 -0.9456
17008TIP3    H272440   4.943   1.658  11.970  1.7379 -0.3541 -1.3548
17009TIP3   OH272441   2.010   2.730   2.395  0.6802 -0.7721 -0.6303
17009TIP3    H172442   1.915   2.732   2.407  0.6097 -0.4801 -1.2238
17009TIP3    H272443   2.023   2.758   2.304  1.3787  0.1240 -0.2635
17010TIP3   OH272444   1.995   3.528  10.595 -0.3142  0.5120  0.1061
17010TIP3    H172445   2.089   3.524  10.579 -0.5851 -1.6262 -1.2383
17010TIP3    H272446   1.970   3.618  10.575  1.2176  0.7522 -0.7806
17011TIP3   OH272447   1.025   6.474   0.612 -0.1993  0.4266 -0.5865
17011TIP3    H172448   1.088   6.479   0.684 -0.7640  0.2732 -0.0780
17011TIP3    H272449   1.063   6.529   0.544  1.0655 -0.6064 -0.7310
17012TIP3   OH272450   2.183   1.800  12.499 -0.0688 -0.4003  0.7275
17012TIP3    H172451   2.233   1.751  12.564  1.5158  0.7030  0.3733
17012TIP3    H272452   2.101   1.751  12.490  0.3400 -1.4369  2.3790
17013TIP3   OH272453   0.720   1.776  16.357 -0.2469  0.1114  0.2315
17013TIP3    H172454   0.779   1.834  16.405  2.2449 -2.4432  0.3490
17013TIP3    H272455   0.765   1.757  16.275 -1.3976 -1.0464 -0.1592
17014TIP3   OH272456   4.623   3.694   3.372 -0.3110  0.3997 -0.5994
17014TIP3    H172457   4.596   3.614   3.329 -0.3224  0.8170 -1.3758
17014TIP3    H272458   4.549   3.719   3.427 -0.7009  0.4226 -1.1343
17015TIP3   OH272459   0.574   4.232   4.726  0.6843 -0.2282 -0.0099
17015TIP3    H172460   0.579   4.210   4.634 -1.9526  1.2703 -0.5512
17015TIP3    H272461   0.505   4.177   4.761  0.8921  0.0290  0.8270
17016TIP3   OH272462   3.569   5.495   2.932  0.2142  0.3746  0.3457
17016TIP3    H172463   3.531   5.419   2.888  2.0317 -0.6467  0.5026
17016TIP3    H272464   3.664   5.482   2.926  0.5330  1.6170  2.1050
17017TIP3   OH272465   5.571   6.116  16.962 -0.0697 -0.2124  0.2599
17017TIP3    H172466   5.628   6.077  17.028  0.5572 -0.5296 -0.4696
17017TIP3    H272467   5.580   6.210  16.976  0.5551 -0.2629  0.2067
17018TIP3   OH272468   2.767   3.003   2.784  0.6125 -0.5420 -0.2986
17018TIP3    H172469   2.847   2.995   2.732 -0.9005 -2.4007 -2.3961
17018TIP3    H272470   2.732   2.914   2.787 -1.0426  0.1377  1.1783
17019TIP3   OH272471   0.845   6.098  12.270  0.3586  0.0856 -0.2608
17019TIP3    H172472   0.895   6.079  12.349 -0.5271 -2.8902 -0.3521
17019TIP3    H272473   0.891   6.051  12.200  0.1140  1.2010 -1.1869
17020TIP3   OH272474   5.464   3.271   3.193  0.0262 -0.3485 -0.4012
17020TIP3    H172475   5.486   3.197   3.250  1.4180 -0.2601 -0.7919
17020TIP3    H272476   5.505   3.250   3.109  1.4205  1.3622 -0.1885
17021TIP3   OH272477   1.376   1.413   0.752  0.0396  1.0731  0.4030
17021TIP3    H172478   1.445   1.347   0.750 -0.2470  0.7596  0.7001
17021TIP3    H272479   1.421   1.495   0.734  0.2380  0.6720 -0.9803
17022TIP3   OH272480   1.372   5.467   0.063  0.2338 -0.6820 -0.1151
17022TIP3    H172481   1.391   5.429   0.149  1.6745 -1.4348 -0.7460
17022TIP3    H272482   1.354   5.559   0.081 -1.5434 -1.2770  1.2351
17023TIP3   OH272483   1.440   6.716   2.398 -0.0298 -0.2505 -0.1739
17023TIP3    H172484   1.366   6.657   2.416 -0.3438  0.1800 -0.0409
17023TIP3    H272485   1.516   6.668   2.429 -0.4403  0.0013  1.3154
17024TIP3   OH272486   4.310   2.574  10.943 -0.1160  0.4141 -0.3624
17024TIP3    H172487   4.284   2.628  10.869 -0.6523  2.1497  1.0593
17024TIP3    H272488   4.258   2.494  10.934 -1.2915  1.2476 -1.0223
17025TIP3   OH272489   2.389   5.013   1.911 -0.4076 -0.2778  0.0437
17025TIP3    H172490   2.405   5.093   1.860 -2.0411 -0.5386 -0.9102
17025TIP3    H272491   2.414   5.036   2.001  1.7237  0.4469 -0.7059
17026TIP3   OH272492   6.740   5.428  13.933 -0.5324 -0.0543  0.1433
17026TIP3    H172493   6.835   5.417  13.937 -0.6665 -1.8367 -1.0021
17026TIP3    H272494   6.714   5.441  14.024  0.6169 -1.5704  0.7243
17027TIP3   OH272495   2.849   4.857   5.375  0.2878 -0.3600 -0.3812
17027TIP3    H172496   2.840   4.942   5.416 -0.5293 -0.4573 -0.3472
17027TIP3    H272497   2.854   4.875   5.281 -0.9168 -0.3380 -0.4460
17028TIP3   OH272498   4.751   6.659   4.380  0.0454  0.2912  0.1790
17028TIP3    H172499   4.840   6.653   4.414 -0.1052 -0.4214  0.4611
17028TIP3    H272500   4.704   6.587   4.423  0.1064 -1.2998 -2.3217
17029TIP3   OH272501   5.500   1.377   2.159 -0.1021 -0.1741 -0.4183
17029TIP3    H172502   5.407   1.353   2.159 -0.2644  0.4565 -0.6200
17029TIP3    H272503   5.535   1.337   2.239 -0.3736 -1.0697 -0.7424
17030TIP3   OH272504   5.982   6.038   0.746  0.5831  0.6037 -0.1271
17030TIP3    H172505   5.967   5.946   0.768  1.9999  0.3342 -0.2341
17030TIP3    H272506   5.911   6.085   0.789  0.9990 -0.3444  1.6184
17031TIP3   OH272507   2.097   6.250  16.095 -0.0763  0.0919 -0.8496
17031TIP3    H172508   2.118   6.248  16.188 -0.6944 -2.4960 -0.7260
17031TIP3    H272509   2.033   6.320  16.086  0.6523  0.9463  0.5184
17032TIP3   OH272510   0.312   2.763  13.377 -0.3462 -0.2745 -0.1805
17032TIP3    H172511   0.394   2.786  13.333 -0.4417 -1.1264 -0.8130
17032TIP3    H272512   0.322   2.797  13.465  0.0093  1.1008 -0.7494
17033TIP3   OH272513   4.572   4.656  14.616  0.7437  0.0553 -0.3524
17033TIP3    H172514   4.536   4.705  14.690  0.5799 -3.0091  1.6672
17033TIP3    H272515   4.538   4.702  14.539 -1.2681  1.7572  1.4611
17034TIP3   OH272516   6.111   1.570  11.142 -0.5057  0.8248  0.0757
17034TIP3    H172517   6.109   1.517  11.222 -0.7053 -1.5583 -1.4451
17034TIP3    H272518   6.138   1.657  11.171  1.0318 -0.4125  2.5130
17035TIP3   OH272519   0.903   3.588   4.673 -0.1361 -0.5302  0.3503
17035TIP3    H172520   0.843   3.662   4.685  0.1231 -0.3858  0.7891
17035TIP3    H272521   0.860   3.515   4.716 -0.7407 -0.8199 -0.7390
17036TIP3   OH272522   3.369   3.471  13.490  0.4093  0.0984 -0.1595
17036TIP3    H172523   3.407   3.398  13.439  0.0267 -0.3270  0.1569
17036TIP3    H272524   3.288   3.434  13.527  0.2053  0.6942 -0.0109
17037TIP3   OH272525   2.550   1.052   4.869  0.4255 -0.2406  0.4038
17037TIP3    H172526   2.492   1.102   4.812  1.4141  1.5629  0.9412
17037TIP3    H272527   2.515   0.963   4.867 -2.8484  0.9906  1.4359
17038TIP3   OH272528   5.097   0.921   0.520 -0.0613 -0.2403 -0.5568
17038TIP3    H172529   5.157   0.995   0.532  0.6641 -0.7099 -1.2543
17038TIP3    H272530   5.036   0.951   0.451 -0.9719  0.4361  0.5170
17039TIP3   OH272531   5.331   4.051  14.133  0.1545  0.2980 -0.0668
17039TIP3    H172532   5.296   3.982  14.190  0.9608  0.9020  1.2076
17039TIP3    H272533   5.395   4.097  14.188  0.7860  1.0600 -1.4003
17040TIP3   OH272534   4.384   0.441  16.040  0.2467 -0.0808  0.0723
17040TIP3    H172535   4.323   0.393  15.985  0.2462 -0.1746  0.1528
17040TIP3    H272536   4.348   0.434  16.129  0.8289 -0.8819  0.2567
17041TIP3   OH272537   2.048   1.685  14.057 -0.0490  0.0711  0.5492
17041TIP3    H172538   2.143   1.686  14.067 -0.1797  1.2986  1.8643
17041TIP3    H272539   2.017   1.631  14.129 -0.2614 -1.9048 -0.9811
17042TIP3   OH272540   6.754   2.762  15.656  0.1372 -0.0171 -0.2194
17042TIP3    H172541   6.703   2.682  15.643 -1.3208  0.8457  0.0810
17042TIP3    H272542   6.825   2.736  15.715 -0.8493 -0.8852  0.6023
17043TIP3   OH272543   3.892   4.098   6.348  0.0724 -0.1481 -0.2140
17043TIP3    H172544   3.981   4.121   6.375 -0.7089  0.4313  2.0040
17043TIP3    H272545   3.856   4.180   6.314  0.2294 -0.2801 -0.7073
17044TIP3   OH272546   5.553   2.011   0.850 -0.3435 -0.0497 -0.1670
17044TIP3    H172547   5.501   1.940   0.814 -0.3518 -0.0400 -0.1744
17044TIP3    H272548   5.555   2.076   0.780 -1.7208  0.6702  0.4303
17045TIP3   OH272549   3.869   5.203   5.824 -0.6666  0.6131  0.3872
17045TIP3    H172550   3.936   5.137   5.840 -0.2468  0.9880  0.2001
17045TIP3    H272551   3.900   5.280   5.872 -1.6947  0.3464  1.4895
17046TIP3   OH272552   4.374   2.690   5.498 -0.5260  0.6212 -0.1079
17046TIP3    H172553   4.382   2.612   5.552  1.9647  1.0672  0.1998
17046TIP3    H272554   4.280   2.709   5.499 -0.7778 -0.4415  2.5464
17047TIP3   OH272555   5.469   2.740   5.930 -0.1265 -1.1478 -0.0682
17047TIP3    H172556   5.429   2.660   5.965  0.9965 -1.3141  0.8640
17047TIP3    H272557   5.548   2.711   5.886  1.0673 -0.4199  1.5451
17048TIP3   OH272558   3.892   5.705   3.380  0.0018  0.8290  0.2180
17048TIP3    H172559   3.935   5.621   3.395  0.1267  0.7399 -0.6054
17048TIP3    H272560   3.806   5.681   3.344 -0.7920  0.9993  1.9067
17049TIP3   OH272561   2.997   5.364   4.167  0.0131 -0.3600 -0.2047
17049TIP3    H172562   2.964   5.362   4.077  0.2806  1.7812 -0.3684
17049TIP3    H272563   2.949   5.294   4.211 -0.4472 -1.1410 -1.8969
17050TIP3   OH272564   2.453   1.505  14.649 -0.4988  0.4184  0.3690
17050TIP3    H172565   2.372   1.463  14.621  0.4596  0.0220 -1.9039
17050TIP3    H272566   2.430   1.550  14.730 -2.7443 -0.4752  0.2599
17051TIP3   OH272567   0.711   5.533  16.686 -0.6950  0.4341  0.0468
17051TIP3    H172568   0.765   5.547  16.764  0.6558  0.8516 -0.9357
17051TIP3    H272569   0.702   5.620  16.647  0.7538 -0.1088 -1.5918
17052TIP3   OH272570   0.073   0.147  13.102 -0.8268 -0.7416 -0.2732
17052TIP3    H172571   0.099   0.101  13.022  1.4726 -1.1916  0.7047
17052TIP3    H272572   0.155   0.162  13.149 -2.2901 -2.0255  2.8387
17053TIP3   OH272573   1.277   5.525   5.405  0.0035 -0.1915  0.3572
17053TIP3    H172574   1.272   5.610   5.449 -2.5922 -0.7727  1.2434
17053TIP3    H272575   1.351   5.481   5.448  1.1064  1.4379  0.1753
17054TIP3   OH272576   2.999   4.175  11.890 -0.1255 -0.1722  0.0874
17054TIP3    H172577   3.031   4.107  11.831  1.4919  0.7894 -0.2018
17054TIP3    H272578   3.051   4.163  11.970 -0.4062  0.2124  0.3278
17055TIP3   OH272579   1.780   1.847  14.992 -0.1221  0.1722 -0.2167
17055TIP3    H172580   1.845   1.852  14.922 -0.0934 -0.8948 -0.2767
17055TIP3    H272581   1.724   1.923  14.979 -0.1572 -0.0516 -1.4394
17056TIP3   OH272582   1.030   3.251   3.647 -0.4302 -0.0409  0.9486
17056TIP3    H172583   1.107   3.271   3.700  0.0265 -0.4798  0.4526
17056TIP3    H272584   1.059   3.267   3.557 -1.7913  2.6757  0.9492
17057TIP3   OH272585   0.767   4.831  13.121 -0.3823  0.9307 -0.2375
17057TIP3    H172586   0.689   4.865  13.165 -1.6340 -2.3344  0.2127
17057TIP3    H272587   0.744   4.829  13.028 -1.2136 -0.8735 -0.0124
17058TIP3   OH272588   4.037   6.196  15.430 -0.2885  0.4736  0.2422
17058TIP3    H172589   3.992   6.128  15.479  0.5072  1.7186  2.7632
17058TIP3    H272590   4.066   6.153  15.350 -2.9974 -1.1813  0.1095
17059TIP3   OH272591   2.753   5.765  11.366  0.6458  0.7005  0.4686
17059TIP3    H172592   2.668   5.720  11.364  1.5766 -1.0488 -1.7629
17059TIP3    H272593   2.799   5.727  11.441 -0.0850  0.8121  0.9804
17060TIP3   OH272594   4.212   3.125   4.602 -0.3353  0.1645  1.0242
17060TIP3    H172595   4.210   3.193   4.534  0.5887  0.2400  1.0614
17060TIP3    H272596   4.219   3.043   4.553  0.7269  0.2443  1.0275
17061TIP3   OH272597   3.294   2.181  15.779 -0.2906 -0.6021 -0.4969
17061TIP3    H172598   3.280   2.192  15.873 -0.5309  1.8670 -0.7747
17061TIP3    H272599   3.257   2.261  15.741  3.0079  0.1005 -2.3737
17062TIP3   OH272600   3.914   3.887  11.384  0.1422 -0.1642  0.5947
17062TIP3    H172601   3.998   3.856  11.417 -0.3638  0.2870  2.3904
17062TIP3    H272602   3.896   3.966  11.436 -1.3365 -0.2108  0.1696
17063TIP3   OH272603   4.963   2.888   2.216  0.2114  0.0284 -0.3025
17063TIP3    H172604   5.050   2.854   2.235  0.1091 -0.4288 -0.6618
17063TIP3    H272605   4.977   2.954   2.148  0.5470  1.4951  1.1542
17064TIP3   OH272606   1.591   5.912  10.637  0.2084  0.2979 -0.4879
17064TIP3    H172607   1.560   5.852  10.705  3.7072  0.9672  1.8416
17064TIP3    H272608   1.643   5.857  10.578  2.1556  0.6777  0.8066
17065TIP3   OH272609   5.185   6.440  14.833  0.4503 -0.0300 -0.1230
17065TIP3    H172610   5.251   6.408  14.771  1.5830  2.9566 -0.5588
17065TIP3    H272611   5.124   6.490  14.779  0.0131  0.4504  0.8121
17066TIP3   OH272612   5.755   2.306  13.951  0.7185  0.3218  0.4168
17066TIP3    H172613   5.759   2.233  14.012 -1.1654  0.4388  0.7082
17066TIP3    H272614   5.831   2.294  13.894  0.3635 -1.9354  0.3841
17067TIP3   OH272615   4.954   5.708   4.621 -0.0410 -0.0326  0.6066
17067TIP3    H172616   5.001   5.790   4.634  1.1250 -0.8026  1.3499
17067TIP3    H272617   5.000   5.665   4.549  0.4715 -0.8296  1.3938
17068TIP3   OH272618   2.890   1.421  11.821 -0.2921 -0.3778 -0.1861
17068TIP3    H172619   2.849   1.486  11.878  0.3093  1.3220 -1.6199
17068TIP3    H272620   2.918   1.471  11.744  2.5897 -1.8444 -0.1728
17069TIP3   OH272621   5.401   5.760   0.219  0.5789  0.5252  0.5106
17069TIP3    H172622   5.484   5.713   0.227  0.2783 -0.0017  0.5725
17069TIP3    H272623   5.425   5.853   0.221  1.0357  0.3948  2.0808
17070TIP3   OH272624   1.835   2.784  11.462  0.6616 -0.2922 -0.0965
17070TIP3    H172625   1.903   2.850  11.476 -1.1226  1.8709 -1.2122
17070TIP3    H272626   1.848   2.755  11.372  0.6968 -0.6013  0.0068
17071TIP3   OH272627   6.585   1.149  14.084 -0.4678  0.2401  0.0283
17071TIP3    H172628   6.587   1.147  13.988  0.6603  1.5448  0.0214
17071TIP3    H272629   6.650   1.084  14.111  0.0620  0.7214 -0.0920
17072TIP3   OH272630   1.124   5.424   6.357 -0.0469  0.2522  0.7368
17072TIP3    H172631   1.190   5.364   6.323 -1.1246 -1.5112  1.7399
17072TIP3    H272632   1.161   5.511   6.339  0.2201 -0.6017 -3.3864
17073TIP3   OH272633   6.013   5.693  16.297  0.0499  0.5743 -0.2928
17073TIP3    H172634   6.102   5.715  16.323  0.8601  0.1097 -2.5603
17073TIP3    H272635   5.992   5.613  16.347  0.7353  0.8981  0.5244
17074TIP3   OH272636   4.165   3.994  16.406 -0.4645  0.1103  0.1342
17074TIP3    H172637   4.118   3.929  16.355 -0.2482 -2.0414  2.5725
17074TIP3    H272638   4.097   4.039  16.456 -0.4086  0.3392  0.0037
17075TIP3   OH272639   2.439   3.455  17.154  0.0247 -0.0086  0.8123
17075TIP3    H172640   2.377   3.494  17.215  1.4854 -0.0669  2.3877
17075TIP3    H272641   2.520   3.447  17.204  1.5976  0.9662 -1.4958
17076TIP3   OH272642   5.212   0.090  16.897 -0.2358 -0.2423 -0.3507
17076TIP3    H172643   5.148   0.125  16.835 -1.8313 -0.0237  1.3425
17076TIP3    H272644   5.163   0.084  16.980  1.1877 -2.5653  0.3646
17077TIP3   OH272645   3.962   6.206   3.510 -0.1990 -0.2983  0.6085
17077TIP3    H172646   4.040   6.203   3.565 -0.1094  0.1017  0.5009
17077TIP3    H272647   3.965   6.292   3.469  0.3939 -1.0593 -0.9737
17078TIP3   OH272648   0.992   6.222  14.742 -0.0150 -0.1623  0.3014
17078TIP3    H172649   0.987   6.225  14.646 -0.6641  1.0613  0.3672
17078TIP3    H272650   0.990   6.128  14.763 -0.0576 -0.4335 -0.8701
17079TIP3   OH272651   5.076   6.575  14.197 -0.1728 -0.2457  0.0562
17079TIP3    H172652   5.101   6.484  14.179  2.2471 -0.1900  2.7245
17079TIP3    H272653   5.145   6.627  14.157 -0.9268  0.3777 -0.4457
17080TIP3   OH272654   3.551   3.566   2.614  0.0180  0.1180 -0.1338
17080TIP3    H172655   3.502   3.488   2.588  0.2052 -0.3968  1.0048
17080TIP3    H272656   3.485   3.633   2.628  0.0148  0.8240 -3.2652
17081TIP3   OH272657   3.419   3.684   5.316 -0.2426  0.0017 -0.6037
17081TIP3    H172658   3.414   3.693   5.412  0.7177  1.1942 -0.6626
17081TIP3    H272659   3.349   3.740   5.283  0.5809  1.0008 -0.6643
17082TIP3   OH272660   1.848   2.592  13.026  0.5818  0.2634 -0.4862
17082TIP3    H172661   1.853   2.634  13.112  0.6080 -0.3593 -0.1824
17082TIP3    H272662   1.754   2.574  13.013  0.7342 -0.9431  0.0440
17083TIP3   OH272663   1.346   6.192   2.639 -0.0196 -0.3619 -0.1309
17083TIP3    H172664   1.254   6.219   2.644  0.1048 -0.0489  0.5540
17083TIP3    H272665   1.381   6.239   2.563 -0.2784 -0.0315 -0.0471
17084TIP3   OH272666   0.526   2.269  16.588  0.0982 -0.1792 -0.1266
17084TIP3    H172667   0.588   2.342  16.584  0.2931 -0.3980 -1.0885
17084TIP3    H272668   0.580   2.191  16.577 -0.2466 -0.4164 -0.1372
17085TIP3   OH272669   5.116   1.602  11.128 -0.3101 -0.0942 -0.3543
17085TIP3    H172670   5.033   1.621  11.173 -0.4683  2.1879 -1.5440
17085TIP3    H272671   5.092   1.589  11.037  0.5885  0.1147 -0.6238
17086TIP3   OH272672   1.192   5.556  12.011 -0.0502 -0.0115 -0.0414
17086TIP3    H172673   1.221   5.641  12.044  1.1691  0.3437 -1.9213
17086TIP3    H272674   1.102   5.547  12.043  0.4602  1.1086  1.7649
17087TIP3   OH272675   6.177   4.854   1.605 -0.3005  0.1846  0.5295
17087TIP3    H172676   6.207   4.858   1.514  0.2332  0.6521  0.7219
17087TIP3    H272677   6.196   4.764   1.632  1.0280  0.4996  0.6760
17088TIP3   OH272678   3.265   0.751  12.577  0.0516  0.5721 -0.2537
17088TIP3    H172679   3.322   0.748  12.654 -0.5026  0.6583  0.1588
17088TIP3    H272680   3.201   0.682  12.591 -0.2394  0.7908 -0.4851
17089TIP3   OH272681   5.936   4.589   0.292 -0.2677 -0.2506  0.0806
17089TIP3    H172682   5.925   4.549   0.378  1.0867 -1.6362 -0.3655
17089TIP3    H272683   6.021   4.633   0.297 -0.2506 -0.2168 -0.5121
17090TIP3   OH272684   6.748   2.798  16.465 -0.3336 -0.0169 -0.0816
17090TIP3    H172685   6.726   2.774  16.555 -0.6644  1.8535  0.3509
17090TIP3    H272686   6.836   2.763  16.452 -0.7060 -1.2267  0.5996
17091TIP3   OH272687   2.428   1.751   5.363 -0.0623 -0.0371 -0.5125
17091TIP3    H172688   2.384   1.684   5.311 -0.0854  1.6964 -2.8316
17091TIP3    H272689   2.510   1.710   5.390  0.2207 -0.8174 -2.4502
17092TIP3   OH272690   0.205   5.720  16.277 -0.2976 -0.1455  0.0866
17092TIP3    H172691   0.194   5.810  16.248 -0.7739 -0.5791 -1.1036
17092TIP3    H272692   0.216   5.670  16.196  0.7331 -1.0525  0.7649
17093TIP3   OH272693   0.987   0.986  12.243  0.0877 -0.5170 -0.3254
17093TIP3    H172694   1.064   1.021  12.197  0.0869 -1.4402 -1.0496
17093TIP3    H272695   0.913   1.030  12.203  0.1366 -0.8201 -0.7631
17094TIP3   OH272696   2.840   0.639  11.389  0.8949 -0.1720 -0.0577
17094TIP3    H172697   2.802   0.724  11.411  0.2062 -0.1698 -1.2488
17094TIP3    H272698   2.861   0.600  11.474  0.1388  0.6939  0.5359
17095TIP3   OH272699   5.371   1.086  16.678 -0.3252  0.0487  0.5068
17095TIP3    H172700   5.395   1.059  16.766  0.0600 -0.2134  0.3189
17095TIP3    H272701   5.301   1.150  16.691 -1.3785 -1.1747  0.9414
17096TIP3   OH272702   5.001   5.103   0.614  0.2975  0.1999  0.4818
17096TIP3    H172703   4.952   5.151   0.681  0.8574  0.7548  0.4955
17096TIP3    H272704   4.934   5.064   0.558 -0.1671  2.5195 -0.6315
17097TIP3   OH272705   3.649   6.562   4.690  0.1690 -0.8943  0.4432
17097TIP3    H172706   3.574   6.503   4.685 -1.0002  0.4142  2.0566
17097TIP3    H272707   3.674   6.561   4.782  0.9258  0.1971  0.2558
17098TIP3   OH272708   3.613   1.016  13.199  0.4065  0.8419 -0.1160
17098TIP3    H172709   3.598   1.066  13.279 -0.0179 -0.6172  0.7491
17098TIP3    H272710   3.699   1.044  13.168  0.8987  0.8937  1.2667
17099TIP3   OH272711   1.723   5.690  10.482  0.3804  0.4067 -0.0804
17099TIP3    H172712   1.757   5.601  10.472 -0.2363  0.2388 -0.8117
17099TIP3    H272713   1.630   5.682  10.459 -0.0480  0.9409  1.3935
17100TIP3   OH272714   1.030   6.006  14.971 -0.1588 -0.0360 -0.4809
17100TIP3    H172715   1.092   6.078  14.954  1.3844 -1.2874 -0.3225
17100TIP3    H272716   1.082   5.927  14.955 -1.9908 -1.1128 -1.1862
17101TIP3   OH272717   3.033   6.133  17.112  0.0908 -0.0151 -0.1679
17101TIP3    H172718   3.013   6.039  17.108  0.0624 -0.0966  1.5761
17101TIP3    H272719   2.948   6.175  17.123  0.2840  0.0714  1.0284
17102TIP3   OH272720   0.074   2.007   4.320 -0.4231 -0.2603 -0.1832
17102TIP3    H172721   0.079   2.097   4.286 -2.8847 -0.2381 -0.5279
17102TIP3    H272722   0.045   1.955   4.246 -1.2002 -0.9872  0.6227
17103TIP3   OH272723   5.545   6.679  13.272 -0.0515  0.8350  0.3771
17103TIP3    H172724   5.551   6.738  13.197  0.0310  1.6502  1.0164
17103TIP3    H272725   5.615   6.708  13.331  0.6139 -0.5111  0.2801
17104TIP3   OH272726   1.624   4.754  13.012 -0.5003 -0.4596 -0.3178
17104TIP3    H172727   1.686   4.683  13.029  0.9638  0.8436 -0.1290
17104TIP3    H272728   1.651   4.790  12.928 -1.2158 -0.0903 -0.3949
17105TIP3   OH272729   3.972   1.099  15.249 -0.0944 -0.3011 -0.0835
17105TIP3    H172730   3.986   1.009  15.220  0.8108 -0.3783  0.5757
17105TIP3    H272731   3.977   1.094  15.345 -0.1013  0.4365 -0.0426
17106TIP3   OH272732   4.218   6.341  14.144 -0.4594  0.1803 -0.1830
17106TIP3    H172733   4.303   6.337  14.100  0.2896  2.2093  1.0445
17106TIP3    H272734   4.184   6.428  14.124 -1.2806  0.1763  1.1204
17107TIP3   OH272735   1.734   1.897   0.962 -0.4666 -0.2594 -0.3224
17107TIP3    H172736   1.681   1.977   0.965  0.4197  0.3278 -0.1767
17107TIP3    H272737   1.824   1.928   0.955 -0.1342 -1.2538 -0.5101
17108TIP3   OH272738   4.526   5.254   5.082 -0.2069  0.2223  0.3302
17108TIP3    H172739   4.589   5.319   5.114 -1.9763  0.7094  2.9728
17108TIP3    H272740   4.448   5.305   5.061 -1.3187 -0.9337  1.6205
17109TIP3   OH272741   5.469   2.361   2.752  0.0653 -0.1221 -0.1179
17109TIP3    H172742   5.490   2.279   2.797  0.4251 -0.4137 -0.8066
17109TIP3    H272743   5.545   2.378   2.697 -1.0876 -0.7178 -1.9689
17110TIP3   OH272744   3.715   3.287   3.075  0.2469 -0.0649 -0.5415
17110TIP3    H172745   3.640   3.294   3.016  1.1963  0.7344 -1.7083
17110TIP3    H272746   3.680   3.305   3.162 -1.6848 -3.7408 -0.4616
17111TIP3   OH272747   3.049   2.525  16.449 -0.2271 -0.1759  0.3906
17111TIP3    H172748   2.956   2.526  16.474 -0.6287 -1.6354 -0.9355
17111TIP3    H272749   3.062   2.438  16.410  1.4292  0.4401 -0.4643
17112TIP3   OH272750   3.331   3.389   0.518  0.1492  0.2747  0.7053
17112TIP3    H172751   3.257   3.398   0.578 -0.9685  0.6807 -0.7381
17112TIP3    H272752   3.293   3.391   0.431  1.5680 -2.2609 -0.0392
17113TIP3   OH272753   6.119   5.934  12.059  0.1931 -0.0612 -0.2503
17113TIP3    H172754   6.199   5.971  12.023 -0.0491 -0.0497 -0.7810
17113TIP3    H272755   6.053   6.003  12.048  0.7368  1.0083  2.7181
17114TIP3   OH272756   2.542   1.255   1.865 -0.3353  0.3822  1.1160
17114TIP3    H172757   2.565   1.167   1.837 -0.0857  0.7211  0.2278
17114TIP3    H272758   2.478   1.242   1.936 -0.2121 -0.5037  1.0676
17115TIP3   OH272759   5.051   1.493  17.086 -0.0850 -0.2036  0.2597
17115TIP3    H172760   4.993   1.461  17.156  1.4408 -0.6603  1.3286
17115TIP3    H272761   4.996   1.553  17.035 -1.8589 -1.5624  0.5216
17116TIP3   OH272762   1.372   2.366  13.112 -0.1183  0.4186 -0.4896
17116TIP3    H172763   1.389   2.304  13.041  0.3887 -0.7962  0.6530
17116TIP3    H272764   1.297   2.418  13.082  0.0829 -0.0874 -1.8883
17117TIP3   OH272765   2.904   2.332   1.324 -0.1870  0.2706  0.0453
17117TIP3    H172766   2.872   2.409   1.370  0.2294  0.1700  0.4978
17117TIP3    H272767   2.928   2.270   1.393  4.4381  1.6834 -0.1361
17118TIP3   OH272768   5.852   6.399   0.771 -0.5850  0.5387  0.1852
17118TIP3    H172769   5.945   6.419   0.757 -0.6799  1.8195  1.3037
17118TIP3    H272770   5.824   6.357   0.689  0.9600  0.1978 -0.1778
17119TIP3   OH272771   0.397   5.134  11.783  0.0374 -0.1797 -0.5480
17119TIP3    H172772   0.400   5.135  11.879 -0.6448  1.6602 -0.5018
17119TIP3    H272773   0.468   5.077  11.757  1.0495  0.3128  1.0449
17120TIP3   OH272774   2.798   1.643  11.968 -0.5876  0.3614 -0.0092
17120TIP3    H172775   2.715   1.687  11.952 -0.9020 -0.2558 -0.1044
17120TIP3    H272776   2.809   1.646  12.063 -1.5378 -1.0032  0.1574
17121TIP3   OH272777   3.694   3.163   1.960  0.1424 -0.1949  0.2368
17121TIP3    H172778   3.668   3.113   2.038  2.1339 -0.7275  0.5835
17121TIP3    H272779   3.699   3.097   1.890 -0.0287  0.0142  0.0249
17122TIP3   OH272780   1.151   6.114   2.009 -0.1528  0.5955 -0.3746
17122TIP3    H172781   1.214   6.046   1.986 -0.2044  0.5772 -0.4632
17122TIP3    H272782   1.066   6.074   1.989 -0.1234  1.1711 -1.6939
17123TIP3   OH272783   3.525   5.728  14.575  0.4261  0.4135 -0.1686
17123TIP3    H172784   3.483   5.800  14.623  0.3181 -0.7121  1.4739
17123TIP3    H272785   3.617   5.733  14.599  0.1520 -0.9832  1.2936
17124TIP3   OH272786   1.824   6.560   5.597 -0.1978  0.8463  0.3211
17124TIP3    H172787   1.737   6.522   5.584  0.0538  0.3507  0.0501
17124TIP3    H272788   1.826   6.587   5.689  0.6249 -2.4166  1.3208
17125TIP3   OH272789   1.582   0.931  12.129  0.0975  0.0045 -0.5759
17125TIP3    H172790   1.500   0.980  12.121 -0.4608 -0.6902  0.6742
17125TIP3    H272791   1.594   0.890  12.043 -0.9971 -0.0836 -0.6975
17126TIP3   OH272792   5.341   3.339  14.750  0.3089 -0.1471  0.6707
17126TIP3    H172793   5.413   3.321  14.811 -1.0098 -0.2509  2.2483
17126TIP3    H272794   5.292   3.256  14.746  0.3670 -0.1287 -0.5175
17127TIP3   OH272795   1.867   1.392   4.713 -0.1385 -0.4879 -0.1065
17127TIP3    H172796   1.792   1.388   4.772 -0.8188  0.0273 -0.9333
17127TIP3    H272797   1.829   1.405   4.626  0.7395 -3.0208 -0.9301
17128TIP3   OH272798   5.261   2.602   4.565 -0.3596  0.1825 -0.3464
17128TIP3    H172799   5.308   2.640   4.491  0.5640 -1.0765 -0.4354
17128TIP3    H272800   5.328   2.588   4.632 -1.0314  0.5081  0.4155
17129TIP3   OH272801   6.419   2.815  16.808 -0.4389 -0.4458  0.2075
17129TIP3    H172802   6.484   2.748  16.787 -0.3790  0.2874 -1.9952
17129TIP3    H272803   6.466   2.877  16.864  0.2163 -0.9243  0.1901
17130TIP3   OH272804   0.839   1.181  11.547  0.2253  0.1180 -0.3515
17130TIP3    H172805   0.838   1.156  11.640 -0.6425  0.2981 -0.3132
17130TIP3    H272806   0.841   1.277  11.548  3.0181  0.1071 -0.5036
17131TIP3   OH272807   6.021   4.370  11.354  0.2519  0.0556 -0.3269
17131TIP3    H172808   5.988   4.412  11.275  2.7039  0.6284 -1.0830
17131TIP3    H272809   6.021   4.276  11.335  0.9318  0.2012 -1.0614
17132TIP3   OH272810   0.134   1.701  17.060  0.4919  0.0718  0.2762
17132TIP3    H172811   0.108   1.780  17.107 -3.7808  0.5880 -2.6116
17132TIP3    H272812   0.142   1.730  16.969  0.6706 -2.4353 -0.5318
17133TIP3   OH272813   5.624   5.233   6.045  0.0669  0.3381  0.4770
17133TIP3    H172814   5.534   5.252   6.072 -0.8985  0.0158 -2.3653
17133TIP3    H272815   5.676   5.302   6.085 -1.6049  1.2558  1.1205
17134TIP3   OH272816   1.282   3.980   4.844 -0.1944 -0.0989 -0.0006
17134TIP3    H172817   1.305   3.889   4.862 -0.0786  0.1311  1.0162
17134TIP3    H272818   1.202   3.975   4.791 -0.3426 -0.7819  0.2880
17135TIP3   OH272819   3.562   0.561  14.926 -0.1486  0.2417 -0.2233
17135TIP3    H172820   3.523   0.487  14.880 -1.3731 -0.6795  2.1550
17135TIP3    H272821   3.526   0.638  14.883 -2.3891 -0.5944  0.0458
17136TIP3   OH272822   0.171   1.606  13.101 -0.1337 -0.3452 -0.3928
17136TIP3    H172823   0.137   1.586  13.189 -0.3382  0.6263 -0.2446
17136TIP3    H272824   0.256   1.564  13.099  0.1208  0.0998  0.4880
17137TIP3   OH272825   5.309   3.747   1.699  0.2005 -0.1242 -0.2926
17137TIP3    H172826   5.336   3.663   1.736 -2.9826 -1.1697 -0.1639
17137TIP3    H272827   5.217   3.756   1.725  0.4792  3.4229 -0.2881
17138TIP3   OH272828   6.308   4.949   0.633  0.2365 -0.3527  0.3789
17138TIP3    H172829   6.276   4.927   0.721  0.5139 -1.2584  0.2571
17138TIP3    H272830   6.248   5.017   0.602 -0.2811 -0.5215  0.9976
17139TIP3   OH272831   5.117   4.854  12.775 -0.4289 -0.5699 -0.8813
17139TIP3    H172832   5.188   4.832  12.715 -0.1607  1.6887 -1.4094
17139TIP3    H272833   5.160   4.874  12.858 -0.3229  1.7508 -1.4588
17140TIP3   OH272834   2.806   3.225  12.467 -0.4119 -0.8669  0.5258
17140TIP3    H172835   2.900   3.222  12.455 -0.4044 -1.8954  0.7802
17140TIP3    H272836   2.792   3.195  12.557 -1.0068 -1.2855  0.3003
17141TIP3   OH272837   6.172   2.332  16.351 -0.4882 -0.4381  0.0123
17141TIP3    H172838   6.257   2.374  16.342  0.4632 -2.1294  0.8721
17141TIP3    H272839   6.167   2.272  16.277 -0.2669 -1.4544  0.8147
17142TIP3   OH272840   2.743   6.718  14.094 -0.5971  0.1520  0.4012
17142TIP3    H172841   2.834   6.748  14.104 -0.4080 -0.6833  1.2592
17142TIP3    H272842   2.691   6.798  14.101  0.0724  0.6319 -0.0692
17143TIP3   OH272843   1.746   0.185  14.233  0.2429  0.1690  0.0579
17143TIP3    H172844   1.841   0.177  14.243  0.3695  3.0321  1.4584
17143TIP3    H272845   1.710   0.131  14.304  0.7651 -1.4961 -0.9050
17144TIP3   OH272846   3.060   1.902   2.386  0.0136 -0.3987  0.2661
17144TIP3    H172847   3.064   1.998   2.393 -0.7607 -0.3121 -0.3785
17144TIP3    H272848   2.980   1.885   2.336  1.6714 -1.2426 -2.2604
17145TIP3   OH272849   5.275   5.592  10.985  0.1661  0.2027 -0.4561
17145TIP3    H172850   5.272   5.673  10.933 -0.8015  1.3782  1.3578
17145TIP3    H272851   5.244   5.524  10.925  1.0054  1.1667 -2.0239
17146TIP3   OH272852   4.334   2.843  16.067 -0.8879  0.0264 -0.3410
17146TIP3    H172853   4.412   2.871  16.019 -0.5543  0.4501  0.4222
17146TIP3    H272854   4.310   2.759  16.029 -1.4485  0.9944 -2.1690
17147TIP3   OH272855   3.159   4.143   5.806 -0.1752 -0.2745 -0.1453
17147TIP3    H172856   3.169   4.123   5.899 -0.4222 -0.3943 -0.1433
17147TIP3    H272857   3.248   4.142   5.771 -0.1528 -0.9756 -0.0652
17148TIP3   OH272858   1.965   3.068   0.159 -0.3832  0.0076  0.3686
17148TIP3    H172859   1.916   3.065   0.077  0.4416  1.4549 -0.1959
17148TIP3    H272860   1.998   2.979   0.170 -1.2367 -0.4148 -0.4151
17149TIP3   OH272861   5.847   4.200   4.746  0.3799  0.0987  0.2620
17149TIP3    H172862   5.761   4.239   4.731  1.0008  1.9427  1.3812
17149TIP3    H272863   5.876   4.172   4.659 -1.2073 -0.2704 -0.1622
17150TIP3   OH272864   2.230   3.835  11.166 -0.2369 -0.0142 -0.1205
17150TIP3    H172865   2.170   3.887  11.112 -0.4997 -1.5065 -1.2898
17150TIP3    H272866   2.190   3.748  11.170  1.4280 -0.8013 -0.2502
17151TIP3   OH272867   2.218   5.520   0.011 -0.0679 -0.1380 -0.0637
17151TIP3    H172868   2.232   5.569   0.092 -1.2770  0.7041 -0.3554
17151TIP3    H272869   2.306   5.494  -0.016  0.5583  1.5066  0.3244
17152TIP3   OH272870   2.295   0.328   3.238 -0.2223 -0.1897  0.6967
17152TIP3    H172871   2.333   0.365   3.317  0.3304 -1.4222  1.0226
17152TIP3    H272872   2.363   0.339   3.171 -0.2116 -0.2500  0.6977
17153TIP3   OH272873   0.851   0.359  11.906 -0.1082  0.8976  0.0781
17153TIP3    H172874   0.863   0.401  11.821 -1.8004 -1.4224 -1.3456
17153TIP3    H272875   0.756   0.347  11.914 -0.0770  1.9771  2.7562
17154TIP3   OH272876   5.812   1.275  12.539 -0.1929  0.5505  0.2650
17154TIP3    H172877   5.867   1.249  12.613  0.2828  0.3659 -0.1537
17154TIP3    H272878   5.725   1.239  12.560  0.3425 -1.0072 -0.0846
17155TIP3   OH272879   5.011   5.510   0.457 -0.4103  0.8162  0.0648
17155TIP3    H172880   5.064   5.542   0.384  0.3203  0.7033  0.5375
17155TIP3    H272881   4.957   5.441   0.419  1.9182 -1.1347  0.1670
17156TIP3   OH272882   6.250   2.472  12.423  0.4557  0.5956 -0.5719
17156TIP3    H172883   6.306   2.549  12.429 -0.2066  0.9811  0.8736
17156TIP3    H272884   6.180   2.497  12.363 -0.3665  1.5285  0.7409
17157TIP3   OH272885   6.415   0.516  12.997  0.3846 -0.3958  0.1644
17157TIP3    H172886   6.510   0.524  13.000  0.4132 -0.7491  0.2104
17157TIP3    H272887   6.391   0.489  13.085  0.3849 -1.8030 -0.2489
17158TIP3   OH272888   0.282   2.729   1.169  0.1582  0.0173  0.9184
17158TIP3    H172889   0.195   2.716   1.208 -0.2540 -0.1093 -0.0165
17158TIP3    H272890   0.341   2.737   1.244 -0.5932 -0.3479  1.5633
17159TIP3   OH272891   5.956   6.209   1.431 -0.3702 -0.3340 -0.2783
17159TIP3    H172892   5.979   6.279   1.493  0.1212  0.4987 -1.3986
17159TIP3    H272893   6.004   6.133   1.463 -0.3018  0.0261  0.5046
17160TIP3   OH272894   1.484   3.803   3.785 -0.2448 -0.0373 -0.2852
17160TIP3    H172895   1.570   3.829   3.754 -0.8718 -0.0801 -2.1125
17160TIP3    H272896   1.465   3.862   3.858  1.0261  0.4107 -0.3218
17161TIP3   OH272897   6.386   0.783   1.155 -0.4140 -0.0346 -0.0667
17161TIP3    H172898   6.453   0.720   1.181 -0.8378 -1.1042 -1.5077
17161TIP3    H272899   6.434   0.864   1.138  0.3373 -0.4208  0.1966
17162TIP3   OH272900   3.233   6.670  13.395  0.2350  0.7988 -0.3616
17162TIP3    H172901   3.158   6.666  13.337  1.4386  1.1041 -1.9818
17162TIP3    H272902   3.286   6.594  13.371 -0.1361 -0.1299  1.6233
17163TIP3   OH272903   2.852   5.590   0.768 -0.3104 -0.3305 -0.1343
17163TIP3    H172904   2.865   5.510   0.717 -0.7732 -0.4149 -0.1144
17163TIP3    H272905   2.821   5.654   0.704 -1.6927 -0.6624  0.2029
17164TIP3   OH272906   3.502   0.622  12.529 -0.3430 -0.4407  0.4352
17164TIP3    H172907   3.573   0.686  12.523 -0.8836  0.0565 -0.6973
17164TIP3    H272908   3.436   0.652  12.466 -2.4554  0.2165  2.8275
17165TIP3   OH272909   5.804   0.860   0.478  0.3613  0.3902  0.3053
17165TIP3    H172910   5.846   0.945   0.463  1.7556  0.0061  1.8831
17165TIP3    H272911   5.742   0.876   0.549 -1.1063  0.6103 -1.0036
17166TIP3   OH272912   5.972   4.535   5.788  0.4657  0.1643 -0.3833
17166TIP3    H172913   6.045   4.507   5.733 -0.3696 -1.0201 -0.9310
17166TIP3    H272914   5.922   4.595   5.732 -0.1560 -0.7175 -0.7922
17167TIP3   OH272915   2.033   2.999   5.210 -0.1443  0.5820  0.3380
17167TIP3    H172916   1.941   2.990   5.186  0.0560 -0.5551 -0.0102
17167TIP3    H272917   2.043   2.943   5.287  0.4948 -0.1238 -0.2505
17168TIP3   OH272918   1.176   5.213   3.772  0.8019 -0.1095 -0.9483
17168TIP3    H172919   1.165   5.160   3.851  1.9926  1.3220  0.2131
17168TIP3    H272920   1.116   5.174   3.709 -0.1796 -1.2880  0.6565
17169TIP3   OH272921   2.203   1.266   5.079 -0.6418  0.5001 -0.5318
17169TIP3    H172922   2.156   1.347   5.063 -1.4511  0.0251 -0.5799
17169TIP3    H272923   2.295   1.291   5.076 -0.8858  1.4453 -0.3756
17170TIP3   OH272924   1.106   1.998  13.667 -0.0564  0.0122 -0.0870
17170TIP3    H172925   1.050   1.975  13.592  0.0461 -1.4457  0.2668
17170TIP3    H272926   1.189   1.954  13.648 -0.1212 -0.5922  1.0263
17171TIP3   OH272927   3.636   2.013  16.106  0.6809  0.3166 -0.3905
17171TIP3    H172928   3.651   1.983  16.016  0.0896  1.4964 -0.8828
17171TIP3    H272929   3.702   1.966  16.158 -0.2197 -1.8336 -1.1466
17172TIP3   OH272930   2.221   6.511  16.163 -0.1334  0.4158 -0.0965
17172TIP3    H172931   2.241   6.602  16.185  0.0166  0.3641 -0.0188
17172TIP3    H272932   2.126   6.510  16.148 -0.4602  0.2027  1.7989
17173TIP3   OH272933   5.152   5.140   5.049  0.5315 -0.5094 -0.2618
17173TIP3    H172934   5.147   5.077   5.121 -0.6503 -1.8694 -1.4977
17173TIP3    H272935   5.158   5.086   4.970  0.5874  0.9383 -1.2598
17174TIP3   OH272936   0.742   2.291  15.728 -0.2290  0.8745  0.6006
17174TIP3    H172937   0.792   2.232  15.785  0.5044  1.5310  0.6459
17174TIP3    H272938   0.711   2.360  15.787 -0.4983  0.9055  0.4233
17175TIP3   OH272939   0.170   0.877   2.903 -0.4087  0.0967  0.1637
17175TIP3    H172940   0.237   0.893   2.970 -1.2126  2.2796  0.4749
17175TIP3    H272941   0.093   0.924   2.934 -0.8729  0.9313 -2.1619
17176TIP3   OH272942   4.857   6.482  11.711  0.0797  0.1904 -0.0742
17176TIP3    H172943   4.816   6.396  11.724 -1.2922  0.7730 -0.4670
17176TIP3    H272944   4.808   6.521  11.639 -1.4637  2.6141  2.2089
17177TIP3   OH272945   1.858   6.305  16.298  0.1997 -0.6005  0.0514
17177TIP3    H172946   1.894   6.383  16.257  1.8944 -1.5138 -0.2474
17177TIP3    H272947   1.766   6.305  16.272  0.1104  1.4143  0.2669
17178TIP3   OH272948   2.114   0.743   2.633 -0.3388 -0.0046  0.0118
17178TIP3    H172949   2.055   0.807   2.595 -0.0107  0.8273  0.8849
17178TIP3    H272950   2.085   0.734   2.724  0.6492  0.1602  0.3563
17179TIP3   OH272951   3.168   0.978  15.172 -0.6829 -0.8168  0.2729
17179TIP3    H172952   3.148   0.902  15.117  0.1464  0.0651 -1.2859
17179TIP3    H272953   3.256   1.004  15.146 -0.9409  0.6554  0.8164
17180TIP3   OH272954   1.823   1.084   0.535 -0.0743  0.0760  0.5226
17180TIP3    H172955   1.806   1.073   0.628 -1.9298 -0.4244  0.1468
17180TIP3    H272956   1.823   0.995   0.499 -1.6822  0.4032 -0.3193
17181TIP3   OH272957   4.562   3.439  17.062  0.1307  0.3565 -0.0252
17181TIP3    H172958   4.503   3.400  16.998  1.1188  0.7153 -1.1814
17181TIP3    H272959   4.506   3.497  17.114 -0.2519  2.0212 -2.2183
17182TIP3   OH272960   0.837   0.262   5.039  0.0307 -0.3921 -0.0260
17182TIP3    H172961   0.880   0.320   5.103  0.2932  2.1344 -2.4000
17182TIP3    H272962   0.824   0.317   4.962  0.9767 -3.7241 -2.6932
17183TIP3   OH272963   3.684   3.295  16.040  0.2523  0.5966  0.1226
17183TIP3    H172964   3.667   3.384  16.007 -0.2297 -0.1926 -1.8139
17183TIP3    H272965   3.741   3.308  16.116  0.7341  2.5122 -0.5393
17184TIP3   OH272966   5.710   2.393  12.243  1.1514 -0.3631  0.4794
17184TIP3    H172967   5.667   2.433  12.319 -0.5206  0.5831 -0.9297
17184TIP3    H272968   5.778   2.337  12.281  1.4664  1.3818  2.6169
17185TIP3   OH272969   1.103   4.455  15.044 -0.1945  0.0656 -0.3304
17185TIP3    H172970   1.093   4.502  14.961 -1.9836 -1.4276 -0.9973
17185TIP3    H272971   1.093   4.363  15.020  1.8959 -0.5713  1.1687
17186TIP3   OH272972   2.685   1.901  15.775  0.0254 -0.3628  0.2644
17186TIP3    H172973   2.595   1.933  15.779 -0.6335 -1.9940 -1.0390
17186TIP3    H272974   2.697   1.875  15.684  1.6635 -0.6353  0.5423
17187TIP3   OH272975   5.794   0.791  11.488  0.1577 -0.2992 -0.6044
17187TIP3    H172976   5.837   0.840  11.557  1.6036 -0.1438 -1.5991
17187TIP3    H272977   5.850   0.715  11.474  0.2185 -0.0084 -2.0201
17188TIP3   OH272978   1.006   4.063   0.150  0.0809 -0.4633 -0.2648
17188TIP3    H172979   1.071   4.045   0.082 -0.2689  1.3301 -1.1055
17188TIP3    H272980   1.047   4.127   0.207 -1.0957  1.0735 -1.0904
17189TIP3   OH272981   4.908   2.618  17.207 -0.1594 -0.6780 -0.2218
17189TIP3    H172982   4.887   2.710  17.189 -1.3418 -0.5773  1.5462
17189TIP3    H272983   4.828   2.570  17.186 -0.2087 -1.0479  0.7615
17190TIP3   OH272984   3.540   5.786   0.189  0.4257 -0.5314  0.1959
17190TIP3    H172985   3.548   5.835   0.107  0.3826  0.9341  1.0588
17190TIP3    H272986   3.455   5.813   0.224  0.7556 -0.6406  1.0729
17191TIP3   OH272987   6.515   4.843  15.308  0.3868  0.3533 -0.0131
17191TIP3    H172988   6.447   4.872  15.247  0.7108  2.0616  0.3924
17191TIP3    H272989   6.531   4.920  15.363  0.4350 -0.9933  1.9205
17192TIP3   OH272990   4.833   2.714   0.622 -0.1847 -0.8179 -0.4160
17192TIP3    H172991   4.784   2.644   0.580 -0.3277 -0.9127 -0.0960
17192TIP3    H272992   4.844   2.780   0.554 -1.3714 -0.4870 -0.2955
17193TIP3   OH272993   1.924   6.584   1.176 -0.1236 -0.0491 -0.3355
17193TIP3    H172994   2.017   6.564   1.189 -0.0769  0.2233 -0.2358
17193TIP3    H272995   1.902   6.541   1.094 -0.2800 -1.3090  0.3572
17194TIP3   OH272996   6.127   3.878   0.748 -0.2779 -0.3281  0.4526
17194TIP3    H172997   6.143   3.794   0.791 -1.4872 -0.8399 -0.0696
17194TIP3    H272998   6.035   3.873   0.720 -1.1790  2.1795  2.6957
17195TIP3   OH272999   0.306   4.489   0.503  0.6703  0.3859  0.2597
17195TIP3    H173000   0.245   4.483   0.429 -0.3694 -0.1173  1.1461
17195TIP3    H273001   0.338   4.579   0.500  1.3720  0.0926 -1.3816
17196TIP3   OH273002   4.851   0.325   5.622  0.4899 -0.0573 -0.1761
17196TIP3    H173003   4.837   0.368   5.538 -1.1027  1.1004  0.6517
17196TIP3    H273004   4.922   0.373   5.663  0.1886  0.4070 -0.1950
17197TIP3   OH273005   5.178   4.109   5.257  0.3167 -0.2546 -0.1732
17197TIP3    H173006   5.173   4.202   5.280  0.0634 -0.6291  1.3714
17197TIP3    H273007   5.100   4.071   5.298 -0.1647 -0.9604 -1.7404
17198TIP3   OH273008   5.775   0.711   0.215  0.4528  0.1643  0.3364
17198TIP3    H173009   5.760   0.782   0.152  1.9012  0.2818  0.1197
17198TIP3    H273010   5.762   0.752   0.301 -0.9134  0.1474  0.1574
17199TIP3   OH273011   3.766   4.328  14.872  0.6237  0.7718  0.0792
17199TIP3    H173012   3.678   4.291  14.884  1.3941 -0.8781  0.8775
17199TIP3    H273013   3.753   4.405  14.817 -1.2473  0.1658 -0.3579
17200TIP3   OH273014   2.221   1.986   4.795 -0.1455  0.0281 -0.3842
17200TIP3    H173015   2.163   1.910   4.785 -1.2174  0.5097  1.8754
17200TIP3    H273016   2.304   1.949   4.825 -0.3337 -0.3497 -0.3262
17201TIP3   OH273017   0.386   0.526  11.711  0.2036 -0.2965 -0.1960
17201TIP3    H173018   0.355   0.616  11.693 -1.0265 -0.7486 -0.4342
17201TIP3    H273019   0.334   0.498  11.786  0.7684 -0.7180  0.0330
17202TIP3   OH273020   3.147   1.262  11.922  0.5824  0.5248 -0.1805
17202TIP3    H173021   3.190   1.347  11.919 -0.6173  1.2224  1.5631
17202TIP3    H273022   3.067   1.273  11.871 -0.5147  1.0233  1.6091
17203TIP3   OH273023   0.550   4.359   3.418 -0.6612  0.1576  0.3150
17203TIP3    H173024   0.554   4.377   3.512  0.8916 -0.3972  0.3825
17203TIP3    H273025   0.602   4.279   3.408 -1.6370 -0.3307 -0.8866
17204TIP3   OH273026   0.924   3.316  12.080  0.0603  0.0032 -0.1153
17204TIP3    H173027   0.909   3.368  12.001  1.6246  1.3984  0.4858
17204TIP3    H273028   0.839   3.315  12.125  0.1291  2.5359  0.1463
17205TIP3   OH273029   5.553   4.859   1.308  0.4805  0.1910  0.3129
17205TIP3    H173030   5.466   4.822   1.292  0.1901  1.8555 -2.3276
17205TIP3    H273031   5.560   4.864   1.403 -1.2621 -2.3611  0.6337
17206TIP3   OH273032   0.531   4.808   5.322 -0.0341 -0.4332 -0.1588
17206TIP3    H173033   0.462   4.744   5.341  1.4709 -1.6745  1.2038
17206TIP3    H273034   0.613   4.760   5.333  1.1576  1.9173  1.7269
17207TIP3   OH273035   6.382   0.050  16.764  0.2940  0.3636  0.6256
17207TIP3    H173036   6.440   0.085  16.696 -0.4855 -0.5359 -0.5093
17207TIP3    H273037   6.339   0.127  16.801 -0.0240  0.7628 -0.5745
17208TIP3   OH273038   2.779   4.561  15.161 -0.0795  0.0283 -0.1908
17208TIP3    H173039   2.739   4.592  15.243 -1.6963 -0.3135 -0.8313
17208TIP3    H273040   2.832   4.486  15.188 -0.1830  0.2365  0.6270
17209TIP3   OH273041   5.032   6.424   5.087 -0.2018  0.4069 -0.3294
17209TIP3    H173042   5.081   6.424   5.004  0.9223 -2.7070  0.2859
17209TIP3    H273043   4.952   6.376   5.068  0.2412 -0.6652  0.4698
17210TIP3   OH273044   3.030   3.565   1.561 -0.6808 -0.3575 -0.3240
17210TIP3    H173045   3.002   3.656   1.570 -0.0765 -0.3228  1.2161
17210TIP3    H273046   2.948   3.515   1.553 -0.9976  0.5127 -3.5059
17211TIP3   OH273047   1.931   2.104   5.170  0.1286 -0.1424 -0.5626
17211TIP3    H173048   1.876   2.029   5.191  0.3640 -0.0627  0.3310
17211TIP3    H273049   2.017   2.081   5.205  0.9893 -0.7855 -2.9959
17212TIP3   OH273050   0.529   3.713   6.565  0.0518 -0.4897 -0.5334
17212TIP3    H173051   0.503   3.803   6.544  0.7847 -0.4520 -1.3072
17212TIP3    H273052   0.484   3.660   6.499  0.9139 -0.5329 -1.1002
17213TIP3   OH273053   1.183   4.538   1.628 -0.4456 -0.0865 -0.3533
17213TIP3    H173054   1.155   4.542   1.536  0.1476 -1.8120 -0.6320
17213TIP3    H273055   1.148   4.618   1.667 -0.9168  0.5532 -2.0246
17214TIP3   OH273056   4.037   2.292   4.106 -0.0407  0.1390 -0.1788
17214TIP3    H173057   4.130   2.310   4.092 -0.0431 -1.1256 -2.0005
17214TIP3    H273058   4.034   2.247   4.191  1.2139 -1.1064 -0.7681
17215TIP3   OH273059   2.536   1.409   5.724  0.5498  0.2534  0.1148
17215TIP3    H173060   2.573   1.478   5.778  0.9962  1.1129 -1.2462
17215TIP3    H273061   2.594   1.404   5.648 -0.8021  0.0190 -0.9321
17216TIP3   OH273062   5.097   3.733  12.551  0.1236  0.3436  0.2364
17216TIP3    H173063   5.073   3.712  12.461 -0.1236 -0.0163  0.3854
17216TIP3    H273064   5.016   3.765  12.591 -0.2145 -1.2082  0.8352
17217TIP3   OH273065   5.335   3.297   1.315 -0.0582  0.0417 -0.1690
17217TIP3    H173066   5.294   3.355   1.379  1.5250  0.7799  0.2142
17217TIP3    H273067   5.377   3.357   1.253  1.1106 -0.6984 -0.0980
17218TIP3   OH273068   5.595   1.104   1.304 -0.0370  0.3408  0.0438
17218TIP3    H173069   5.558   1.087   1.390 -0.8614  0.7753 -0.2238
17218TIP3    H273070   5.532   1.162   1.261 -0.4067 -1.0975 -1.4137
17219TIP3   OH273071   2.050   1.214   4.730 -0.0300  0.0840 -0.1419
17219TIP3    H173072   1.974   1.266   4.707  0.2649  0.3427 -0.5508
17219TIP3    H273073   2.016   1.125   4.742 -0.6538  0.4991  1.3056
17220TIP3   OH273074   5.587   4.397  10.512 -1.1408 -0.4503  0.1684
17220TIP3    H173075   5.632   4.324  10.469 -0.2724  0.0632  0.1770
17220TIP3    H273076   5.632   4.475  10.479 -1.9588  0.0739  0.2771
17221TIP3   OH273077   5.355   4.638   6.332 -0.2108 -0.2398  0.3016
17221TIP3    H173078   5.300   4.711   6.303  2.3865  2.0235  0.8555
17221TIP3    H273079   5.401   4.609   6.253  0.1778 -0.0120  0.4425
17222TIP3   OH273080   4.079   1.779   5.177 -0.1246 -0.4468 -0.5642
17222TIP3    H173081   4.002   1.776   5.234 -0.8452 -4.3765 -1.6293
17222TIP3    H273082   4.060   1.716   5.107  3.2035  0.0103 -1.9887
17223TIP3   OH273083   2.178   3.267   4.014 -0.4141  0.5365  0.2504
17223TIP3    H173084   2.266   3.252   3.980 -1.3020 -0.8785 -1.4617
17223TIP3    H273085   2.121   3.257   3.938 -2.2289 -0.3881  1.7075
17224TIP3   OH273086   4.142   0.981   5.571  0.7711 -0.2649  0.2349
17224TIP3    H173087   4.136   1.043   5.498 -2.3768 -0.3387  0.3614
17224TIP3    H273088   4.130   1.035   5.649  1.6523 -0.5415  0.5681
17225TIP3   OH273089   4.475   3.363  16.273 -0.7883  0.4690  0.0564
17225TIP3    H173090   4.412   3.434  16.287 -0.8356  0.1222  1.7649
17225TIP3    H273091   4.421   3.288  16.248 -1.0539  0.2472  1.2449
17226TIP3   OH273092   0.464   4.692  16.544  0.4850  0.4356 -0.2825
17226TIP3    H173093   0.437   4.762  16.485 -1.0378  0.6552  0.6264
17226TIP3    H273094   0.470   4.615  16.489  0.1429  0.8625 -0.9272
17227TIP3   OH273095   4.980   1.698  16.138  0.1498  0.0793  0.2129
17227TIP3    H173096   4.970   1.785  16.177  0.5731 -0.5247  1.7200
17227TIP3    H273097   4.989   1.640  16.213 -1.0642 -1.3958 -0.7686
17228TIP3   OH273098   4.603   2.096   4.725  0.5920  0.4133  0.2792
17228TIP3    H173099   4.591   2.150   4.803  0.3569 -0.6683  1.0073
17228TIP3    H273100   4.595   2.157   4.652 -0.0859  1.2853  1.0705
17229TIP3   OH273101   4.057   5.687  14.829  0.5365  0.9891  0.6093
17229TIP3    H173102   4.032   5.767  14.876 -0.0547  0.4756  1.1853
17229TIP3    H273103   4.153   5.691  14.825  0.5787  1.1993  1.5970
17230TIP3   OH273104   5.877   2.777  12.998 -0.3039  0.4474 -0.0482
17230TIP3    H173105   5.943   2.806  12.934  0.6759  1.8648  1.5784
17230TIP3    H273106   5.928   2.750  13.074 -1.5443  0.0293  0.6442
17231TIP3   OH273107   3.139   0.203   5.154 -0.3686  0.1060 -0.8276
17231TIP3    H173108   3.045   0.202   5.174 -0.2649 -1.0430 -0.3458
17231TIP3    H273109   3.146   0.255   5.074 -1.0467  2.8738  0.8515
17232TIP3   OH273110   5.364   2.778   5.126  0.3830  0.4584  0.3335
17232TIP3    H173111   5.306   2.757   5.054  0.4881  2.1497 -0.2596
17232TIP3    H273112   5.332   2.725   5.199 -0.1116 -0.7757 -0.7743
17233TIP3   OH273113   3.326   2.929  11.123 -0.8729 -0.1806 -0.3640
17233TIP3    H173114   3.268   2.892  11.190 -0.6951 -0.6066 -0.4422
17233TIP3    H273115   3.358   2.853  11.075 -1.1969  0.1408 -1.0966
17234TIP3   OH273116   3.093   5.036  11.154  0.4142 -0.0441 -0.0254
17234TIP3    H173117   3.055   5.116  11.116  0.6781 -0.2930 -0.8251
17234TIP3    H273118   3.109   4.979  11.079 -0.9585 -1.3617  0.6543
17235TIP3   OH273119   4.876   5.556  13.787  0.3870 -0.3593 -0.0660
17235TIP3    H173120   4.940   5.512  13.732  0.7157  2.0188 -1.6566
17235TIP3    H273121   4.793   5.546  13.741  0.0690 -1.2076  0.6839
17236TIP3   OH273122   3.841   4.085  14.756  0.4491 -0.4944  0.1210
17236TIP3    H173123   3.848   4.171  14.798 -0.6268 -0.7438  0.8199
17236TIP3    H273124   3.772   4.040  14.805  1.3047 -1.9160  0.0424
17237TIP3   OH273125   2.684   0.125   0.673  0.1944 -0.1204  0.2056
17237TIP3    H173126   2.749   0.158   0.736 -0.2091  0.2809  0.4057
17237TIP3    H273127   2.730   0.125   0.589 -0.2171  2.1876 -0.0408
17238TIP3   OH273128   1.476   2.506  12.749 -0.0810  0.2499 -0.5416
17238TIP3    H173129   1.448   2.562  12.677 -0.5439 -1.6725 -1.9035
17238TIP3    H273130   1.537   2.444  12.709 -1.8082 -2.0545  0.2717
17239TIP3   OH273131   6.300   4.931  15.676  0.0713  0.0476  0.3099
17239TIP3    H173132   6.310   4.941  15.770  2.1915  2.5979 -0.1332
17239TIP3    H273133   6.366   4.866  15.651 -0.1124 -0.2097  0.4922
17240TIP3   OH273134   3.157   4.950   2.030 -0.3675  0.3727  0.2643
17240TIP3    H173135   3.179   5.041   2.012  1.0353 -0.0232 -0.0579
17240TIP3    H273136   3.061   4.949   2.038 -0.6225  1.4245 -2.2246
17241TIP3   OH273137   3.174   5.393   4.509  0.1252  0.1416 -0.6767
17241TIP3    H173138   3.099   5.412   4.566  3.0633  1.5708  2.9075
17241TIP3    H273139   3.194   5.477   4.467  0.2861 -0.0259 -0.9362
17242TIP3   OH273140   3.071   4.379  14.830  0.1891 -0.3046 -0.0749
17242TIP3    H173141   3.086   4.394  14.924  2.4270  0.7167 -0.5642
17242TIP3    H273142   3.023   4.457  14.802  1.9992  0.7492 -0.3267
17243TIP3   OH273143   3.311   3.446   2.576 -0.4745 -0.2776 -0.2191
17243TIP3    H173144   3.222   3.438   2.612 -0.1937 -0.4442  0.4458
17243TIP3    H273145   3.300   3.497   2.496 -1.1469 -0.1376 -0.0418
17244TIP3   OH273146   0.553   4.638   2.062  0.1563  0.0579  0.4955
17244TIP3    H173147   0.559   4.721   2.110 -0.7662 -0.1790  1.0360
17244TIP3    H273148   0.564   4.663   1.970 -1.6858  1.0188  0.4934
17245TIP3   OH273149   1.414   0.365   2.278 -0.3891 -0.4651  0.0009
17245TIP3    H173150   1.386   0.312   2.353 -2.1692  0.1034 -0.2351
17245TIP3    H273151   1.464   0.305   2.223  0.7267 -0.9454  1.5342
17246TIP3   OH273152   1.380   6.728  15.713  0.2773  0.6887 -0.3353
17246TIP3    H173153   1.396   6.706  15.621  2.0343  0.9012 -0.1015
17246TIP3    H273154   1.364   6.644  15.756  1.6818  0.3539 -0.4331
17247TIP3   OH273155   4.921   4.489  11.973  0.1544 -0.4801 -0.3761
17247TIP3    H173156   4.907   4.549  11.899 -1.6954  0.0171  0.3575
17247TIP3    H273157   4.833   4.468  12.004  0.9194 -0.3256  1.9951
17248TIP3   OH273158   1.137   0.299   4.130 -0.2708  0.0615 -0.6655
17248TIP3    H173159   1.084   0.359   4.182  0.1692 -0.0491 -0.0904
17248TIP3    H273160   1.123   0.327   4.039  1.0672  1.9478 -0.3041
17249TIP3   OH273161   2.984   1.911   2.665  0.0621 -0.2356 -0.1991
17249TIP3    H173162   2.968   1.820   2.692 -0.2009  0.4007  1.8877
17249TIP3    H273163   3.028   1.904   2.581  2.4695 -2.3748  1.1921
17250TIP3   OH273164   4.037   6.489  12.420 -0.1421 -0.3942  0.0950
17250TIP3    H173165   3.961   6.499  12.477  0.4511 -2.9723  1.4103
17250TIP3    H273166   3.999   6.471  12.334 -1.0247  1.1263  0.1442
17251TIP3   OH273167   0.208   5.359  13.998 -0.3036 -0.2907  0.4325
17251TIP3    H173168   0.227   5.266  14.006  0.1107 -0.1991  0.5207
17251TIP3    H273169   0.231   5.381  13.908 -0.9532 -0.3975  0.2357
17252TIP3   OH273170   0.821   0.280   1.197  0.4761 -0.3034  0.8087
17252TIP3    H173171   0.907   0.315   1.174  0.2767 -0.6762 -0.5408
17252TIP3    H273172   0.826   0.188   1.173  0.2065 -0.6778  2.1570
17253TIP3   OH273173   4.249   3.237  11.257 -0.8478  0.4226 -0.4225
17253TIP3    H173174   4.195   3.234  11.337 -0.0292 -0.0111  0.1220
17253TIP3    H273175   4.311   3.308  11.273 -0.5604  0.2105 -0.5854
17254TIP3   OH273176   1.495   3.375   3.115  0.3366  0.1499 -0.2227
17254TIP3    H173177   1.454   3.354   3.032 -1.5312  0.9997  0.4742
17254TIP3    H273178   1.507   3.290   3.158 -0.8814 -0.0822 -0.3425
17255TIP3   OH273179   1.786   6.223   3.627 -0.3222  0.3197 -0.1774
17255TIP3    H173180   1.703   6.226   3.675 -1.4002 -0.3326 -1.9410
17255TIP3    H273181   1.782   6.142   3.578  2.0133 -0.4082  0.7843
17256TIP3   OH273182   1.430   3.688  15.474  0.1607  0.6575 -0.7626
17256TIP3    H173183   1.338   3.670  15.492  0.9961 -2.1049  1.0944
17256TIP3    H273184   1.461   3.734  15.551  1.2698 -2.0410  0.4658
17257TIP3   OH273185   4.089   1.890   4.865 -0.2918  0.4625 -0.2889
17257TIP3    H173186   4.169   1.893   4.918 -0.9635  0.0551  0.7728
17257TIP3    H273187   4.031   1.831   4.913 -1.6715  1.6872 -0.4280
17258TIP3   OH273188   3.271   4.812   3.965 -0.4398 -0.3702 -0.3766
17258TIP3    H173189   3.251   4.776   3.879 -0.3585  0.0571 -0.5781
17258TIP3    H273190   3.353   4.769   3.991 -1.0430 -1.3133 -0.0259
17259TIP3   OH273191   4.064   4.454   4.161 -0.1502 -0.2172  0.4214
17259TIP3    H173192   4.006   4.508   4.216  0.6267 -0.7053  1.7252
17259TIP3    H273193   4.107   4.395   4.222  1.7979  0.1872 -0.5318
17260TIP3   OH273194   3.818   5.116  11.247 -0.1250  0.6986 -0.6840
17260TIP3    H173195   3.837   5.023  11.263  0.2998  0.5675 -1.8845
17260TIP3    H273196   3.887   5.145  11.187  0.2033  2.0075  0.3042
17261TIP3   OH273197   1.245   3.813   1.176 -0.2511  0.4221  0.4753
17261TIP3    H173198   1.288   3.728   1.182 -0.0114  0.5887  1.1137
17261TIP3    H273199   1.237   3.842   1.266 -0.9983  0.7464  0.3092
17262TIP3   OH273200   4.244   5.588  11.894 -0.0574 -0.5242  0.5219
17262TIP3    H173201   4.176   5.620  11.835  1.6336  1.1206 -0.5785
17262TIP3    H273202   4.314   5.559  11.837  1.0786 -0.1155  1.6812
17263TIP3   OH273203   4.156   2.385  15.436 -0.6567 -0.0999 -0.3918
17263TIP3    H173204   4.208   2.306  15.424 -1.9728 -0.6388 -2.8344
17263TIP3    H273205   4.208   2.455  15.396 -1.3612 -0.4777 -2.0000
17264TIP3   OH273206   3.202   5.009  15.808  0.1308  0.0815 -0.7827
17264TIP3    H173207   3.149   5.033  15.884  1.0400  0.7496 -0.3490
17264TIP3    H273208   3.188   5.079  15.745  0.6681  0.3834 -0.5745
17265TIP3   OH273209   0.991   5.650   5.488  0.0198  0.3294  0.4117
17265TIP3    H173210   1.038   5.662   5.405  0.6280  0.7419  0.8092
17265TIP3    H273211   0.906   5.613   5.463  0.9379 -1.3955 -0.2223
17266TIP3   OH273212   3.931   4.120  15.809 -0.0819 -0.2561  0.1443
17266TIP3    H173213   4.007   4.138  15.754  1.0612 -2.3977  0.9319
17266TIP3    H273214   3.868   4.078  15.751  0.9592 -2.1385  0.3193
17267TIP3   OH273215   1.256   6.232  15.484  0.1596  0.4855 -0.2719
17267TIP3    H173216   1.183   6.235  15.422 -0.9627  1.4156  1.0505
17267TIP3    H273217   1.218   6.193  15.563  0.9057  1.6201  0.6607
17268TIP3   OH273218   6.632   4.782   4.476  0.6350 -0.1317 -0.2575
17268TIP3    H173219   6.675   4.737   4.549  2.2732  0.0193 -1.0942
17268TIP3    H273220   6.556   4.728   4.456  1.6180 -1.6065 -0.1054
17269TIP3   OH273221   4.046   0.041  14.098 -1.1108  0.0991  0.0985
17269TIP3    H173222   3.973   0.070  14.152 -1.5543  1.7726 -1.3254
17269TIP3    H273223   4.088   0.122  14.069 -0.1144 -0.7796 -1.0069
17270TIP3   OH273224   3.215   3.656  15.521  0.0446  0.8889  0.7416
17270TIP3    H173225   3.163   3.737  15.524 -0.5487  0.5361  0.0981
17270TIP3    H273226   3.283   3.673  15.457 -0.2149  0.8027  0.4417
17271TIP3   OH273227   3.766   6.122   4.846  0.0090  0.0974 -0.1030
17271TIP3    H173228   3.675   6.100   4.866 -0.3486  2.2150  0.7043
17271TIP3    H273229   3.792   6.058   4.780 -2.5648  0.4123 -1.4749
17272TIP3   OH273230   0.005   4.925   3.870  0.5204 -0.4649  0.1277
17272TIP3    H173231   0.003   4.975   3.788  0.5492  0.2698  0.5786
17272TIP3    H273232   0.092   4.943   3.906 -0.8529  2.2429  2.2146
17273TIP3   OH273233   0.343   6.331   0.640  0.2724  0.0566 -0.0539
17273TIP3    H173234   0.426   6.379   0.635 -0.2173  0.9479  0.2996
17273TIP3    H273235   0.315   6.322   0.549  1.4752 -1.5218 -0.2843
17274TIP3   OH273236   3.676   1.134  12.371  0.5064 -0.2599 -0.0847
17274TIP3    H173237   3.617   1.186  12.427 -0.7684 -0.1844 -1.4667
17274TIP3    H273238   3.624   1.116  12.292  1.1997 -2.9217 -0.0001
17275TIP3   OH273239   1.767   0.032  14.965  0.5877  0.1567 -0.3005
17275TIP3    H173240   1.711   0.072  14.898  1.8286  0.3356 -1.2568
17275TIP3    H273241   1.833  -0.016  14.915 -0.7723 -3.0192  0.8217
17276TIP3   OH273242   5.458   4.373   5.058 -0.7702 -0.1157  0.1716
17276TIP3    H173243   5.522   4.442   5.074 -1.9227  0.5312  2.2756
17276TIP3    H273244   5.388   4.416   5.009  0.1258 -0.7104 -1.7106
17277TIP3   OH273245   5.680   4.530   1.020 -0.3220 -0.2501 -0.1202
17277TIP3    H173246   5.593   4.569   1.026 -0.8673 -1.7021  2.0401
17277TIP3    H273247   5.737   4.590   1.069  0.0507  1.0175 -2.0451
17278TIP3   OH273248   1.281   1.300   3.083 -0.5537  0.2531  0.0749
17278TIP3    H173249   1.366   1.264   3.057 -1.3514 -2.3659  0.8918
17278TIP3    H273250   1.257   1.250   3.161 -2.2075  1.9246  0.6749
17279TIP3   OH273251   1.557   1.155   1.006 -0.1092  0.4904 -0.0469
17279TIP3    H173252   1.558   1.060   1.001 -2.3684  0.4667 -0.3509
17279TIP3    H273253   1.490   1.176   1.071 -0.8861  1.9135 -1.2755
17280TIP3   OH273254   6.124   4.058   1.225 -0.3735  0.3389  0.7325
17280TIP3    H173255   6.056   4.107   1.179  0.8348  0.4753 -0.9877
17280TIP3    H273256   6.120   3.970   1.189 -1.2063 -0.3147  2.3669
17281TIP3   OH273257   6.646   5.847   2.150 -0.1691 -0.5099 -0.1160
17281TIP3    H173258   6.573   5.900   2.120 -1.7693 -1.6909  1.6345
17281TIP3    H273259   6.627   5.759   2.119 -0.3102 -1.1411  1.7131
17282TIP3   OH273260   6.262   3.254   5.478  0.1946 -0.2194  0.6321
17282TIP3    H173261   6.356   3.249   5.463 -0.1071  0.0823 -1.4462
17282TIP3    H273262   6.223   3.203   5.407 -1.2035 -0.6815  1.7082
17283TIP3   OH273263   3.012   1.539  16.893  0.0823  0.2369 -0.3387
17283TIP3    H173264   3.075   1.521  16.963 -0.1167  0.2738 -0.1497
17283TIP3    H273265   3.050   1.498  16.815  1.1120  1.6391 -0.5818
17284TIP3   OH273266   6.349   3.677   3.402  0.4435 -0.0059  0.1217
17284TIP3    H173267   6.405   3.637   3.335  0.1180  0.6302 -0.5417
17284TIP3    H273268   6.301   3.604   3.441  1.4560 -0.5121  0.4349
17285TIP3   OH273269   5.526   2.273  15.024  0.4702 -0.5642 -0.1088
17285TIP3    H173270   5.575   2.308  15.098  2.6192  0.6743 -2.0404
17285TIP3    H273271   5.583   2.204  14.989 -0.0822 -0.5079 -1.1479
17286TIP3   OH273272   6.582   6.356  12.413 -0.4798 -0.2608 -0.1717
17286TIP3    H173273   6.660   6.387  12.368 -0.1124 -0.2310  0.4902
17286TIP3    H273274   6.606   6.270  12.447 -0.7500 -0.2740 -0.0080
17287TIP3   OH273275   5.534   4.261  17.083  0.1089 -0.0941  0.3639
17287TIP3    H173276   5.459   4.308  17.120  0.2296 -1.4497  2.4316
17287TIP3    H273277   5.600   4.328  17.067 -1.2812  1.0216 -0.8224
17288TIP3   OH273278   2.066   6.456   1.686  0.3141  0.0981 -0.0881
17288TIP3    H173279   2.153   6.466   1.726  0.0929  1.3152  0.1223
17288TIP3    H273280   2.084   6.456   1.592  0.6685 -1.0664 -0.0343
17289TIP3   OH273281   3.797   0.671  11.594 -0.6546 -0.3907  0.0087
17289TIP3    H173282   3.872   0.665  11.654  0.2200  0.2827 -0.9893
17289TIP3    H273283   3.827   0.730  11.525 -1.7250 -1.0012 -0.9853
17290TIP3   OH273284   0.543   1.723   4.549 -0.1736 -0.1856  0.4848
17290TIP3    H173285   0.470   1.748   4.493 -1.5130 -1.7324  1.5237
17290TIP3    H273286   0.510   1.735   4.638  0.9896 -0.4565  0.9601
17291TIP3   OH273287   3.244   3.006   1.630 -0.4088  0.0552  0.7565
17291TIP3    H173288   3.190   3.075   1.590  0.1259  0.3202  0.4770
17291TIP3    H273289   3.248   3.029   1.722 -1.1220 -0.2015  0.8555
17292TIP3   OH273290   2.955   0.628  16.002  0.1051 -0.6014  0.0717
17292TIP3    H173291   3.018   0.582  15.946 -1.3698 -0.3684 -1.8236
17292TIP3    H273292   2.914   0.558  16.053  2.9429 -0.6160  2.4876
17293TIP3   OH273293   0.171   4.670   4.286 -0.0834  0.1672 -0.0857
17293TIP3    H173294   0.159   4.636   4.375 -0.5497 -1.2427 -0.6787
17293TIP3    H273295   0.127   4.755   4.287 -1.1864 -0.4048  0.6680
17294TIP3   OH273296   0.132   6.360  12.878 -0.5502  0.1117  0.4891
17294TIP3    H173297   0.048   6.385  12.839 -0.7163 -0.3576  0.5417
17294TIP3    H273298   0.135   6.406  12.962 -0.4820  0.6090  0.2161
17295TIP3   OH273299   2.350   2.521   1.745 -0.0319 -0.3053  0.1282
17295TIP3    H173300   2.405   2.555   1.815  0.8074  0.6776 -0.9905
17295TIP3    H273301   2.292   2.595   1.723 -0.0977 -0.5187 -0.4122
17296TIP3   OH273302   6.069   5.870   4.323 -0.0498  0.2443  0.3481
17296TIP3    H173303   6.099   5.958   4.298 -1.7248  0.7450  0.0097
17296TIP3    H273304   6.105   5.812   4.257  0.4318  0.7846  0.1359
17297TIP3   OH273305   5.557   5.250  16.686 -0.1115 -0.1128  0.0926
17297TIP3    H173306   5.466   5.223  16.694  0.0042 -0.5252  0.0336
17297TIP3    H273307   5.567   5.275  16.594 -0.6927  1.8902  0.5545
17298TIP3   OH273308   0.316   3.009  15.372  0.1423 -0.3907 -0.1637
17298TIP3    H173309   0.241   2.949  15.371  0.3907 -0.7952  2.7219
17298TIP3    H273310   0.392   2.953  15.389  0.7294  0.4085 -0.0949
17299TIP3   OH273311   2.250   1.109  12.738 -0.3650 -0.5814 -0.0005
17299TIP3    H173312   2.335   1.084  12.701 -0.1055 -0.5096  0.5314
17299TIP3    H273313   2.202   1.148  12.665 -0.1087 -1.0359 -0.4127
17300TIP3   OH273314   0.705   3.134  11.857 -0.0688  0.2786 -0.0022
17300TIP3    H173315   0.751   3.144  11.774 -1.1382 -0.8609 -0.7335
17300TIP3    H273316   0.613   3.149  11.836 -0.1832  1.5970  1.2812
17301TIP3   OH273317   4.664   4.783  13.535 -0.8983  0.4021 -0.3951
17301TIP3    H173318   4.597   4.825  13.589  1.4145  3.3654  0.2912
17301TIP3    H273319   4.672   4.840  13.459  1.0563  0.2284 -0.3236
17302TIP3   OH273320   4.209   2.232   5.948 -0.0015 -0.1930 -0.3680
17302TIP3    H173321   4.160   2.224   6.030  2.1165  1.6599  1.1461
17302TIP3    H273322   4.234   2.142   5.926 -0.4281 -0.6981  1.1316
17303TIP3   OH273323   4.408   0.538   0.363 -0.1299  0.0203 -0.1629
17303TIP3    H173324   4.492   0.564   0.325  1.0541  0.8056  2.7715
17303TIP3    H273325   4.367   0.482   0.297  3.7929 -2.4016 -0.7140
17304TIP3   OH273326   1.598   1.251   0.259 -0.0665 -0.0127  0.3208
17304TIP3    H173327   1.588   1.156   0.254  1.3855 -0.2593  1.5182
17304TIP3    H273328   1.693   1.265   0.267 -0.1580  1.6095 -1.0330
17305TIP3   OH273329   3.569   2.767  16.110 -0.0168  0.0741 -0.0122
17305TIP3    H173330   3.547   2.765  16.203 -0.7971 -0.5235 -0.2059
17305TIP3    H273331   3.655   2.809  16.107 -0.4968  1.1414  0.8733
17306TIP3   OH273332   2.254   3.169  11.132 -0.4505  0.1650  0.3558
17306TIP3    H173333   2.198   3.237  11.093  0.7904  1.6365  1.0966
17306TIP3    H273334   2.334   3.172  11.080  0.0659  0.0809  1.1546
17307TIP3   OH273335   6.471   0.054   4.207 -0.1339  0.1080  0.6932
17307TIP3    H173336   6.519   0.095   4.135  2.2944 -3.1128  0.3627
17307TIP3    H273337   6.526   0.071   4.285 -0.1291 -0.7563  0.8848
17308TIP3   OH273338   3.083   5.184   3.360  0.2370 -0.0506  0.6561
17308TIP3    H173339   3.140   5.217   3.430 -0.4083  0.5140  0.9155
17308TIP3    H273340   3.104   5.090   3.355 -0.1162 -0.2195  2.0108
17309TIP3   OH273341   0.977   1.805   3.139  0.0826 -0.5336  0.5979
17309TIP3    H173342   0.993   1.737   3.204 -0.2649  0.8568  2.1772
17309TIP3    H273343   1.053   1.799   3.080  0.9223 -1.1548  1.7081
17310TIP3   OH273344   5.620   4.475  11.998  0.1071  0.1445 -0.8644
17310TIP3    H173345   5.620   4.492  11.903 -1.0048  1.7744 -0.6048
17310TIP3    H273346   5.539   4.427  12.013 -2.1411  3.9516 -0.1354
17311TIP3   OH273347   0.929   0.397   0.011  0.3534  0.0787 -0.1131
17311TIP3    H173348   0.962   0.484   0.034  0.1634 -0.4114  2.1377
17311TIP3    H273349   0.996   0.360  -0.045  1.4133  0.9105  0.5801
17312TIP3   OH273350   0.491   1.460  11.835 -0.3287  0.6866  0.3994
17312TIP3    H173351   0.466   1.549  11.857 -0.2599  0.2235  2.4429
17312TIP3    H273352   0.538   1.468  11.752 -0.2260  2.5475  0.6171
17313TIP3   OH273353   4.777   5.269   1.495 -0.5850  0.8461  0.3851
17313TIP3    H173354   4.744   5.239   1.410  2.3285 -1.2426 -0.1006
17313TIP3    H273355   4.769   5.364   1.491  2.1732  1.0572 -3.4725
17314TIP3   OH273356   1.671   3.283  13.340  0.2117 -0.1454 -0.5257
17314TIP3    H173357   1.761   3.252  13.352  0.0767 -1.1144 -1.9280
17314TIP3    H273358   1.660   3.290  13.246 -1.6491 -1.4185 -0.4311
17315TIP3   OH273359   1.564   2.005  13.059 -0.1136  0.0015 -0.3433
17315TIP3    H173360   1.518   1.954  13.126 -0.6276 -0.1671 -0.8260
17315TIP3    H273361   1.641   1.952  13.038  1.4050  1.2242  1.9243
17316TIP3   OH273362   4.358   2.003   2.531 -0.0139 -0.3116  0.1969
17316TIP3    H173363   4.371   2.080   2.587  2.3164 -0.9987  0.6597
17316TIP3    H273364   4.295   1.949   2.578 -0.5003  0.6007  0.6042
17317TIP3   OH273365   3.430   1.543  11.586 -0.6363  0.2899 -0.0381
17317TIP3    H173366   3.500   1.592  11.543 -0.3950 -1.1071 -1.2681
17317TIP3    H273367   3.360   1.607  11.599  0.0523  1.1913 -0.7331
17318TIP3   OH273368   3.766   2.622   2.986 -0.2810 -0.1308 -0.2864
17318TIP3    H173369   3.781   2.590   2.897  1.5805 -1.3592  0.4307
17318TIP3    H273370   3.829   2.693   2.996  0.0435 -0.5000  0.3016
17319TIP3   OH273371   3.285   1.951   4.109 -0.1798  0.3680  0.0582
17319TIP3    H173372   3.275   1.860   4.081 -0.0428  0.6245 -0.8442
17319TIP3    H273373   3.367   1.953   4.159  0.4342  0.2387 -0.9466
17320TIP3   OH273374   1.000   4.379   0.087  0.2670  0.2397 -0.5624
17320TIP3    H173375   1.063   4.354   0.154 -0.1586 -0.0969 -0.2879
17320TIP3    H273376   0.933   4.311   0.089 -0.4585  0.9469 -0.3868
17321TIP3   OH273377   3.949   2.002  14.014 -0.3115 -0.1288  0.1216
17321TIP3    H173378   3.856   2.014  13.993 -0.0767  0.7039 -0.4237
17321TIP3    H273379   3.993   2.076  13.974  0.4880 -0.0362  1.1565
17322TIP3   OH273380   5.467   0.051  14.636 -0.0853  0.3054  0.2886
17322TIP3    H173381   5.402   0.035  14.704  0.0415  1.1582  0.6198
17322TIP3    H273382   5.455  -0.021  14.574 -2.1029  1.0693 -0.2493
17323TIP3   OH273383   0.907   2.249   4.433  0.1985  0.0688  0.3436
17323TIP3    H173384   0.832   2.286   4.386  0.5831 -0.1548 -0.4594
17323TIP3    H273385   0.927   2.312   4.501  0.5211  1.0926 -0.6827
17324TIP3   OH273386   3.040   4.677   5.760  0.0868  0.0127 -0.1364
17324TIP3    H173387   3.036   4.773   5.757 -0.9811 -0.0017  0.3867
17324TIP3    H273388   3.109   4.658   5.824 -1.5627  0.4659  1.8341
17325TIP3   OH273389   1.881   5.384  15.520  0.5240 -0.3467 -0.0971
17325TIP3    H173390   1.835   5.385  15.436  1.3327 -0.0752 -0.5497
17325TIP3    H273391   1.974   5.388  15.496  0.7889 -1.0740  0.7907
17326TIP3   OH273392   3.497   2.539   5.987  0.4125  0.6957  0.3682
17326TIP3    H173393   3.512   2.547   6.081 -0.3650 -1.4025  0.6989
17326TIP3    H273394   3.403   2.550   5.976  0.7042  2.6335 -0.3909
17327TIP3   OH273395   4.438   3.428  11.333 -0.2321  0.1472 -0.0905
17327TIP3    H173396   4.374   3.470  11.390  1.0855  2.0541  0.0418
17327TIP3    H273397   4.477   3.360  11.386 -1.6271 -0.5559  0.0574
17328TIP3   OH273398   0.644   5.724   3.966  0.2082 -0.1745  0.0559
17328TIP3    H173399   0.668   5.816   3.959 -0.1920  0.0062  1.0504
17328TIP3    H273400   0.559   5.724   4.009 -0.0284 -0.9888 -0.3931
17329TIP3   OH273401   3.559   2.622   2.060 -0.3403 -0.4732 -0.1204
17329TIP3    H173402   3.466   2.642   2.061 -0.2109  0.1442 -0.2789
17329TIP3    H273403   3.586   2.631   2.152 -0.3546 -0.2745 -0.1365
17330TIP3   OH273404   4.288   4.509  14.769 -0.0124 -0.3017 -0.1853
17330TIP3    H173405   4.311   4.455  14.844  0.3904  2.0521  1.4354
17330TIP3    H273406   4.195   4.492  14.755 -0.2993 -0.1085  1.4135
17331TIP3   OH273407   0.958   0.187   3.666  0.0840  0.1276 -0.3435
17331TIP3    H173408   1.023   0.142   3.612 -1.3852 -1.5461 -0.7993
17331TIP3    H273409   0.918   0.117   3.718  0.6529  1.5619  2.0700
17332TIP3   OH273410   0.089   4.654   5.870  0.8137  0.0884  0.0811
17332TIP3    H173411   0.136   4.736   5.860  2.1016 -0.4819  1.4155
17332TIP3    H273412   0.053   4.636   5.782 -0.2436  2.5090 -0.0109
17333TIP3   OH273413   1.782   1.433  17.118  0.2093 -1.2227 -0.6922
17333TIP3    H173414   1.815   1.401  17.202 -0.9510 -1.7337 -0.4269
17333TIP3    H273415   1.733   1.512  17.140  2.1449  0.1658 -1.2170
17334TIP3   OH273416   6.587   2.239  17.227  0.0602  0.3628 -0.2339
17334TIP3    H173417   6.558   2.256  17.317 -1.0915  2.1518 -0.9209
17334TIP3    H273418   6.511   2.201  17.184  0.3648  0.2416 -0.6642
17335TIP3   OH273419   4.849   2.141   5.102 -0.1167 -0.4904 -0.7486
17335TIP3    H173420   4.824   2.106   5.187 -0.2203  2.8506  0.6418
17335TIP3    H273421   4.945   2.142   5.103 -0.1244  1.3124  0.1217
17336TIP3   OH273422   6.705   3.865   1.683 -0.6627  0.3760 -0.6912
17336TIP3    H173423   6.631   3.919   1.654 -1.7558  0.3613  1.8814
17336TIP3    H273424   6.760   3.925   1.732 -0.8871 -0.3919  0.5322
17337TIP3   OH273425   3.861   2.213  14.293 -0.2710  0.2918  0.0610
17337TIP3    H173426   3.813   2.277  14.241 -1.3883 -0.9087 -0.4277
17337TIP3    H273427   3.922   2.265  14.345 -1.2880  1.7657 -0.1797
17338TIP3   OH273428   5.519   3.749  15.173  0.7404  0.5049  0.7752
17338TIP3    H173429   5.527   3.666  15.219 -0.6446  0.6775  1.3714
17338TIP3    H273430   5.470   3.805  15.234  0.4928  1.3272 -0.1644
17339TIP3   OH273431   3.277   3.696   2.335  0.0851 -0.3216 -0.1579
17339TIP3    H173432   3.371   3.685   2.322  0.5931  1.2259  1.9091
17339TIP3    H273433   3.258   3.781   2.295 -0.7690 -1.3751 -2.0378
17340TIP3   OH273434   5.660   3.635  10.988 -0.0558 -0.3462  0.0225
17340TIP3    H173435   5.650   3.551  11.033 -1.3398 -0.1328  0.1613
17340TIP3    H273436   5.664   3.613  10.895  0.7204 -0.6375  0.1172
17341TIP3   OH273437   2.799   1.502   1.277 -0.3385  0.3760 -0.2360
17341TIP3    H173438   2.849   1.579   1.304  0.1521  0.5547 -1.5823
17341TIP3    H273439   2.765   1.526   1.191 -0.0462 -0.9654 -0.7371
17342TIP3   OH273440   2.113   1.616   4.211  0.2478 -0.0235  0.3799
17342TIP3    H173441   2.106   1.536   4.160  2.2250 -0.5527  0.8790
17342TIP3    H273442   2.205   1.642   4.202 -0.8106  3.3998 -1.5455
17343TIP3   OH273443   1.267   2.465   0.665 -0.3055  0.1578 -0.3823
17343TIP3    H173444   1.346   2.464   0.611  0.3235  2.7143  0.4214
17343TIP3    H273445   1.290   2.412   0.741  0.2906  0.0641 -0.6248
17344TIP3   OH273446   1.558   0.047   1.880  0.2554 -0.1005 -0.2724
17344TIP3    H173447   1.498   0.119   1.863 -0.9632 -0.3029  2.8762
17344TIP3    H273448   1.642   0.078   1.847 -0.5641  2.1679 -0.3269
17345TIP3   OH273449   5.891   3.967  13.129  0.3853  0.5601 -0.5957
17345TIP3    H173450   5.905   4.057  13.100  2.3117  0.7222  0.7553
17345TIP3    H273451   5.865   3.975  13.221  1.5932 -0.2925 -0.1667
17346TIP3   OH273452   2.481   3.502  14.234  0.1991 -0.1545 -0.0841
17346TIP3    H173453   2.459   3.588  14.199  0.6841 -0.8293 -2.1296
17346TIP3    H273454   2.538   3.519  14.309  0.8930  1.2811 -0.9278
17347TIP3   OH273455   3.588   0.094  16.882 -0.6359  0.5817  0.1087
17347TIP3    H173456   3.508   0.101  16.830 -0.2329  0.6536 -0.5000
17347TIP3    H273457   3.568   0.025  16.946 -2.1481  2.4287  1.7038
17348TIP3   OH273458   4.755   4.343  13.453  0.1980  0.1248  0.3256
17348TIP3    H173459   4.828   4.307  13.504  1.3616  0.7737 -0.8539
17348TIP3    H273460   4.797   4.390  13.381 -1.3435  1.7123  0.4203
17349TIP3   OH273461   0.914   2.467  13.489 -0.0746 -0.1801 -0.9516
17349TIP3    H173462   0.997   2.500  13.453 -0.9234  1.7330 -1.2220
17349TIP3    H273463   0.848   2.499  13.428 -1.0213 -1.6106 -0.6729
17350TIP3   OH273464   2.796   3.894   5.988  0.4660 -0.1823 -0.3882
17350TIP3    H173465   2.814   3.945   5.909  0.1091 -1.1627 -1.1029
17350TIP3    H273466   2.701   3.884   5.990  0.4856 -0.3264  0.0693
17351TIP3   OH273467   3.411   5.005  11.764 -0.6941 -0.1051  0.4415
17351TIP3    H173468   3.346   5.019  11.696  0.3076  3.2403  0.0468
17351TIP3    H273469   3.485   4.963  11.720 -0.9995 -0.1654 -0.0035
17352TIP3   OH273470   6.589   2.561  15.586 -0.3192 -0.1431  0.0494
17352TIP3    H173471   6.559   2.553  15.495 -1.3420 -1.4789  0.4863
17352TIP3    H273472   6.523   2.616  15.628 -0.2684 -0.1752  0.1715
17353TIP3   OH273473   6.490   2.522  14.630 -0.5592 -0.5481  0.1798
17353TIP3    H173474   6.528   2.605  14.599 -0.8727 -1.0842 -1.7172
17353TIP3    H273475   6.487   2.531  14.725  2.1551  0.4440  0.2145
17354TIP3   OH273476   6.646   1.652  15.112  0.0773  0.2899 -0.6313
17354TIP3    H173477   6.594   1.577  15.083 -0.8701  0.0276  1.6271
17354TIP3    H273478   6.636   1.716  15.042 -1.1553 -0.7535 -1.4349
17355TIP3   OH273479   3.598   3.474   5.028 -0.2589  0.8717  0.5460
17355TIP3    H173480   3.511   3.435   5.038  0.6100 -1.6473 -1.0860
17355TIP3    H273481   3.599   3.508   4.938  0.6665  0.1843  0.2806
17356TIP3   OH273482   3.354   0.144   6.048 -0.5186 -0.2913  0.1060
17356TIP3    H173483   3.420   0.134   5.979  0.5366 -0.1989  1.0882
17356TIP3    H273484   3.361   0.063   6.099 -0.0921  0.3847  1.1286
17357TIP3   OH273485   1.525   3.681  12.634 -1.1495  0.0968  0.1672
17357TIP3    H173486   1.470   3.751  12.600 -0.4124  1.0424  0.8993
17357TIP3    H273487   1.514   3.609  12.572 -1.3506  1.1101 -0.9803
17358TIP3   OH273488   0.291   4.366  16.797 -0.3776 -0.1001 -0.1383
17358TIP3    H173489   0.314   4.278  16.828 -0.7011 -0.1199  0.0434
17358TIP3    H273490   0.195   4.368  16.801 -0.3600  0.3219  0.0160
17359TIP3   OH273491   1.214   5.531  16.729  0.0937 -0.0695 -0.1009
17359TIP3    H173492   1.270   5.587  16.782  0.8537 -0.3162 -0.6401
17359TIP3    H273493   1.274   5.485  16.669 -0.4910 -1.5651  0.4222
17360TIP3   OH273494   0.640   3.928  16.768 -0.2975  0.2940 -0.1771
17360TIP3    H173495   0.564   3.974  16.734 -0.2759 -0.2408 -0.9526
17360TIP3    H273496   0.709   3.943  16.703  0.4212  1.2069  0.7651
17361TIP3   OH273497   5.359   2.764   2.009  0.2167  0.0872 -0.0728
17361TIP3    H173498   5.407   2.682   2.015  0.0817  0.0345  0.2675
17361TIP3    H273499   5.420   2.831   2.039 -0.9871 -0.3605  3.5333
17362TIP3   OH273500   5.416   5.053   3.065 -0.2400 -0.3212  0.0686
17362TIP3    H173501   5.452   5.126   3.015 -0.1734 -0.6445 -0.3513
17362TIP3    H273502   5.491   4.998   3.085 -0.2617 -0.1819  0.5475
17363TIP3   OH273503   3.997   6.435   1.453  0.1866 -0.3197 -0.0326
17363TIP3    H173504   3.961   6.523   1.450  2.2267  0.5196 -0.6352
17363TIP3    H273505   4.043   6.431   1.537 -0.7369 -1.1781  0.4526
17364TIP3   OH273506   2.598   5.543   0.274 -0.7125  0.1903  0.4065
17364TIP3    H173507   2.536   5.569   0.206 -0.7145  2.9334  1.3867
17364TIP3    H273508   2.624   5.626   0.315  1.0377 -1.2192  2.2100
17365TIP3   OH273509   6.656   4.907   0.141 -0.2821 -0.2056 -0.1215
17365TIP3    H173510   6.685   4.954   0.063 -0.5490 -3.0235 -1.9557
17365TIP3    H273511   6.567   4.940   0.157  0.1986  1.2283 -0.2547
17366TIP3   OH273512   2.923   0.296  11.342 -0.2382  0.2169 -0.2114
17366TIP3    H173513   3.012   0.299  11.376  0.2958  0.6749 -1.5868
17366TIP3    H273514   2.934   0.300  11.247 -1.7326  0.4833 -0.3883
17367TIP3   OH273515   6.195   4.696  16.614  1.0152  0.1847  0.2027
17367TIP3    H173516   6.269   4.646  16.648 -0.8681 -1.0157  2.7169
17367TIP3    H273517   6.157   4.639  16.547  0.6419 -0.4983  0.9775
17368TIP3   OH273518   0.992   6.379  16.372 -0.7031  0.4269 -1.7111
17368TIP3    H173519   0.899   6.357  16.359 -0.7379 -0.2353 -0.3647
17368TIP3    H273520   1.003   6.464  16.328 -2.0392  0.7136 -1.5079
17369TIP3   OH273521   0.208   2.754  14.848  0.7190 -0.3581 -0.4756
17369TIP3    H173522   0.122   2.715  14.834  1.3099 -1.0162 -2.4794
17369TIP3    H273523   0.246   2.759  14.760  2.3369  0.8242  0.2697
17370TIP3   OH273524   4.467   2.550   1.640 -0.0906  0.2154  0.0050
17370TIP3    H173525   4.417   2.521   1.716 -0.6937 -0.3809 -0.6154
17370TIP3    H273526   4.414   2.620   1.601  0.7635  1.3135  0.7810
17371TIP3   OH273527   6.758   2.603  14.837 -0.0309  0.6388 -0.7153
17371TIP3    H173528   6.689   2.545  14.868 -1.4970  2.1449 -1.1132
17371TIP3    H273529   6.713   2.669  14.786  1.6533  1.9273 -0.5801
17372TIP3   OH273530   4.659   3.242   5.597 -0.1956  0.1257 -0.1803
17372TIP3    H173531   4.747   3.247   5.634  0.7712 -3.5096 -1.7536
17372TIP3    H273532   4.623   3.161   5.633 -1.3292 -0.5350 -2.6875
17373TIP3   OH273533   3.656   5.127  14.721  0.1773  0.3130  0.0517
17373TIP3    H173534   3.609   5.182  14.783  1.6242  0.3650  1.1428
17373TIP3    H273535   3.610   5.043  14.723 -2.1246  1.4759 -1.7277
17374TIP3   OH273536   6.314   4.615  12.086  0.8827 -0.0114  0.0303
17374TIP3    H173537   6.387   4.587  12.031  0.1348 -1.1433 -0.4135
17374TIP3    H273538   6.237   4.602  12.031  0.2567  0.1866  0.8591
17375TIP3   OH273539   0.490   1.132   5.001  0.3598  0.8397  0.0413
17375TIP3    H173540   0.495   1.216   4.956  1.1841  0.7368 -0.0736
17375TIP3    H273541   0.482   1.155   5.094  2.3876  1.0675  0.1863
17376TIP3   OH273542   2.443   6.601  15.015  0.2671 -0.5663  0.0633
17376TIP3    H173543   2.431   6.622  14.922 -1.8875  0.1731  0.4830
17376TIP3    H273544   2.457   6.506  15.016  0.5258 -0.5485 -1.0275
17377TIP3   OH273545   0.750   3.232  16.662  0.5649 -0.2099 -0.1468
17377TIP3    H173546   0.672   3.239  16.717 -0.4210 -1.4926 -1.3357
17377TIP3    H273547   0.820   3.208  16.722 -0.4582 -1.3957  0.5905
17378TIP3   OH273548   4.013   4.120   6.009  0.1717 -0.4434 -0.2933
17378TIP3    H173549   4.099   4.091   5.979 -0.2217 -0.6424 -1.2594
17378TIP3    H273550   4.016   4.109   6.104  0.6129 -2.1313 -0.4772
17379TIP3   OH273551   3.841   3.382  11.444  0.3974 -0.0089  0.0181
17379TIP3    H173552   3.933   3.386  11.470 -0.6451 -0.7097  4.2699
17379TIP3    H273553   3.805   3.466  11.473 -0.8441 -0.8282  0.8630
17380TIP3   OH273554   5.697   1.506   5.576  0.3456  0.3391 -0.0807
17380TIP3    H173555   5.750   1.575   5.616 -0.0254 -0.1714  1.3029
17380TIP3    H273556   5.691   1.531   5.484 -0.7422  2.7493  0.6142
17381TIP3   OH273557   2.840   4.097   3.447  0.3469 -0.4143  0.5957
17381TIP3    H173558   2.800   4.056   3.524 -0.3865 -1.8378 -0.5215
17381TIP3    H273559   2.932   4.110   3.473  0.2237 -1.3310  1.5468
17382TIP3   OH273560   3.049   6.270   5.923 -0.0428 -0.3396  0.1978
17382TIP3    H173561   3.051   6.198   5.860  2.3489  0.1285 -0.2944
17382TIP3    H273562   3.031   6.348   5.870  0.4175 -0.1510  0.3258
17383TIP3   OH273563   3.933   1.610   3.831  0.6287 -0.2038  0.0296
17383TIP3    H173564   3.899   1.595   3.743 -0.0492  1.1592  0.0482
17383TIP3    H273565   4.005   1.672   3.819 -0.6092  1.3883  0.6025
17384TIP3   OH273566   0.892   5.149  12.384 -0.5960 -0.2693  0.6977
17384TIP3    H173567   0.857   5.087  12.448  0.2051  0.8043  2.2078
17384TIP3    H273568   0.839   5.228  12.397 -0.9607 -0.3101 -0.5296
17385TIP3   OH273569   0.275   2.694   5.094  0.1783  0.1354 -1.0922
17385TIP3    H173570   0.332   2.769   5.075  2.1181 -0.9616  0.2487
17385TIP3    H273571   0.236   2.716   5.179 -0.9004  0.5799 -1.6968
17386TIP3   OH273572   1.133   0.250  11.876  0.0996 -0.0811  0.0276
17386TIP3    H173573   1.114   0.250  11.783 -0.4666  0.8009  0.1371
17386TIP3    H273574   1.224   0.280  11.882  0.4694 -1.1252 -0.2955
17387TIP3   OH273575   4.462   2.792  12.482 -0.0057  0.2580  0.2414
17387TIP3    H173576   4.446   2.884  12.458  0.5318  0.2027 -0.3365
17387TIP3    H273577   4.557   2.786  12.492  0.0107 -0.3761 -0.2976
17388TIP3   OH273578   0.174   2.180   1.708 -0.0844  0.0434  0.1914
17388TIP3    H173579   0.219   2.103   1.672  0.9360 -0.1540  1.8331
17388TIP3    H273580   0.242   2.246   1.718 -1.1187  1.5090 -2.0471
17389TIP3   OH273581   0.215   0.879  16.239  0.4545 -0.0417  0.3343
17389TIP3    H173582   0.195   0.931  16.161  0.2202  1.7147  1.5311
17389TIP3    H273583   0.303   0.906  16.264  0.7524 -1.0165  0.3521
17390TIP3   OH273584   5.247   5.612  16.171 -0.0163 -0.3818  0.7145
17390TIP3    H173585   5.307   5.585  16.241  0.1031  0.0946  0.7953
17390TIP3    H273586   5.290   5.685  16.128 -1.3437  1.1666  1.9446
17391TIP3   OH273587   0.806   2.639   5.381 -0.2814 -0.2368 -0.1859
17391TIP3    H173588   0.869   2.712   5.377 -0.0646 -0.2892  1.8547
17391TIP3    H273589   0.720   2.681   5.374 -0.1154  0.1007 -0.1973
17392TIP3   OH273590   6.435   0.316  14.985  0.3096  0.0286  0.1873
17392TIP3    H173591   6.519   0.280  14.954  1.6092  0.9106  2.5716
17392TIP3    H273592   6.396   0.244  15.034 -0.6888 -0.6121 -1.5031
17393TIP3   OH273593   5.390   3.805   5.750  0.0035 -0.3798 -0.2527
17393TIP3    H173594   5.366   3.895   5.776 -0.2149 -0.6407  0.4753
17393TIP3    H273595   5.483   3.798   5.771 -0.4762 -1.0346  1.8167
17394TIP3   OH273596   0.526   5.664   1.722  0.1584 -0.2834 -0.0396
17394TIP3    H173597   0.574   5.590   1.683  0.7558 -0.6746  1.4045
17394TIP3    H273598   0.513   5.639   1.813  1.5828  1.9737  0.8248
17395TIP3   OH273599   1.528   0.660  14.228 -1.1298  0.0982 -0.1312
17395TIP3    H173600   1.616   0.623  14.226 -1.8569 -1.6628 -1.9378
17395TIP3    H273601   1.541   0.755  14.230  0.7995 -0.1557 -0.1712
17396TIP3   OH273602   5.486   1.178  16.120 -0.1779  0.3687  0.2358
17396TIP3    H173603   5.484   1.235  16.044 -0.3994  0.6799  0.4774
17396TIP3    H273604   5.524   1.232  16.190  0.4841 -0.0656  0.2204
17397TIP3   OH273605   5.782   5.604  11.806  0.1986 -0.7139 -0.2985
17397TIP3    H173606   5.866   5.561  11.789  0.4709 -1.6759  2.9966
17397TIP3    H273607   5.720   5.531  11.818 -0.9098 -0.0298 -1.6999
17398TIP3   OH273608   1.748   4.773   4.940  0.2273 -0.8610  0.2441
17398TIP3    H173609   1.743   4.678   4.955  1.1676 -1.0932 -0.9158
17398TIP3    H273610   1.835   4.797   4.969  0.8359 -0.7430 -1.6522
17399TIP3   OH273611   4.716   6.052   3.717 -0.2269  0.4722 -0.0723
17399TIP3    H173612   4.701   5.965   3.753  0.7632  0.0065 -0.7537
17399TIP3    H273613   4.653   6.061   3.646  0.7444 -0.3337 -1.0506
17400TIP3   OH273614   5.147   3.613   0.004 -0.0187 -0.1154 -0.2172
17400TIP3    H173615   5.142   3.541   0.066  0.5955 -0.3405 -0.4280
17400TIP3    H273616   5.063   3.659   0.014  0.3034  0.2020  1.2019
17401TIP3   OH273617   3.204   5.560  12.867 -0.1027  0.3224 -0.0371
17401TIP3    H173618   3.165   5.479  12.901  2.1029 -1.2302 -1.0853
17401TIP3    H273619   3.259   5.592  12.939 -2.3591  1.9088  1.0354
17402TIP3   OH273620   3.178   2.917  11.902 -0.3565 -0.0555  0.2121
17402TIP3    H173621   3.260   2.966  11.891 -0.2416 -0.1192  0.7850
17402TIP3    H273622   3.172   2.862  11.823  1.7034 -2.3097  1.5468
17403TIP3   OH273623   6.592   6.481   0.106  0.2521 -0.0955 -0.2352
17403TIP3    H173624   6.537   6.509   0.179 -0.2430 -0.2459 -0.5522
17403TIP3    H273625   6.660   6.427   0.147  0.4335  0.4596  0.2115
17404TIP3   OH273626   1.313   4.834   1.471  0.0329 -0.4149  0.5251
17404TIP3    H173627   1.251   4.903   1.498 -0.9587 -0.5857 -1.2460
17404TIP3    H273628   1.378   4.880   1.418 -0.4696 -0.7644 -0.4176
17405TIP3   OH273629   4.019   2.220   2.602  0.0257  0.7515  0.1077
17405TIP3    H173630   4.043   2.140   2.648  1.2979  1.2767  0.3850
17405TIP3    H273631   4.044   2.204   2.511 -1.0513  0.2951 -0.1069
17406TIP3   OH273632   3.261   5.842   1.398 -0.5944  0.2462  0.0153
17406TIP3    H173633   3.260   5.904   1.324 -0.9944  0.2252  0.0016
17406TIP3    H273634   3.185   5.867   1.451  0.6365  1.3146  1.2947
17407TIP3   OH273635   2.609   1.254   2.680  0.1926  0.3398 -0.0866
17407TIP3    H173636   2.586   1.220   2.593  0.6305  0.2082 -0.1519
17407TIP3    H273637   2.684   1.201   2.707 -0.2949 -0.0004  0.6155
17408TIP3   OH273638   1.703   1.087  12.590  0.0100 -0.0208  0.5337
17408TIP3    H173639   1.765   1.099  12.662 -1.3031  0.9989  1.5312
17408TIP3    H273640   1.758   1.075  12.512  1.4512  0.4534  1.4526
17409TIP3   OH273641   3.986   1.182   3.775 -0.3418 -0.2891  0.2005
17409TIP3    H173642   4.081   1.181   3.782 -0.3391 -0.6055  0.1113
17409TIP3    H273643   3.968   1.190   3.681 -0.3928  1.9246  0.3669
17410TIP3   OH273644   5.301   3.624  13.576 -0.1412 -0.1248 -0.0965
17410TIP3    H173645   5.299   3.682  13.500  0.1343 -0.5905 -0.4532
17410TIP3    H273646   5.264   3.678  13.647 -0.7230  0.1868 -0.6313
17411TIP3   OH273647   6.519   3.378   0.372  0.0101 -0.1268 -0.0354
17411TIP3    H173648   6.565   3.310   0.420 -0.5593  0.2811  1.0972
17411TIP3    H273649   6.542   3.460   0.416 -1.3283  0.1405  0.1954
17412TIP3   OH273650   0.202   2.386  16.401  0.4873  0.0184 -0.0232
17412TIP3    H173651   0.184   2.293  16.387  1.0074  0.0208 -0.7650
17412TIP3    H273652   0.222   2.393  16.494  0.7298 -0.6557 -0.0209
17413TIP3   OH273653   3.579   6.158  13.021  0.1478  0.4059  0.0077
17413TIP3    H173654   3.652   6.209  13.055  0.1048  0.8306 -0.5234
17413TIP3    H273655   3.549   6.106  13.095  0.1000  1.2564  0.5852
17414TIP3   OH273656   1.578   0.418  15.142  0.3681  0.8218 -0.0747
17414TIP3    H173657   1.662   0.395  15.102  0.7147  1.0095  0.5396
17414TIP3    H273658   1.593   0.502  15.184 -0.0454  0.7203  0.2824
17415TIP3   OH273659   6.677   6.682   4.441 -0.6035  0.2756  0.0140
17415TIP3    H173660   6.637   6.606   4.399 -1.6688 -0.9016  3.0090
17415TIP3    H273661   6.607   6.720   4.494  0.4894  2.1504  0.1660
17416TIP3   OH273662   4.441   4.923  13.639  0.0769 -0.0267 -0.6164
17416TIP3    H173663   4.359   4.888  13.604 -0.5386  1.7810 -1.0375
17416TIP3    H273664   4.418   5.009  13.675  1.4073 -0.3242  1.0107
17417TIP3   OH273665   0.912   1.125   2.554 -0.0425  0.2441 -0.3869
17417TIP3    H173666   0.869   1.082   2.480 -0.8712 -0.2043  0.3361
17417TIP3    H273667   0.878   1.214   2.553 -0.0546  0.2371 -0.5460
17418TIP3   OH273668   3.718   4.886   4.786 -0.3730 -0.2490  0.2506
17418TIP3    H173669   3.640   4.941   4.779 -0.4117 -0.2901  0.3501
17418TIP3    H273670   3.703   4.815   4.724 -0.1034  0.1146 -0.2329
17419TIP3   OH273671   0.558   6.591   2.831 -0.3000  0.0782  0.3917
17419TIP3    H173672   0.534   6.507   2.870 -2.8162 -0.0574 -1.3416
17419TIP3    H273673   0.505   6.655   2.878 -1.3182  0.2266 -0.9421
17420TIP3   OH273674   4.362   5.093  11.411 -0.4035 -0.0403  0.4621
17420TIP3    H173675   4.426   5.059  11.474  0.0491 -2.4108 -1.1854
17420TIP3    H273676   4.319   5.015  11.376 -2.4035  1.3710 -0.3649
17421TIP3   OH273677   3.578   5.279  15.817  0.1934  0.8436  0.5846
17421TIP3    H173678   3.621   5.354  15.775  0.4718  0.9490  1.0494
17421TIP3    H273679   3.512   5.318  15.874 -1.2185  0.6440 -0.8710
17422TIP3   OH273680   0.965   3.391   1.762  0.5163 -0.0611  0.0762
17422TIP3    H173681   0.956   3.447   1.685 -0.9556  2.6124  2.1312
17422TIP3    H273682   0.884   3.340   1.764  0.4410  0.0564  0.0046
17423TIP3   OH273683   3.054   2.251   1.793  0.0805 -0.0609  0.1432
17423TIP3    H173684   3.078   2.343   1.787  1.3676 -0.3175  1.2347
17423TIP3    H273685   3.135   2.203   1.776 -0.7568 -1.0130 -1.2737
17424TIP3   OH273686   1.513   6.501  13.706  0.2581 -0.3881  0.2733
17424TIP3    H173687   1.496   6.479  13.615  2.4676  0.0866 -0.2717
17424TIP3    H273688   1.454   6.575  13.724  0.1023 -0.2189 -0.9032
17425TIP3   OH273689   4.626   6.141   5.795 -0.0081 -0.3863  0.0901
17425TIP3    H173690   4.620   6.061   5.847 -0.4893  0.8178  1.8840
17425TIP3    H273691   4.717   6.170   5.807 -0.8728  1.4194  2.5678
17426TIP3   OH273692   2.781   3.945  14.359 -0.2968 -0.1881  0.1046
17426TIP3    H173693   2.764   4.034  14.390  0.0804 -0.3712  0.8430
17426TIP3    H273694   2.858   3.917  14.408  0.3198 -0.4754 -1.0171
17427TIP3   OH273695   1.784   2.787   1.275 -0.2571  0.2581 -0.0516
17427TIP3    H173696   1.739   2.727   1.334  0.7745 -0.2178  0.2606
17427TIP3    H273697   1.752   2.763   1.188 -0.7274  0.0323  0.1836
17428TIP3   OH273698   3.385   4.747  17.103  0.7561 -0.0713 -0.0288
17428TIP3    H173699   3.322   4.677  17.091 -0.3741  1.1324 -1.2870
17428TIP3    H273700   3.464   4.717  17.057  0.7372 -1.1046  0.6219
17429TIP3   OH273701   2.932   0.718  14.626  0.2470 -0.1231  0.4804
17429TIP3    H173702   2.926   0.657  14.552 -0.6986  1.9674 -1.2310
17429TIP3    H273703   2.841   0.738  14.648  0.5325  1.3892  0.3689
17430TIP3   OH273704   3.514   0.723   5.403  0.2336 -0.2680  0.1092
17430TIP3    H173705   3.465   0.773   5.337 -0.0244 -1.6519 -0.7724
17430TIP3    H273706   3.554   0.652   5.353  1.1636 -0.5435  1.2376
17431TIP3   OH273707   5.229   2.594  12.823  0.3138  0.0854  0.0935
17431TIP3    H173708   5.211   2.548  12.905 -1.5316  0.2684 -0.1940
17431TIP3    H273709   5.247   2.685  12.850  1.4570 -0.2371  0.4400
17432TIP3   OH273710   3.960   4.365   0.370 -0.4058 -0.1592  0.4366
17432TIP3    H173711   3.988   4.357   0.461  1.3472  1.3533  0.0750
17432TIP3    H273712   3.961   4.275   0.336 -0.0208 -0.6015  1.6188
17433TIP3   OH273713   0.191   5.413   2.794  0.2269  0.3983 -0.4567
17433TIP3    H173714   0.129   5.441   2.862  1.3318  1.2335  0.2336
17433TIP3    H273715   0.249   5.488   2.783 -1.1120  1.0052 -3.7357
17434TIP3   OH273716   1.732   4.662  16.893  0.3189 -0.2778 -0.1973
17434TIP3    H173717   1.703   4.589  16.839 -1.2956 -0.8013  1.3266
17434TIP3    H273718   1.692   4.647  16.979  0.7447  1.8691  0.4326
17435TIP3   OH273719   1.724   1.983   0.665 -0.1339 -0.0788  0.0281
17435TIP3    H173720   1.698   1.905   0.616  1.0474  0.0177 -0.7730
17435TIP3    H273721   1.764   2.040   0.599 -0.3464  0.9016  0.7434
17436TIP3   OH273722   0.020   0.825  10.755 -0.7195 -0.5116  0.0013
17436TIP3    H173723  -0.016   0.852  10.670  1.0003 -1.0187 -0.9180
17436TIP3    H273724  -0.005   0.734  10.764  0.6242 -0.9800 -0.8266
17437TIP3   OH273725   2.651   5.923   2.420 -0.8509 -0.5868  0.2481
17437TIP3    H173726   2.737   5.892   2.448 -0.6390  0.8861  1.2760
17437TIP3    H273727   2.669   5.980   2.346 -0.9717 -0.4503  0.3245
17438TIP3   OH273728   3.842   2.959   4.473  0.0332 -0.2452 -0.3752
17438TIP3    H173729   3.882   2.907   4.403  0.3071 -0.8476  0.2173
17438TIP3    H273730   3.783   3.019   4.428 -0.2381 -1.0313 -1.0824
17439TIP3   OH273731   2.035   4.086  13.702  0.1193 -0.1631  0.0222
17439TIP3    H173732   2.039   4.179  13.724  1.0935 -0.0884 -0.4632
17439TIP3    H273733   2.004   4.084  13.612 -0.4944 -0.3423  0.2314
17440TIP3   OH273734   5.294   0.421  13.136  0.0500  0.0820  0.5614
17440TIP3    H173735   5.225   0.472  13.092 -1.3262 -0.7450  1.7512
17440TIP3    H273736   5.252   0.338  13.159  1.8049 -0.9384  0.1800
17441TIP3   OH273737   3.823   2.352   3.057  0.9204  0.3642 -0.1248
17441TIP3    H173738   3.861   2.363   2.970  1.6881  0.4860  0.2217
17441TIP3    H273739   3.780   2.436   3.075  1.8412  0.7799  0.1343
17442TIP3   OH273740   4.767   1.625  10.946  0.4431 -0.6209 -0.0847
17442TIP3    H173741   4.685   1.623  10.896 -0.3325 -1.7428  1.1814
17442TIP3    H273742   4.742   1.596  11.033  2.3189 -1.6054  0.1522
17443TIP3   OH273743   6.149   3.946  14.436  0.0066 -0.0447 -0.2281
17443TIP3    H173744   6.161   3.928  14.529 -0.7693 -0.4961 -0.2026
17443TIP3    H273745   6.198   3.876  14.392 -0.2783 -0.2986 -0.1484
17444TIP3   OH273746   1.668   0.607  11.530 -0.0459  0.3920  0.9658
17444TIP3    H173747   1.729   0.538  11.555  0.3921  0.1646 -0.6754
17444TIP3    H273748   1.714   0.689  11.550  0.1447  0.2163  1.2411
17445TIP3   OH273749   3.667   1.231  12.786  0.1369 -0.5211 -0.2955
17445TIP3    H173750   3.685   1.297  12.719  0.9870  0.7122  1.1071
17445TIP3    H273751   3.754   1.209  12.821 -0.3045 -1.0943  0.4479
17446TIP3   OH273752   1.427   2.208   5.930  0.0479  0.3126 -0.0298
17446TIP3    H173753   1.340   2.170   5.933  0.3800 -0.3545  1.7517
17446TIP3    H273754   1.419   2.292   5.976  0.5358 -0.1561  0.9204
17447TIP3   OH273755   5.572   4.117   5.100 -0.7276  0.1065 -0.1747
17447TIP3    H173756   5.605   4.207   5.099  0.0212 -0.1618 -2.0890
17447TIP3    H273757   5.497   4.118   5.041 -0.5540 -0.5817 -0.4152
17448TIP3   OH273758   3.389   3.702   4.219 -0.6827  0.9129  0.4008
17448TIP3    H173759   3.434   3.629   4.260 -0.3040  0.7952 -0.2108
17448TIP3    H273760   3.304   3.706   4.262 -0.2562  0.8507  1.2489
17449TIP3   OH273761   5.242   3.091  15.316  0.0053  0.3427 -0.1354
17449TIP3    H173762   5.317   3.106  15.259 -0.1645 -0.6148 -0.6150
17449TIP3    H273763   5.176   3.153  15.285  1.2516  2.6295  1.5880
17450TIP3   OH273764   5.960   5.528   0.485  0.1128  0.6658 -0.0512
17450TIP3    H173765   6.015   5.572   0.420 -0.2010  2.0102  0.5784
17450TIP3    H273766   5.946   5.594   0.553 -1.9669  0.2168 -0.0220
17451TIP3   OH273767   3.441   4.786  16.254  0.1876 -0.0445  0.0248
17451TIP3    H173768   3.384   4.830  16.191  0.4091 -0.2555 -0.3227
17451TIP3    H273769   3.510   4.850  16.273 -0.6716  0.5615  1.1543
17452TIP3   OH273770   1.014   1.286   6.370 -0.8556 -0.9511  0.0295
17452TIP3    H173771   0.983   1.303   6.459  0.5943  0.6223  0.2661
17452TIP3    H273772   1.044   1.372   6.339 -1.7411 -1.3960 -2.1403
17453TIP3   OH273773   4.003   5.630  16.050 -0.4113  0.2234  0.3652
17453TIP3    H173774   4.083   5.665  16.089  0.7289 -1.5849 -0.2525
17453TIP3    H273775   4.011   5.535  16.062 -2.4667  0.0382  0.2910
17454TIP3   OH273776   1.940   1.356   6.046  0.2831 -0.1004  0.3538
17454TIP3    H173777   1.934   1.348   6.141 -1.9658  1.4574  0.3929
17454TIP3    H273778   1.943   1.451   6.031  1.8110 -0.3595 -1.0851
17455TIP3   OH273779   6.561   5.012  11.694  0.4599 -0.2382 -0.6110
17455TIP3    H173780   6.650   4.999  11.661  0.5520  0.4981 -0.6478
17455TIP3    H273781   6.531   5.092  11.652  0.0979 -0.0097  0.0743
17456TIP3   OH273782   6.506   3.560  11.072 -0.4277 -0.0541  0.0383
17456TIP3    H173783   6.556   3.576  10.992 -0.3164 -2.1818 -0.3468
17456TIP3    H273784   6.486   3.466  11.069 -0.3340 -0.1776  2.5716
17457TIP3   OH273785   4.657   1.244  11.521  0.5115  0.7588 -0.7847
17457TIP3    H173786   4.748   1.214  11.519  0.5466  0.8872 -2.3325
17457TIP3    H273787   4.663   1.337  11.500 -0.0423  0.5747 -1.7825
17458TIP3   OH273788   1.439   5.686  13.610  0.1543  0.0102 -0.7907
17458TIP3    H173789   1.450   5.696  13.704  0.8993 -0.6637 -0.7984
17458TIP3    H273790   1.349   5.656  13.599 -0.1689  0.8158 -0.3492
17459TIP3   OH273791   3.790   1.588   4.590 -0.2425  0.6820  0.4659
17459TIP3    H173792   3.704   1.629   4.586 -0.6029 -0.2180 -1.8710
17459TIP3    H273793   3.774   1.500   4.626 -0.8488 -0.7204 -3.0464
17460TIP3   OH273794   4.229   2.487   3.816 -0.1399 -0.4869  0.6752
17460TIP3    H173795   4.292   2.444   3.758  0.9171  0.7653  0.8684
17460TIP3    H273796   4.148   2.438   3.804  0.7987 -1.9653  0.2207
17461TIP3   OH273797   3.420   0.083  11.813  0.3344  0.3063 -0.6765
17461TIP3    H173798   3.332   0.048  11.800  0.2191  0.4433 -0.2752
17461TIP3    H273799   3.423   0.106  11.906  0.9926 -0.2333 -0.5666
17462TIP3   OH273800   1.961   4.001  14.183 -0.0700  0.2597  0.7316
17462TIP3    H173801   1.935   4.026  14.272  1.3998 -2.9059  2.1286
17462TIP3    H273802   1.947   3.906  14.180 -0.1357  0.3314 -2.4472
17463TIP3   OH273803   3.971   6.454  13.668 -0.0224 -0.1132  0.2403
17463TIP3    H173804   3.961   6.550  13.666 -1.0768 -0.2300 -0.2717
17463TIP3    H273805   4.063   6.441  13.691  0.8818  1.0573 -2.5047
17464TIP3   OH273806   2.045   2.971  14.783  0.0352  0.0144 -0.3325
17464TIP3    H173807   2.078   3.053  14.821 -1.3263  1.8161 -2.9247
17464TIP3    H273808   2.123   2.928  14.747  0.3396  1.7314 -1.7971
17465TIP3   OH273809   3.689   0.158  12.057  0.4701 -0.1652  0.4376
17465TIP3    H173810   3.782   0.140  12.070  0.4585  0.0602  0.8409
17465TIP3    H273811   3.686   0.216  11.982  0.5395 -1.4942 -0.6090
17466TIP3   OH273812   3.682   6.711  15.284  0.5594 -0.1205 -0.2727
17466TIP3    H173813   3.731   6.647  15.335  0.3954 -0.8270 -1.0046
17466TIP3    H273814   3.737   6.790  15.286 -0.7513  0.8410  3.4544
17467TIP3   OH273815   0.001   5.932   5.380  0.6691  0.2113  0.0041
17467TIP3    H173816  -0.092   5.933   5.403  0.9118  1.5422  0.9737
17467TIP3    H273817   0.044   5.979   5.451  1.9654  0.5653 -0.9932
17468TIP3   OH273818   1.788   5.233   2.053 -0.3727  0.2542 -0.2846
17468TIP3    H173819   1.751   5.320   2.037 -0.6709 -0.1023 -1.5698
17468TIP3    H273820   1.798   5.194   1.966  1.5263 -0.2855  0.1430
17469TIP3   OH273821   3.462   1.601  12.905 -0.3645 -0.3553 -0.3142
17469TIP3    H173822   3.512   1.586  12.826  0.2826 -1.1795  0.2464
17469TIP3    H273823   3.399   1.669  12.881 -0.1830 -0.6075 -1.5307
17470TIP3   OH273824   5.506   0.356  14.692  0.2346 -0.0899 -0.6524
17470TIP3    H173825   5.513   0.268  14.654 -0.1821 -0.0846 -0.7394
17470TIP3    H273826   5.591   0.370  14.735  0.2626 -0.5754 -0.5449
17471TIP3   OH273827   6.324   3.716  14.351 -0.4674 -0.1564  0.2699
17471TIP3    H173828   6.418   3.702  14.344 -0.1679  0.4197  2.8819
17471TIP3    H273829   6.286   3.628  14.351  0.0703 -0.3924 -0.6213
17472TIP3   OH273830   1.341   4.285  12.281  0.2618 -0.2972 -0.2489
17472TIP3    H173831   1.311   4.372  12.310  0.4150 -0.8637  1.6474
17472TIP3    H273832   1.436   4.287  12.294  0.2853 -0.6925 -0.3567
17473TIP3   OH273833   1.642   1.636  10.726 -0.4289 -0.1809  0.3102
17473TIP3    H173834   1.722   1.606  10.684 -0.0274 -2.8693  2.7990
17473TIP3    H273835   1.575   1.629  10.659  1.0787  0.4413 -1.2845
17474TIP3   OH273836   1.179   4.797   3.548 -0.2459 -0.4973  0.6892
17474TIP3    H173837   1.130   4.849   3.484  0.5057  0.0795  0.5705
17474TIP3    H273838   1.158   4.838   3.632  2.1620  1.4923  0.3693
17475TIP3   OH273839   1.476   1.864   4.813 -1.0195  0.1596 -0.2428
17475TIP3    H173840   1.431   1.880   4.895  0.0494  2.3464 -0.0637
17475TIP3    H273841   1.433   1.921   4.749  0.4984  1.2095 -0.3786
17476TIP3   OH273842   0.484   5.924   1.652 -0.3362  0.2002  0.4698
17476TIP3    H173843   0.463   5.969   1.734  0.4123  0.8615  0.3130
17476TIP3    H273844   0.486   5.831   1.675  0.9893  0.4557  1.4756
17477TIP3   OH273845   2.968   4.596  14.709 -1.2370  0.0760 -0.2846
17477TIP3    H173846   2.881   4.635  14.708 -2.0315 -1.5005  1.9664
17477TIP3    H273847   3.023   4.660  14.754 -1.9256 -0.1819  0.9529
17478TIP3   OH273848   2.590   4.742  13.571  0.3469  0.1004  0.2763
17478TIP3    H173849   2.599   4.804  13.498 -1.1491 -0.6686 -0.5766
17478TIP3    H273850   2.558   4.662  13.531 -0.0085 -0.4961  1.7213
17479TIP3   OH273851   0.597   5.261   1.844 -0.2484  0.1148  0.5868
17479TIP3    H173852   0.658   5.315   1.795 -0.9469  1.4394  1.1497
17479TIP3    H273853   0.599   5.296   1.933 -0.4699 -0.9896  1.0355
17480TIP3   OH273854   2.765   0.071   3.047  0.2049  0.0883  0.0469
17480TIP3    H173855   2.834   0.110   2.993 -0.1442 -0.0476 -0.5042
17480TIP3    H273856   2.687   0.122   3.026 -0.2326 -0.8289 -0.6005
17481TIP3   OH273857   0.569   5.837   0.200  0.5670  0.5672  0.1497
17481TIP3    H173858   0.656   5.846   0.162 -0.1945  0.2663 -1.7016
17481TIP3    H273859   0.535   5.755   0.163 -1.2897  1.7239 -0.7629
17482TIP3   OH273860   3.858   4.466  13.402 -0.8632  0.0289 -0.1656
17482TIP3    H173861   3.904   4.454  13.319  0.4300 -0.3354  0.5883
17482TIP3    H273862   3.830   4.378  13.427  0.8376 -0.2369  0.9407
17483TIP3   OH273863   0.829   2.051   3.280  0.0983 -0.1725 -0.8580
17483TIP3    H173864   0.892   2.121   3.298  0.8518 -1.5377  2.1443
17483TIP3    H273865   0.874   1.993   3.219  1.0538 -0.1677 -0.1726
17484TIP3   OH273866   5.017   2.655  15.655  0.5584 -0.4777  0.5085
17484TIP3    H173867   4.922   2.666  15.656  0.3856 -1.8284 -0.2734
17484TIP3    H273868   5.031   2.566  15.625  2.0533 -0.6427  1.6044
17485TIP3   OH273869   3.927   1.745   2.165 -0.1507  0.1491  0.2778
17485TIP3    H173870   3.889   1.776   2.083  0.1121 -1.0497 -0.3230
17485TIP3    H273871   3.982   1.670   2.139  1.8170  1.2137  1.2404
17486TIP3   OH273872   6.470   2.458  16.861 -0.0759  0.6451 -0.3052
17486TIP3    H173873   6.547   2.498  16.819  0.1148  0.0479 -0.5357
17486TIP3    H273874   6.478   2.365  16.840  0.6897  0.1380  2.1181
17487TIP3   OH273875   2.946   3.442   6.584  0.2131 -0.2612 -0.1046
17487TIP3    H173876   3.037   3.457   6.559 -0.6367  1.4095 -2.2889
17487TIP3    H273877   2.905   3.528   6.580 -1.4822 -1.0031  0.8226
17488TIP3   OH273878   0.641   1.774   2.493  0.4372 -0.1214 -0.6794
17488TIP3    H173879   0.620   1.804   2.404 -0.8619 -0.3037 -0.4457
17488TIP3    H273880   0.626   1.680   2.490  2.0608 -0.3872 -0.7239
17489TIP3   OH273881   5.758   0.776  12.588  0.5448  0.2894 -0.2679
17489TIP3    H173882   5.786   0.811  12.672  1.6378 -0.1288 -0.4373
17489TIP3    H273883   5.663   0.772  12.593  0.5297  1.4510  0.4724
17490TIP3   OH273884   5.382   2.225   0.584 -0.0370 -0.3576 -0.2519
17490TIP3    H173885   5.291   2.199   0.601 -0.0442  1.1598  2.2927
17490TIP3    H273886   5.413   2.162   0.519 -2.9382 -0.8213 -1.2656
17491TIP3   OH273887   0.585   4.436  15.469 -0.2228  0.2057 -0.0968
17491TIP3    H173888   0.670   4.465  15.502  0.3422 -1.4321 -0.0863
17491TIP3    H273889   0.564   4.359  15.522 -0.0141 -1.5837 -2.5441
17492TIP3   OH273890   3.776   3.217   0.506  0.0658 -0.3591 -0.1719
17492TIP3    H173891   3.838   3.196   0.436 -0.7316 -1.2674 -0.6194
17492TIP3    H273892   3.825   3.203   0.587  0.4365 -1.1100 -0.5233
17493TIP3   OH273893   5.900   3.540   3.441  0.1997 -0.2413 -0.3855
17493TIP3    H173894   5.852   3.481   3.383  0.0382 -1.3312  0.8519
17493TIP3    H273895   5.911   3.491   3.522  4.4464 -0.4668 -1.0118
17494TIP3   OH273896   4.377   5.907   0.100 -0.0295  0.6641 -0.0247
17494TIP3    H173897   4.452   5.967   0.098 -0.5559  1.4343  2.4961
17494TIP3    H273898   4.408   5.831   0.148 -1.2519  1.5873  2.3156
17495TIP3   OH273899   3.387   3.775  12.844 -0.7270 -0.0164 -0.0945
17495TIP3    H173900   3.302   3.805  12.875  0.6892  3.5059  0.6815
17495TIP3    H273901   3.383   3.787  12.749 -0.8903  0.8062  0.0074
17496TIP3   OH273902   0.116   0.189   5.746  0.4796 -0.2058 -0.3437
17496TIP3    H173903   0.120   0.147   5.660 -0.6263  0.0595 -0.5303
17496TIP3    H273904   0.066   0.270   5.731  0.8172  0.1506  0.4230
17497TIP3   OH273905   2.425   1.629   1.328  0.0328  0.4004 -0.1399
17497TIP3    H173906   2.459   1.541   1.346 -0.0430  0.3103 -0.4346
17497TIP3    H273907   2.381   1.620   1.243 -1.6497  0.2583  0.7251
17498TIP3   OH273908   2.011   0.908  16.786  0.1005  0.0792  0.2627
17498TIP3    H173909   2.058   0.826  16.774 -0.3260 -0.0121 -0.7830
17498TIP3    H273910   1.922   0.881  16.808  0.3587  0.2573  1.5646
17499TIP3   OH273911   5.473   5.075   0.666  0.3396  0.5404  0.7702
17499TIP3    H173912   5.514   5.125   0.595  0.2225 -1.0280 -0.4339
17499TIP3    H273913   5.481   5.131   0.743  0.2286  2.3957 -0.5452
17500TIP3   OH273914   5.891   4.667   1.742 -0.5048 -0.2424 -0.1880
17500TIP3    H173915   5.986   4.664   1.732 -0.5045 -0.1831 -0.2001
17500TIP3    H273916   5.875   4.629   1.829 -0.4927 -0.5350 -0.3106
17501TIP3   OH273917   1.165   4.921  15.906  0.0355  0.1165 -0.3076
17501TIP3    H173918   1.104   4.940  15.977  1.0827 -0.3069  0.7201
17501TIP3    H273919   1.171   5.003  15.857  0.9071  1.0774  1.3403
17502TIP3   OH273920   3.471   1.426   2.244  0.1014  0.3356 -0.8795
17502TIP3    H173921   3.536   1.440   2.175 -0.7263 -0.0812 -1.7609
17502TIP3    H273922   3.522   1.401   2.321  1.0698  1.2390 -1.2136
17503TIP3   OH273923   4.292   5.162   5.866 -0.3797  0.4855  0.6516
17503TIP3    H173924   4.335   5.179   5.949  1.0455  1.8363 -0.3263
17503TIP3    H273925   4.200   5.152   5.888  0.4253 -2.6615  2.8068
17504TIP3   OH273926   1.688   6.645   3.696 -0.5302 -1.2737  0.2605
17504TIP3    H173927   1.606   6.693   3.685 -0.1596 -0.6476  0.2056
17504TIP3    H273928   1.721   6.633   3.607  0.5763  0.4770  0.4225
17505TIP3   OH273929   3.985   5.213   1.833  0.1483  0.2157  0.3726
17505TIP3    H173930   3.962   5.123   1.809 -0.2376  0.6164 -0.7980
17505TIP3    H273931   4.070   5.228   1.792  0.3343  0.2910  0.7905
17506TIP3   OH273932   0.300   2.751  15.183 -0.4569 -0.8515 -0.0250
17506TIP3    H173933   0.219   2.755  15.134 -0.7184 -0.4847  0.4369
17506TIP3    H273934   0.274   2.727  15.272 -0.0691 -0.6431  0.1481
17507TIP3   OH273935   4.369   5.325   6.656 -0.2371  0.1674  0.8765
17507TIP3    H173936   4.294   5.266   6.659 -0.4964  0.3188 -1.8193
17507TIP3    H273937   4.330   5.412   6.666 -0.6078  0.3437 -1.7675
17508TIP3   OH273938   1.289   3.439   2.605  0.5826 -0.2766 -0.0201
17508TIP3    H173939   1.265   3.417   2.515  3.1867 -1.8279 -0.3856
17508TIP3    H273940   1.220   3.498   2.635 -1.1025 -0.9138 -2.5265
17509TIP3   OH273941   4.456   6.262  14.026  0.4951 -0.2693 -0.0544
17509TIP3    H173942   4.535   6.248  14.079 -0.0986  0.7447  1.1015
17509TIP3    H273943   4.490   6.284  13.939  1.4755 -0.6067  0.2313
17510TIP3   OH273944   6.354   4.790   3.361  0.1469  0.6035 -0.1123
17510TIP3    H173945   6.287   4.853   3.336  0.0081  0.1777 -0.8054
17510TIP3    H273946   6.406   4.777   3.282  0.6967  0.4960  0.2642
17511TIP3   OH273947   1.745   2.376   4.272 -0.4609 -0.5474  0.0354
17511TIP3    H173948   1.808   2.380   4.344 -0.4434 -1.0163  0.0470
17511TIP3    H273949   1.662   2.405   4.310 -0.3348 -0.2767  0.1088
17512TIP3   OH273950   2.762   4.817  10.450  0.5491 -0.2942 -0.2278
17512TIP3    H173951   2.830   4.848  10.389 -0.5838  0.7810 -0.9676
17512TIP3    H273952   2.711   4.895  10.469  0.6884 -0.7003  1.8609
17513TIP3   OH273953   4.046   5.394  11.459  0.5230 -0.0133  0.1274
17513TIP3    H173954   4.129   5.405  11.412 -0.2849  0.6124 -1.1548
17513TIP3    H273955   4.058   5.312  11.508  2.4892  0.8773  1.2404
17514TIP3   OH273956   1.214   3.363   3.422  0.2062  0.1604 -0.0924
17514TIP3    H173957   1.174   3.424   3.360  1.5299 -1.6949 -2.9195
17514TIP3    H273958   1.168   3.280   3.407  1.3303 -0.5989  0.5684
17515TIP3   OH273959   0.582   6.386  13.963 -1.1244  0.1172  0.2354
17515TIP3    H173960   0.591   6.424  14.051 -0.9224  0.9394 -0.1358
17515TIP3    H273961   0.520   6.314  13.974  0.2897 -0.9693  1.4125
17516TIP3   OH273962   4.851   5.285   1.109  0.3861  0.2383 -0.0540
17516TIP3    H173963   4.820   5.354   1.168 -0.2476  1.1184 -1.3857
17516TIP3    H273964   4.793   5.291   1.033  1.2784 -0.7865 -0.8306
17517TIP3   OH273965   6.638   1.855   4.731  0.2961 -0.3551 -0.4389
17517TIP3    H173966   6.722   1.831   4.693  1.1042  0.7881  0.5704
17517TIP3    H273967   6.609   1.931   4.680  0.0555 -0.5145 -0.5401
17518TIP3   OH273968   3.976   4.900  10.924 -0.3124  0.2717 -0.0038
17518TIP3    H173969   3.936   4.817  10.950  0.3909  0.3587  1.3789
17518TIP3    H273970   4.065   4.895  10.957 -0.4764  1.8782  0.7111
17519TIP3   OH273971   0.939   6.697   0.904 -0.2325 -0.2880  0.5955
17519TIP3    H173972   0.975   6.610   0.922 -1.0997 -0.6674  0.5287
17519TIP3    H273973   1.013   6.748   0.871 -0.1553 -1.6266 -1.4143
17520TIP3   OH273974   4.781   3.309  11.020  0.2702  0.2772 -0.0763
17520TIP3    H173975   4.726   3.375  11.064 -0.4802  0.2843 -1.0200
17520TIP3    H273976   4.759   3.227  11.064  0.0205  0.3889  0.0108
17521TIP3   OH273977   5.806   4.295   1.485 -0.3364 -0.3350 -0.2712
17521TIP3    H173978   5.815   4.207   1.448 -2.3003 -0.5978 -0.1982
17521TIP3    H273979   5.881   4.343   1.451  0.2608 -1.7843 -1.0665
17522TIP3   OH273980   2.817   0.901  15.772 -0.3195 -0.4220 -0.0162
17522TIP3    H173981   2.789   0.993  15.777  2.4183  0.4889 -0.7093
17522TIP3    H273982   2.839   0.888  15.680  1.6992 -1.0415  0.5428
17523TIP3   OH273983   6.147   4.533   1.955 -0.1419 -0.1249  0.3056
17523TIP3    H173984   6.200   4.602   1.995  0.1447  0.7706 -1.5773
17523TIP3    H273985   6.183   4.451   1.990  0.1952  0.6223  1.7373
17524TIP3   OH273986   4.488   1.661  16.580 -0.9165 -0.3913  0.4732
17524TIP3    H173987   4.415   1.612  16.619 -0.5962 -1.3907 -0.1746
17524TIP3    H273988   4.527   1.707  16.654  0.0853 -2.7886  1.4797
17525TIP3   OH273989   5.108   3.786   0.720 -0.1020  0.0326  0.0990
17525TIP3    H173990   5.030   3.756   0.766  0.8757 -0.9141  1.1828
17525TIP3    H273991   5.179   3.777   0.784  0.7890  1.5182 -0.6447
17526TIP3   OH273992   6.342   2.093  16.429 -0.4093  0.8853  0.3928
17526TIP3    H173993   6.302   2.023  16.481  3.9693 -2.1513 -0.0401
17526TIP3    H273994   6.386   2.047  16.358  0.7680  4.3082 -1.1717
17527TIP3   OH273995   1.012   4.589  14.806 -0.2693  0.0101  0.3394
17527TIP3    H173996   1.002   4.501  14.769 -1.3691  0.3415 -0.1706
17527TIP3    H273997   0.933   4.602  14.858  0.3896  0.2868  1.2798
17528TIP3   OH273998   0.246   6.395   1.113  0.3635 -0.3936 -0.0535
17528TIP3    H173999   0.256   6.344   1.033  2.5580  0.1283 -0.1393
17528TIP3    H274000   0.153   6.388   1.135  0.1489 -2.2586 -1.4929
17529TIP3   OH274001   3.466   1.366   5.983 -0.9680  0.0722  0.3940
17529TIP3    H174002   3.539   1.309   6.007 -0.8997 -0.3845 -0.8349
17529TIP3    H274003   3.446   1.415   6.062 -0.1237 -0.6808  1.0789
17530TIP3   OH274004   4.279   5.685   1.266 -0.2453  0.4344 -0.3961
17530TIP3    H174005   4.337   5.663   1.339  0.2099  0.0289 -0.8784
17530TIP3    H274006   4.193   5.695   1.307 -0.2382 -1.0757  0.0041
17531TIP3   OH274007   2.218   0.524  14.968 -0.1924  0.3882  0.2194
17531TIP3    H174008   2.230   0.606  15.017 -0.7697 -0.3125  1.5314
17531TIP3    H274009   2.154   0.547  14.900 -0.8782  0.8487  1.0092
17532TIP3   OH274010   5.829   0.587  15.387 -0.2697  0.4610 -0.0354
17532TIP3    H174011   5.867   0.670  15.359 -0.5749  0.5778 -0.1067
17532TIP3    H274012   5.891   0.521  15.357  0.8048  0.7616  1.4442
17533TIP3   OH274013   1.640   1.992   2.325 -0.0963  0.6797  0.7681
17533TIP3    H174014   1.634   2.037   2.241  1.9299 -2.5065 -1.1907
17533TIP3    H274015   1.723   2.023   2.363  0.3994 -0.0149  0.2601
17534TIP3   OH274016   2.173   2.433   6.054 -0.8501  0.4754 -0.8931
17534TIP3    H174017   2.230   2.356   6.063 -1.4905  0.0851 -0.0717
17534TIP3    H274018   2.229   2.507   6.079 -0.1058  0.3371 -2.0952
17535TIP3   OH274019   6.084   0.486   5.219 -0.4476 -0.4010  0.2124
17535TIP3    H174020   6.024   0.471   5.292  1.3186 -2.7240  1.2485
17535TIP3    H274021   6.138   0.560   5.248 -1.3117  0.2211  0.2433
17536TIP3   OH274022   5.939   5.807  15.678 -0.1732  0.4334 -0.0466
17536TIP3    H174023   5.898   5.823  15.762 -0.9060  1.6521 -0.6286
17536TIP3    H274024   5.968   5.893  15.648  2.1277 -0.2798 -0.0025
17537TIP3   OH274025   3.238   2.230  14.907 -0.2111 -0.0292  0.3046
17537TIP3    H174026   3.329   2.205  14.893 -0.8168 -1.9214 -0.4161
17537TIP3    H274027   3.223   2.215  15.001  0.3179  0.6723  0.5080
17538TIP3   OH274028   1.684   6.069   5.107  0.3666  0.3569 -0.2071
17538TIP3    H174029   1.625   6.108   5.042  1.5752  0.7761 -1.0893
17538TIP3    H274030   1.630   6.004   5.152 -1.4750  2.4884  0.7668
17539TIP3   OH274031   4.802   0.500  11.275  0.2319  0.3078  0.0540
17539TIP3    H174032   4.727   0.444  11.256 -0.5948  0.6061  2.2629
17539TIP3    H274033   4.807   0.559  11.200 -1.1734 -0.3247 -0.5568
17540TIP3   OH274034   5.205   2.402  16.120 -0.3573 -0.8242  0.5326
17540TIP3    H174035   5.270   2.332  16.119 -0.3897 -0.8509  0.2495
17540TIP3    H274036   5.191   2.421  16.213  0.2434 -0.6423  0.5900
17541TIP3   OH274037   2.022   3.022  12.569 -0.1835 -0.0465 -0.1723
17541TIP3    H174038   1.986   3.019  12.480 -0.4873  0.6499 -0.0718
17541TIP3    H274039   1.967   2.964  12.620 -0.2776 -0.1047 -0.3389
17542TIP3   OH274040   3.165   0.348  16.151 -0.6330 -0.1921  0.1981
17542TIP3    H174041   3.083   0.355  16.200  0.0669  0.7560  1.2803
17542TIP3    H274042   3.146   0.390  16.067 -1.1282  0.4264  0.6126
17543TIP3   OH274043   1.504   6.511   2.200  0.1089  0.2470  0.2872
17543TIP3    H174044   1.506   6.593   2.250  1.5019  0.4250 -0.0332
17543TIP3    H274045   1.413   6.502   2.171 -0.4922  0.6377  2.0221
17544TIP3   OH274046   2.136   5.758   1.961  0.3720 -0.2784  0.5185
17544TIP3    H174047   2.112   5.666   1.970 -1.8461  0.3417  1.3040
17544TIP3    H274048   2.087   5.788   1.885  0.2487  0.5197  0.9060
17545TIP3   OH274049   3.012   0.281  15.052 -0.6109 -0.5887  0.4337
17545TIP3    H174050   3.010   0.225  15.130 -0.9713 -2.2579 -0.7420
17545TIP3    H274051   3.103   0.307  15.045 -0.9322  1.2959  2.5803
17546TIP3   OH274052   6.447   0.201  15.978 -0.5380  0.1233  0.5045
17546TIP3    H174053   6.518   0.154  15.935 -1.4819  0.0827 -1.0633
17546TIP3    H274054   6.368   0.156  15.949 -1.2711  0.8482  1.3478
17547TIP3   OH274055   1.910   6.593  16.583  0.0643  0.0821 -0.6433
17547TIP3    H174056   1.961   6.525  16.539 -1.1358 -0.3373 -1.4288
17547TIP3    H274057   1.821   6.557  16.587 -0.0923  0.6155  1.0755
17548TIP3   OH274058   4.321   2.078   0.209  0.1447  0.1957 -0.1207
17548TIP3    H174059   4.302   2.155   0.155 -0.4655  1.0075  1.2267
17548TIP3    H274060   4.255   2.014   0.184  0.8222  0.0084 -1.4465
17549TIP3   OH274061   3.753   0.229   4.059  0.3035 -0.3621 -0.4671
17549TIP3    H174062   3.689   0.284   4.014  0.4074 -0.6256 -0.9397
17549TIP3    H274063   3.700   0.164   4.106  0.0238  2.0580  2.6905
17550TIP3   OH274064   3.221   0.832  16.075 -0.1308 -0.4537  0.6273
17550TIP3    H174065   3.293   0.820  16.013  0.8704  0.4190  1.6024
17550TIP3    H274066   3.143   0.805  16.026  0.5747  0.6303 -1.1562
17551TIP3   OH274067   3.849   4.129   4.539  0.2898 -0.1550 -0.2769
17551TIP3    H174068   3.809   4.086   4.463 -1.4863 -0.3559  0.7502
17551TIP3    H274069   3.775   4.149   4.597  1.4791  1.1887  0.8113
17552TIP3   OH274070   3.451   3.839   2.677 -0.3015  0.5903 -0.3680
17552TIP3    H174071   3.357   3.852   2.667 -0.2777  1.7039  0.6329
17552TIP3    H274072   3.474   3.895   2.751  0.9468 -0.5848  0.1364
17553TIP3   OH274073   4.669   3.995   1.312  0.2771  0.4760  0.3859
17553TIP3    H174074   4.698   3.948   1.234 -0.2097  2.0256 -0.7665
17553TIP3    H274075   4.648   3.926   1.375 -1.7707 -0.9381 -1.7165
17554TIP3   OH274076   4.489   5.733   5.569  0.4778 -0.6199 -0.0691
17554TIP3    H174077   4.516   5.671   5.502  1.9658 -0.5697  0.4727
17554TIP3    H274078   4.569   5.755   5.616 -0.1780  1.0538  0.3068
17555TIP3   OH274079   6.090   6.527  17.041 -0.7505 -0.0839  0.1850
17555TIP3    H174080   6.153   6.504  17.110 -0.3875 -0.3537 -0.2361
17555TIP3    H274081   6.129   6.494  16.961 -1.0360  0.5098 -0.1939
17556TIP3   OH274082   0.760   4.134   1.138  0.3820 -0.3820  0.4054
17556TIP3    H174083   0.823   4.062   1.143  0.8431  0.0255  0.5133
17556TIP3    H274084   0.721   4.136   1.225  0.2243 -0.6282  0.3424
17557TIP3   OH274085   0.101   6.604  13.058  0.1753 -0.1308  0.2639
17557TIP3    H174086   0.076   6.629  13.147  0.4162  1.1020 -0.0011
17557TIP3    H274087   0.037   6.539  13.032  0.2794 -0.7201  1.4568
17558TIP3   OH274088   3.401   4.344   4.715  0.2146  0.2342 -0.0368
17558TIP3    H174089   3.474   4.297   4.674  0.7469 -1.3497  2.6114
17558TIP3    H274090   3.431   4.434   4.722  1.9308 -0.3833  0.9401
17559TIP3   OH274091   3.418   1.019   5.677 -0.1310  0.0439 -0.3321
17559TIP3    H174092   3.403   0.996   5.769  0.8970 -1.7027 -0.5751
17559TIP3    H274093   3.367   0.954   5.628  0.1428  0.3331 -1.0091
17560TIP3   OH274094   3.485   6.449   4.050  0.3495  0.3259 -0.1630
17560TIP3    H174095   3.574   6.483   4.056 -0.2553  1.6838  1.5069
17560TIP3    H274096   3.431   6.513   4.096 -1.8294  0.6340 -2.9611
17561TIP3   OH274097   0.322   3.864   6.042 -0.2227 -0.2987  0.2188
17561TIP3    H174098   0.361   3.945   6.075  0.7739 -0.1453 -1.2809
17561TIP3    H274099   0.227   3.877   6.051 -0.1552  1.8827 -1.9539
17562TIP3   OH274100   1.202   4.002  11.015 -0.3211 -0.1889 -0.0110
17562TIP3    H174101   1.113   3.976  10.989 -0.1210  1.0062 -2.0314
17562TIP3    H274102   1.248   3.919  11.027 -1.6319 -0.8190  0.7430
17563TIP3   OH274103   5.881   5.575   4.250  0.6266  0.1909 -0.6310
17563TIP3    H174104   5.898   5.513   4.179  0.5444  1.3593 -1.6797
17563TIP3    H274105   5.814   5.634   4.216  0.4019  0.6207  0.5061
17564TIP3   OH274106   5.154   0.780  12.775 -0.3135 -0.3006 -0.5594
17564TIP3    H174107   5.119   0.700  12.815 -1.7992  1.2382  1.2901
17564TIP3    H274108   5.227   0.806  12.832 -1.3315  0.9439  0.2011
17565TIP3   OH274109   2.260   2.822   2.756  0.0372  0.0930  0.1320
17565TIP3    H174110   2.173   2.837   2.719  0.9739  1.4936 -1.5561
17565TIP3    H274111   2.273   2.896   2.816 -0.5225 -0.9287  1.5588
17566TIP3   OH274112   5.189   0.329  12.651  0.2493  0.1873 -0.1801
17566TIP3    H174113   5.188   0.233  12.651 -1.0792  0.1847 -0.9845
17566TIP3    H274114   5.183   0.352  12.558  0.8879  1.0598 -0.0087
17567TIP3   OH274115   2.269   4.297   1.228 -0.5528  0.0321  0.1089
17567TIP3    H174116   2.189   4.341   1.199  0.9070  1.4779 -1.7770
17567TIP3    H274117   2.306   4.354   1.294 -0.7822 -0.3840  0.6041
17568TIP3   OH274118   5.961   2.970   5.114 -0.7194 -0.7815  0.2062
17568TIP3    H174119   5.990   3.025   5.041 -0.3775 -0.6498  0.4464
17568TIP3    H274120   5.881   3.012   5.145 -0.2158 -0.1672  0.6794
17569TIP3   OH274121   5.015   2.655   3.928  0.2765  0.0962 -0.3636
17569TIP3    H174122   4.942   2.706   3.894 -1.2553 -2.0734 -0.4164
17569TIP3    H274123   4.988   2.630   4.017  0.6817 -1.2676 -0.6209
17570TIP3   OH274124   2.222   5.545   3.114 -0.2530 -0.2306  0.5528
17570TIP3    H174125   2.305   5.511   3.081  0.2296  1.8966 -0.5550
17570TIP3    H274126   2.155   5.507   3.057  0.1729 -0.1367 -0.0115
17571TIP3   OH274127   3.917   6.406   5.973  0.7100  0.4137  0.1424
17571TIP3    H174128   3.928   6.320   6.014  3.5563 -0.4057 -2.0862
17571TIP3    H274129   3.849   6.449   6.024  0.9230 -2.2385  2.8224
17572TIP3   OH274130   3.104   6.560   5.011 -0.1433  0.1816  0.1342
17572TIP3    H174131   3.037   6.503   5.047 -0.3072  1.3368  1.7104
17572TIP3    H274132   3.061   6.604   4.937 -0.8423  0.2273  0.5594
17573TIP3   OH274133   2.980   6.491  13.651  0.1550  0.3772  0.0712
17573TIP3    H174134   3.024   6.575  13.639 -0.2367  0.6360  0.3995
17573TIP3    H274135   2.943   6.497  13.739  2.2355 -1.1257  1.0824
17574TIP3   OH274136   2.668   6.108   3.028  0.3458 -0.2792  0.7059
17574TIP3    H174137   2.695   6.087   2.938  0.6155  0.9262  0.4870
17574TIP3    H274138   2.576   6.132   3.020 -0.5022 -3.1771  1.2588
17575TIP3   OH274139   1.557   5.685  11.077  0.7347 -0.3292 -0.0716
17575TIP3    H174140   1.567   5.706  10.984 -1.3933  2.1283  0.2079
17575TIP3    H274141   1.466   5.705  11.097  1.8355  1.8044  3.2092
17576TIP3   OH274142   1.437   6.058  15.250 -0.0871  0.2541 -0.4626
17576TIP3    H174143   1.467   6.046  15.340 -1.1864 -2.9897 -0.4654
17576TIP3    H274144   1.438   5.970  15.212 -0.9877  1.3563 -3.1950
17577TIP3   OH274145   0.650   2.642  16.477 -0.0023 -0.9813 -0.1015
17577TIP3    H174146   0.715   2.712  16.466  0.4731 -1.1962  1.3400
17577TIP3    H274147   0.693   2.576  16.530 -1.3878 -1.1276  0.8769
17578TIP3   OH274148   1.844   3.878  15.386 -0.2646 -0.3733  0.2513
17578TIP3    H174149   1.807   3.958  15.347 -0.1800 -0.4227  0.0719
17578TIP3    H274150   1.824   3.809  15.323 -1.1342 -0.6568  0.8242
17579TIP3   OH274151   0.979   0.050   0.132 -0.3069 -0.0492  0.0953
17579TIP3    H174152   1.015   0.138   0.124  1.2961 -0.8307 -1.7321
17579TIP3    H274153   1.025   0.012   0.207  0.4899 -0.0093 -0.3674
17580TIP3   OH274154   2.741   4.731   3.376  0.0976  0.1186  0.2257
17580TIP3    H174155   2.703   4.652   3.337  1.1486 -0.4776  0.3887
17580TIP3    H274156   2.779   4.700   3.459 -0.3710  0.9936  0.7743
17581TIP3   OH274157   3.621   1.756   1.309 -0.1084  0.2842 -0.2812
17581TIP3    H174158   3.646   1.807   1.386  0.0905  0.0882 -0.2154
17581TIP3    H274159   3.528   1.773   1.298 -0.6514 -1.4627  1.3303
17582TIP3   OH274160   3.703   4.082   2.239 -0.2483  0.2644 -0.5997
17582TIP3    H174161   3.632   4.115   2.184 -0.5470 -1.3817 -1.2274
17582TIP3    H274162   3.661   4.019   2.297  0.5954 -0.2746 -0.5641
17583TIP3   OH274163   1.067   4.196   1.594  0.1945 -0.4952 -0.5783
17583TIP3    H174164   1.084   4.281   1.553 -1.1515 -0.1779 -0.4865
17583TIP3    H274165   1.144   4.144   1.571  0.0377  0.0593 -2.5059
17584TIP3   OH274166   4.702   4.648   5.528  0.3209 -1.0562 -0.1476
17584TIP3    H174167   4.677   4.648   5.620  1.5360 -1.7173  0.1846
17584TIP3    H274168   4.681   4.559   5.498 -2.7044 -0.0209 -1.2423
17585TIP3   OH274169   5.264   4.719   3.714  0.0851 -0.1354  0.4149
17585TIP3    H174170   5.191   4.685   3.766  0.7097 -0.3812  1.1435
17585TIP3    H274171   5.282   4.805   3.751 -1.3100  0.9180 -1.2443
17586TIP3   OH274172   1.642   5.201   6.011  0.6058 -0.2970 -0.4388
17586TIP3    H174173   1.691   5.119   6.001 -0.2941 -1.0944  1.4851
17586TIP3    H274174   1.564   5.177   6.061 -0.7721  1.3337 -1.7542
17587TIP3   OH274175   2.375   1.303   0.588 -0.4750  0.0495 -0.0923
17587TIP3    H174176   2.362   1.352   0.506  1.3242  1.5526  0.4677
17587TIP3    H274177   2.424   1.225   0.561  0.5823  0.7965 -0.4225
17588TIP3   OH274178   2.647   5.883   0.787  0.2942  0.7376 -0.1187
17588TIP3    H174179   2.582   5.937   0.832 -1.5329 -0.9577 -0.6062
17588TIP3    H274180   2.673   5.818   0.853 -0.1635  0.0770 -0.5803
17589TIP3   OH274181   4.689   5.873   1.032  0.5913 -0.0441  0.0404
17589TIP3    H174182   4.714   5.803   1.093 -1.3586  0.8102  1.8644
17589TIP3    H274183   4.600   5.851   1.006 -0.1113  1.8486  0.7761
17590TIP3   OH274184   3.644   0.845   5.612 -0.0278  0.0782  0.2553
17590TIP3    H174185   3.602   0.798   5.539 -0.1227  1.1799 -0.4042
17590TIP3    H274186   3.579   0.908   5.641  0.2726  0.1163  0.8518
17591TIP3   OH274187   1.698   3.769   2.458  0.0383 -0.4448  0.1077
17591TIP3    H174188   1.779   3.772   2.508  0.2752  2.9657 -0.3451
17591TIP3    H274189   1.631   3.801   2.519 -0.3842 -0.1948 -0.4792
17592TIP3   OH274190   1.033   1.132  15.498  0.4597  0.2815  0.2298
17592TIP3    H174191   1.065   1.222  15.507 -1.2532  0.9159  0.1967
17592TIP3    H274192   0.973   1.120  15.572 -0.2184 -0.4417 -0.4297
17593TIP3   OH274193   1.292   3.275   0.588 -0.0889 -0.0087 -0.1692
17593TIP3    H174194   1.359   3.246   0.526  1.2034 -0.7683  1.5448
17593TIP3    H274195   1.250   3.349   0.545  2.3622  0.9732 -0.9509
17594TIP3   OH274196   2.525   5.983   1.624 -0.4297  0.0539  0.0607
17594TIP3    H174197   2.505   5.911   1.684 -0.0050  0.5621  0.8166
17594TIP3    H274198   2.588   6.038   1.672 -2.1942  1.9648  0.2532
17595TIP3   OH274199   3.648   4.697  14.178 -0.5042 -0.0493 -0.3438
17595TIP3    H174200   3.732   4.654  14.167 -0.2143  0.4804 -0.2105
17595TIP3    H274201   3.650   4.733  14.266 -0.9803 -0.2725 -0.2393
17596TIP3   OH274202   5.596   0.276  11.244  0.6610 -0.2905  0.4958
17596TIP3    H174203   5.582   0.304  11.153 -0.3685 -0.8167  0.4820
17596TIP3    H274204   5.666   0.333  11.276 -0.0966  1.0208 -0.1158
17597TIP3   OH274205   3.878   2.369   1.604  0.3338 -0.9656  0.1562
17597TIP3    H174206   3.890   2.291   1.549  1.2692 -2.1981  2.0496
17597TIP3    H274207   3.958   2.419   1.592  0.2195 -0.8679 -0.1903
17598TIP3   OH274208   5.262   0.984  15.351 -0.0220 -0.1177  0.4053
17598TIP3    H174209   5.192   0.946  15.405  0.2724 -2.2899 -0.7090
17598TIP3    H274210   5.342   0.938  15.379  0.5664  0.6336 -0.0188
17599TIP3   OH274211   3.080   2.385   5.019  0.0722 -0.5196  0.2152
17599TIP3    H174212   3.012   2.359   5.081 -1.2598 -0.5501 -1.2468
17599TIP3    H274213   3.064   2.332   4.941 -0.7945  2.3984 -1.6734
17600TIP3   OH274214   4.115   1.666  12.158  0.1376 -0.3994 -0.0419
17600TIP3    H174215   4.124   1.585  12.207  2.8103 -0.2255 -0.1933
17600TIP3    H274216   4.161   1.650  12.076  0.3452  1.1245 -0.2375
17601TIP3   OH274217   3.804   1.219  13.343 -0.3537 -0.1093 -0.7136
17601TIP3    H174218   3.838   1.205  13.255  2.5591 -0.8139  0.4904
17601TIP3    H274219   3.852   1.158  13.399 -1.3461  1.0798  1.5450
17602TIP3   OH274220   0.042   4.453   2.823 -0.4149  0.4995  0.3616
17602TIP3    H174221  -0.036   4.438   2.770 -0.8516  2.2027  0.5102
17602TIP3    H274222   0.110   4.477   2.759 -0.1882 -0.2818  0.3026
17603TIP3   OH274223   1.554   4.346   2.244  0.8807  0.5864  0.2094
17603TIP3    H174224   1.468   4.302   2.248 -0.1569  2.6239  0.8127
17603TIP3    H274225   1.543   4.411   2.175  2.1535  0.4657 -0.1060
17604TIP3   OH274226   1.259   5.559  11.738  0.5281 -0.4731 -0.3416
17604TIP3    H174227   1.208   5.506  11.677 -0.1491  0.3128 -0.4715
17604TIP3    H274228   1.216   5.546  11.823 -1.5677  2.2533 -0.9057
17605TIP3   OH274229   5.213   3.081  14.699  0.4108 -0.4783 -0.7017
17605TIP3    H174230   5.191   2.988  14.686  0.8915 -0.8424  1.0508
17605TIP3    H274231   5.308   3.084  14.693  0.5357 -0.4176  1.1911
17606TIP3   OH274232   2.615   2.331  13.301 -0.3706 -0.3364 -0.3159
17606TIP3    H174233   2.699   2.371  13.280 -0.3489  1.4244  2.8135
17606TIP3    H274234   2.611   2.253  13.245  3.1606 -0.2733 -0.7648
17607TIP3   OH274235   5.907   2.492   0.174  0.0609 -0.1411  0.4987
17607TIP3    H174236   5.857   2.573   0.182 -0.1295 -0.2750  0.6572
17607TIP3    H274237   5.958   2.503   0.094  1.1778  0.7660  1.3174
17608TIP3   OH274238   2.128   5.044   0.213  0.0917  0.2002  0.3919
17608TIP3    H174239   2.088   5.070   0.130  0.2927  0.0551  0.2509
17608TIP3    H274240   2.216   5.082   0.211  0.8060 -1.4443 -0.3151
17609TIP3   OH274241   6.740   6.477  12.684 -0.2996  0.1680 -0.1735
17609TIP3    H174242   6.714   6.553  12.736 -1.3493 -0.7937  0.7249
17609TIP3    H274243   6.664   6.461  12.627 -0.8981 -1.4338  1.0542
17610TIP3   OH274244   6.737   3.163   2.806  0.1222 -0.5694 -0.2655
17610TIP3    H174245   6.656   3.157   2.857  1.1108 -1.5245  1.2200
17610TIP3    H274246   6.806   3.134   2.866  1.8540  2.1055 -0.8811
17611TIP3   OH274247   0.847   6.084   2.910  0.3642  0.0204  0.5202
17611TIP3    H174248   0.868   6.122   2.995  0.5974 -2.2742  1.5249
17611TIP3    H274249   0.872   5.992   2.918 -0.2510 -0.3833 -1.8116
17612TIP3   OH274250   3.725   2.176  11.395 -0.2545 -0.0134  0.0270
17612TIP3    H174251   3.719   2.204  11.304 -0.3105 -1.5555 -0.4495
17612TIP3    H274252   3.780   2.243  11.436 -1.5892  1.6058 -0.7398
17613TIP3   OH274253   3.791   0.525   4.903  0.0171 -0.3853  0.3646
17613TIP3    H174254   3.791   0.483   4.818  1.0169 -0.2160  0.2719
17613TIP3    H274255   3.798   0.453   4.966 -1.8447 -0.5856  0.3587
17614TIP3   OH274256   1.355   2.350  14.016 -0.2223  0.1541 -0.3615
17614TIP3    H174257   1.311   2.338  14.100  0.8923 -0.4137  0.1419
17614TIP3    H274258   1.441   2.386  14.038  0.2220 -0.3676 -1.2270
17615TIP3   OH274259   0.090   4.254   4.834 -0.0374 -0.1751  0.7645
17615TIP3    H174260   0.186   4.262   4.835  0.1716 -2.2690 -0.2154
17615TIP3    H274261   0.073   4.168   4.872 -1.4714 -0.2110  0.0575
17616TIP3   OH274262   4.749   1.693   2.879  0.6689 -0.3759  0.0229
17616TIP3    H174263   4.717   1.784   2.874 -0.9753 -0.9431 -0.1075
17616TIP3    H274264   4.758   1.676   2.973  1.2197 -0.0099  0.0419
17617TIP3   OH274265   3.834   1.374  14.573  0.2821 -0.5918 -0.1077
17617TIP3    H174266   3.819   1.395  14.665  0.1713  0.2620 -0.3167
17617TIP3    H274267   3.762   1.315  14.549  0.5428 -1.1376  0.4612
17618TIP3   OH274268   1.741   6.652   5.856  0.2463  0.1684  0.7843
17618TIP3    H174269   1.647   6.643   5.840  0.3964 -0.0424  0.0462
17618TIP3    H274270   1.763   6.575   5.909  0.0634  0.0787  0.7310
17619TIP3   OH274271   0.288   1.600  16.325 -0.4594  0.0724  0.0946
17619TIP3    H174272   0.354   1.531  16.323 -0.4234  0.1059  0.1345
17619TIP3    H274273   0.223   1.573  16.260 -0.0427  0.4090 -0.4670
17620TIP3   OH274274   1.768   4.713   4.199 -0.2489 -0.2242 -0.6019
17620TIP3    H174275   1.777   4.640   4.137  2.2597  0.4324 -1.0595
17620TIP3    H274276   1.739   4.672   4.280 -1.5009 -1.3675 -1.5880
17621TIP3   OH274277   2.425   1.238  16.299 -0.2576  0.6630  0.1080
17621TIP3    H174278   2.439   1.195  16.214 -1.9223 -0.1110  0.1879
17621TIP3    H274279   2.397   1.326  16.276  1.2996  1.1098 -0.1023
17622TIP3   OH274280   5.645   2.925  12.071 -0.1250 -0.0339  0.2125
17622TIP3    H174281   5.623   2.858  12.006  0.0590  1.3713 -1.3151
17622TIP3    H274282   5.579   2.913  12.140 -2.3255  0.4890 -1.7127
17623TIP3   OH274283   6.651   0.951   2.305  0.3119 -0.0071  0.7492
17623TIP3    H174284   6.682   0.963   2.215 -0.0122 -0.0716  0.6298
17623TIP3    H274285   6.678   1.031   2.350 -0.6559  0.5947  0.2773
17624TIP3   OH274286   5.789   3.534   1.185  0.3636  0.3840 -0.5041
17624TIP3    H174287   5.794   3.615   1.133 -0.5622 -0.1799 -1.4943
17624TIP3    H274288   5.737   3.474   1.131  1.3155 -0.9918  0.0756
17625TIP3   OH274289   3.399   6.483   5.389 -0.0230  0.8118  0.0856
17625TIP3    H174290   3.346   6.560   5.366 -1.5382 -0.2856 -0.1724
17625TIP3    H274291   3.400   6.430   5.309 -1.4714 -0.8327  1.1070
17626TIP3   OH274292   3.245   3.737  14.312  0.5790 -0.2787 -0.1311
17626TIP3    H174293   3.340   3.724  14.307  0.4725 -0.7874 -0.9950
17626TIP3    H274294   3.214   3.717  14.223 -0.5642 -1.9908  0.6388
17627TIP3   OH274295   6.633   0.715   3.779  0.3246  0.6030 -0.8344
17627TIP3    H174296   6.572   0.749   3.845  1.7818  0.2600  0.7170
17627TIP3    H274297   6.702   0.782   3.773  1.5626 -0.5787 -0.0634
17628TIP3   OH274298   4.325   3.880   4.003  0.0469 -0.6803  0.9869
17628TIP3    H174299   4.400   3.939   3.996 -1.5152  1.3178  0.9893
17628TIP3    H274300   4.252   3.936   4.029 -1.8978 -2.2837 -0.8551
17629TIP3   OH274301   1.916   2.319  16.288 -0.4165 -0.2465  0.3060
17629TIP3    H174302   1.951   2.404  16.263  0.3383 -0.5227  0.4113
17629TIP3    H274303   1.940   2.261  16.216 -0.8463 -0.3921  0.2802
17630TIP3   OH274304   4.811   6.282   3.078  0.2471  0.1276  0.3465
17630TIP3    H174305   4.779   6.241   2.997 -0.2909  0.6502  0.2849
17630TIP3    H274306   4.771   6.230   3.148  1.1710 -0.6786  0.2867
17631TIP3   OH274307   0.563   1.256  13.695  0.2078  0.4314 -0.4076
17631TIP3    H174308   0.638   1.224  13.645 -0.5250  1.2597 -2.0395
17631TIP3    H274309   0.495   1.273  13.630 -0.9507  0.9910  0.9169
17632TIP3   OH274310   6.267   2.520  13.614  0.1457 -0.1397  0.1846
17632TIP3    H174311   6.338   2.513  13.550  1.1254  0.9999  1.0984
17632TIP3    H274312   6.267   2.613  13.639 -1.9191 -0.0498 -0.0594
17633TIP3   OH274313   3.981   4.655  14.984 -0.2253  0.5244  0.2826
17633TIP3    H174314   3.890   4.629  15.002 -0.3780 -0.1829 -1.4247
17633TIP3    H274315   4.031   4.575  14.993  0.1382  0.7708  0.4877
17634TIP3   OH274316   5.685   6.356  16.390  0.3566 -0.1211  0.4258
17634TIP3    H174317   5.771   6.386  16.360  0.5153  0.7405  1.6903
17634TIP3    H274318   5.704   6.300  16.466 -0.2273  0.4804  1.0204
17635TIP3   OH274319   2.462   1.933  11.504 -0.0330 -0.1770  0.4113
17635TIP3    H174320   2.508   1.849  11.499 -1.3276 -0.8797 -0.1675
17635TIP3    H274321   2.442   1.955  11.413  0.8182  1.0650  0.5169
17636TIP3   OH274322   4.561   0.992  10.702 -0.2654  0.2543  0.1630
17636TIP3    H174323   4.491   0.991  10.766  0.2896  1.0221  0.7869
17636TIP3    H274324   4.564   1.082  10.669 -1.3912 -0.4153 -1.8919
17637TIP3   OH274325   3.180   4.579   4.208  0.3052  0.0961  0.2091
17637TIP3    H174326   3.191   4.566   4.114 -1.5772  0.6832 -0.1085
17637TIP3    H274327   3.149   4.494   4.240  3.6373 -0.9805  0.8003
17638TIP3   OH274328   4.857   6.328   0.948  0.1662 -0.2839  1.1094
17638TIP3    H174329   4.952   6.336   0.940 -0.1353  0.2954 -2.2995
17638TIP3    H274330   4.842   6.233   0.955  0.9769 -0.3843  1.5934
17639TIP3   OH274331   3.336   6.122   0.681 -0.2022  0.5385 -0.4257
17639TIP3    H174332   3.273   6.119   0.608 -0.3374  1.5063 -0.3494
17639TIP3    H274333   3.403   6.058   0.656 -2.1576 -1.9206  0.3777
17640TIP3   OH274334   0.237   4.306   3.470 -0.0334  0.8615  0.4141
17640TIP3    H174335   0.301   4.270   3.408 -0.6468  0.6226 -0.0839
17640TIP3    H274336   0.153   4.272   3.440 -0.5650  2.3004  0.2426
17641TIP3   OH274337   2.205   6.268   5.756  0.0920 -0.0071 -0.2566
17641TIP3    H174338   2.261   6.216   5.814  1.4550  1.2174 -0.4505
17641TIP3    H274339   2.250   6.352   5.749 -0.5646  0.1924 -2.2999
17642TIP3   OH274340   4.235   6.166  13.308 -0.1466  0.4109 -0.2793
17642TIP3    H174341   4.320   6.211  13.302 -0.4860  1.4684  2.3997
17642TIP3    H274342   4.170   6.236  13.305 -0.8690 -0.2800 -0.8531
17643TIP3   OH274343   1.583   2.110   0.867  0.2483 -0.2591  0.1963
17643TIP3    H174344   1.616   2.059   0.794 -0.7104  0.4601 -0.7493
17643TIP3    H274345   1.638   2.187   0.870 -0.6126  0.3924 -0.6631
17644TIP3   OH274346   0.760   5.111  16.817  0.4364 -0.1436 -0.0433
17644TIP3    H174347   0.826   5.178  16.833 -0.5633  0.6062  1.0133
17644TIP3    H274348   0.767   5.092  16.724  0.2874  1.9087 -0.4952
17645TIP3   OH274349   6.418   4.379   2.271  0.0585 -0.2616  0.6797
17645TIP3    H174350   6.478   4.306   2.287 -0.1865 -0.2884  1.4720
17645TIP3    H274351   6.344   4.363   2.330  0.8299  1.6136  2.2007
17646TIP3   OH274352   2.844   5.873   4.896 -0.1736  0.3090  0.0072
17646TIP3    H174353   2.787   5.949   4.909 -2.6567 -1.3265 -0.9590
17646TIP3    H274354   2.868   5.876   4.804 -0.5534 -0.2291 -0.1150
17647TIP3   OH274355   1.967   5.897   2.923 -0.0203  0.5324  0.3568
17647TIP3    H174356   1.909   5.972   2.929 -1.0538 -0.3333  1.5763
17647TIP3    H274357   2.034   5.912   2.989  0.8054  1.2316 -0.6253
17648TIP3   OH274358   0.908   1.055  14.945 -0.0969  0.5097 -0.1285
17648TIP3    H174359   0.867   1.140  14.959  0.0560  0.9680 -2.2811
17648TIP3    H274360   0.882   1.030  14.857  0.7394 -1.1919  0.0849
17649TIP3   OH274361   1.182   5.779  12.704  0.0546  0.4556 -0.4741
17649TIP3    H174362   1.096   5.820  12.711  0.6311  1.6472 -0.1922
17649TIP3    H274363   1.180   5.708  12.768 -0.5870  0.7139 -0.2051
17650TIP3   OH274364   1.836   4.541   5.624  0.1329 -0.5988 -0.1882
17650TIP3    H174365   1.841   4.534   5.719 -1.3253 -0.3954 -0.0832
17650TIP3    H274366   1.871   4.629   5.605  0.3728 -0.6189  0.1548
17651TIP3   OH274367   5.889   3.527  12.235 -0.5135 -0.2347 -0.1001
17651TIP3    H174368   5.836   3.603  12.259  1.7231  0.6191  2.4163
17651TIP3    H274369   5.955   3.561  12.175  1.4138  0.1966  2.1887
17652TIP3   OH274370   1.373   4.486   4.833 -0.1706 -0.3807  0.7414
17652TIP3    H174371   1.401   4.569   4.871 -0.1222  0.2918 -0.7264
17652TIP3    H274372   1.280   4.498   4.815  0.2735  0.1372 -1.3988
17653TIP3   OH274373   3.735   4.840   2.413  0.3695  0.1899 -0.1049
17653TIP3    H174374   3.680   4.861   2.488 -0.8213  1.3811 -1.2844
17653TIP3    H274375   3.698   4.758   2.378 -1.6252  1.7600 -1.7750
17654TIP3   OH274376   2.823   4.049  13.531  0.1026 -0.4847 -0.2912
17654TIP3    H174377   2.819   4.054  13.627  1.3230 -0.8705 -0.2154
17654TIP3    H274378   2.916   4.036  13.511 -0.0751  0.0542 -1.5510
17655TIP3   OH274379   5.382   3.735  12.161  0.9314  0.0570  0.5076
17655TIP3    H174380   5.381   3.783  12.078 -2.4104 -1.1661 -0.2542
17655TIP3    H274381   5.356   3.800  12.227 -2.1026 -0.2823 -0.2993
17656TIP3   OH274382   4.643   1.895  16.601  0.3196 -0.6413 -0.1811
17656TIP3    H174383   4.551   1.913  16.581  0.2784 -0.2352  0.3884
17656TIP3    H274384   4.670   1.835  16.531  0.0838  0.5408 -1.3084
17657TIP3   OH274385   4.895   2.785  15.407 -0.0068  0.2468  0.1742
17657TIP3    H174386   4.948   2.857  15.373  1.3894 -0.9594 -0.2914
17657TIP3    H274387   4.835   2.826  15.468 -2.2098  2.4430 -3.2914
17658TIP3   OH274388   2.170   0.614  15.656  0.2790 -0.0651 -0.0347
17658TIP3    H174389   2.075   0.616  15.663  0.2083 -1.1685 -0.6758
17658TIP3    H274390   2.199   0.696  15.697 -0.9225  0.1432  0.3945
17659TIP3   OH274391   3.849   2.822   0.685 -0.0511 -0.2083 -0.3985
17659TIP3    H174392   3.892   2.894   0.730 -0.0317 -0.2257 -0.3897
17659TIP3    H274393   3.820   2.763   0.755 -1.1222  0.3787 -0.3286
17660TIP3   OH274394   5.109   1.232  16.014 -0.4070  0.6544  0.3688
17660TIP3    H174395   5.128   1.293  15.942  0.4165  1.1428  0.9984
17660TIP3    H274396   5.194   1.197  16.039 -0.8790 -0.7907 -0.0002
17661TIP3   OH274397   0.654   4.870   1.092  0.2855  0.1428  0.2968
17661TIP3    H174398   0.680   4.912   1.009  1.3361 -0.0515  0.5221
17661TIP3    H274399   0.688   4.929   1.159 -2.9074  1.7389  0.6208
17662TIP3   OH274400   1.411   5.265  11.407  0.2270 -0.3247  0.5564
17662TIP3    H174401   1.411   5.180  11.362 -0.2511 -0.0689  0.0640
17662TIP3    H274402   1.320   5.278  11.432  0.5698 -0.6680  1.9953
17663TIP3   OH274403   0.846   4.653  13.758 -0.4155  0.7371 -0.1100
17663TIP3    H174404   0.836   4.558  13.747  0.1649  0.7095 -0.4008
17663TIP3    H274405   0.879   4.684  13.674 -0.1771  1.1355  0.1278
17664TIP3   OH274406   4.742   0.609  14.807 -0.0596 -0.1636  0.1394
17664TIP3    H174407   4.818   0.666  14.824  0.9273 -1.2519 -0.5672
17664TIP3    H274408   4.681   0.665  14.760  0.1245  0.8502  1.0877
17665TIP3   OH274409   6.036   2.456  11.885  0.1815  0.1749  0.1339
17665TIP3    H174410   5.969   2.387  11.894 -0.8829  1.1804  0.0598
17665TIP3    H274411   6.082   2.456  11.969 -0.3152 -0.1246  0.4130
17666TIP3   OH274412   3.317   4.244   0.504  0.1106  0.0448 -0.0149
17666TIP3    H174413   3.329   4.294   0.422  0.1260 -1.1284 -0.7366
17666TIP3    H274414   3.239   4.282   0.543 -0.3260  0.1327 -0.9503
17667TIP3   OH274415   3.565   3.634  14.723  0.7216  0.0832 -0.4214
17667TIP3    H174416   3.536   3.633  14.815  1.8604  2.1642 -0.0027
17667TIP3    H274417   3.492   3.671  14.675  1.2655  1.9420  0.1253
17668TIP3   OH274418   4.449   2.350  15.981 -0.1238 -0.4040  0.1911
17668TIP3    H174419   4.422   2.369  16.071 -0.0450 -0.4142  0.2165
17668TIP3    H274420   4.491   2.264  15.986  1.0562  0.1715  0.3824
17669TIP3   OH274421   2.966   2.208   4.828 -0.6560 -0.0091 -0.7922
17669TIP3    H174422   2.959   2.271   4.756 -0.5928  0.3198 -0.5163
17669TIP3    H274423   2.879   2.210   4.870 -0.6615 -0.1224 -0.8003
17670TIP3   OH274424   1.390   2.964   1.652  0.6373  0.0689 -0.2461
17670TIP3    H174425   1.323   2.896   1.653  0.3579  0.3407  0.0596
17670TIP3    H274426   1.417   2.972   1.744 -0.6797  1.6671  0.0385
17671TIP3   OH274427   0.673   1.190  12.372  0.0273 -0.1714  0.0349
17671TIP3    H174428   0.728   1.233  12.307 -0.8706  1.3414  0.2687
17671TIP3    H274429   0.719   1.202  12.455  0.2081 -0.4407 -0.0225
17672TIP3   OH274430   3.559   0.330  12.369 -0.0704 -1.0111 -0.0481
17672TIP3    H174431   3.644   0.285  12.366 -0.8670 -2.6485  1.1753
17672TIP3    H274432   3.511   0.284  12.437 -1.7193  0.3281 -0.2994
17673TIP3   OH274433   6.590   6.297  13.218  0.1529  0.3212 -0.5305
17673TIP3    H174434   6.683   6.279  13.202 -0.3083 -0.7632 -2.0312
17673TIP3    H274435   6.547   6.212  13.205 -1.0402  0.7879  0.3118
17674TIP3   OH274436   2.695   6.143   1.877  0.2413  0.2669 -0.0442
17674TIP3    H174437   2.761   6.074   1.874  1.7595  1.6551  0.8278
17674TIP3    H274438   2.740   6.218   1.917 -1.7374  1.3623  0.1930
17675TIP3   OH274439   5.625   5.812   5.025  0.1172 -0.5343 -0.3752
17675TIP3    H174440   5.645   5.785   4.936 -0.3882  0.6945 -0.8693
17675TIP3    H274441   5.665   5.898   5.034 -1.0431 -0.0377  0.1146
17676TIP3   OH274442   3.977   5.518   0.488 -0.5600 -0.3581 -0.6739
17676TIP3    H174443   4.028   5.599   0.492  0.5739 -1.0665 -0.6593
17676TIP3    H274444   3.888   5.547   0.467 -0.1614  0.8900 -0.6782
17677TIP3   OH274445   5.136   0.045   1.011  0.1551 -0.0764 -0.5876
17677TIP3    H174446   5.111  -0.034   0.963  0.7863  0.2821 -1.5263
17677TIP3    H274447   5.174   0.012   1.093 -2.6876 -0.6307  0.5400
17678TIP3   OH274448   2.425   1.482  11.308 -0.3672  0.8829  0.1504
17678TIP3    H174449   2.517   1.456  11.299 -0.2145  2.0255 -1.7305
17678TIP3    H274450   2.418   1.564  11.259 -2.0746  1.5617  1.4708
17679TIP3   OH274451   1.419   3.057  15.741 -0.3102  0.1948  0.0869
17679TIP3    H174452   1.363   3.045  15.664 -2.2674  0.7843  1.3989
17679TIP3    H274453   1.409   3.149  15.764  1.3430  0.3472  0.2510
17680TIP3   OH274454   6.334   3.358   1.767  0.1643 -0.1182  0.6185
17680TIP3    H174455   6.412   3.383   1.816  1.6357 -0.0281 -1.6999
17680TIP3    H274456   6.356   3.377   1.676 -2.4445 -0.4243 -0.1030
17681TIP3   OH274457   2.322   0.544  14.650 -0.5905 -0.5605 -0.4559
17681TIP3    H174458   2.243   0.492  14.661  0.9427 -2.7522  0.5020
17681TIP3    H274459   2.346   0.533  14.558 -0.3460 -1.4685 -0.2897
17682TIP3   OH274460   1.207   2.046   3.286 -0.0130  0.2408  0.4658
17682TIP3    H174461   1.140   2.042   3.354  0.7020 -1.1340  1.1218
17682TIP3    H274462   1.264   1.971   3.304 -1.1143 -1.5613 -3.0350
17683TIP3   OH274463   5.848   0.344  12.684  0.5605  0.0971 -0.3921
17683TIP3    H174464   5.943   0.359  12.690  0.2751  1.7769  0.1524
17683TIP3    H274465   5.823   0.382  12.600  0.2352  0.5015 -0.1181
17684TIP3   OH274466   0.274   2.891  13.605  0.5257  0.4449  0.0577
17684TIP3    H174467   0.261   2.945  13.683  0.7612 -1.6881  1.6132
17684TIP3    H274468   0.191   2.897  13.558  0.3779  1.7323  0.4552
17685TIP3   OH274469   4.437   0.621  11.576  0.1687 -0.1002  0.4831
17685TIP3    H174470   4.476   0.582  11.498  1.7787 -0.9824  1.6747
17685TIP3    H274471   4.344   0.601  11.569  0.5772 -1.8354 -0.2709
17686TIP3   OH274472   1.756   6.557   0.632 -0.2788 -0.3608 -0.2216
17686TIP3    H174473   1.793   6.644   0.651  1.5977 -1.0101 -0.7860
17686TIP3    H274474   1.802   6.529   0.553  0.1952 -2.4897  0.7947
17687TIP3   OH274475   4.572   3.856   4.868 -0.3482  0.1202  0.0852
17687TIP3    H174476   4.644   3.797   4.851 -0.3841  0.8436 -2.7850
17687TIP3    H274477   4.610   3.926   4.922  0.9059  0.0947 -0.7500
17688TIP3   OH274478   2.966   6.044   2.901 -0.6700  0.8827 -0.2940
17688TIP3    H174479   3.035   6.011   2.844  0.1289  1.6284  0.2342
17688TIP3    H274480   3.005   6.044   2.988 -1.3169  1.3694 -0.0002
17689TIP3   OH274481   5.968   3.829   3.152 -0.0681 -0.0421  0.3650
17689TIP3    H174482   5.901   3.764   3.129  0.4830  0.3018 -2.4145
17689TIP3    H274483   5.919   3.911   3.160 -0.5647 -0.5187  2.5355
17690TIP3   OH274484   1.414   3.848  11.454 -0.3594  0.4860  0.0571
17690TIP3    H174485   1.391   3.937  11.430 -0.3793  0.1378 -1.2488
17690TIP3    H274486   1.377   3.793  11.384 -0.4068 -0.5466  0.8730
17691TIP3   OH274487   0.253   3.705  16.804  0.1238  0.3264 -0.4710
17691TIP3    H174488   0.336   3.727  16.847 -0.7208  1.3145  0.7196
17691TIP3    H274489   0.194   3.680  16.876 -1.0848  1.2013 -1.1259
17692TIP3   OH274490   2.421   5.924   2.611 -0.3712  0.1828 -0.1435
17692TIP3    H174491   2.420   5.849   2.552 -2.8319  0.2227 -0.2096
17692TIP3    H274492   2.434   6.000   2.554  1.2275 -0.0807 -0.1689
17693TIP3   OH274493   5.238   1.425  16.518  0.2533  0.4881 -0.2550
17693TIP3    H174494   5.329   1.410  16.543 -0.2771 -1.1142  0.7723
17693TIP3    H274495   5.235   1.407  16.424  0.9165  0.2282 -0.2212
17694TIP3   OH274496   6.361   4.024  13.315 -0.2505  0.1367 -0.4072
17694TIP3    H174497   6.305   4.079  13.370  3.3357  2.1158  1.4663
17694TIP3    H274498   6.373   4.074  13.235  2.3328  1.8071  0.9638
17695TIP3   OH274499   6.311   3.200  16.868 -0.3380  0.2251 -0.0059
17695TIP3    H174500   6.301   3.169  16.958  0.7951  0.4637  0.2085
17695TIP3    H274501   6.296   3.294  16.873  0.2037  0.3159  0.0295
17696TIP3   OH274502   1.175   1.060  17.084 -0.5511 -0.1650  0.1072
17696TIP3    H174503   1.140   0.977  17.118 -3.7932  1.1111  0.0373
17696TIP3    H274504   1.156   1.124  17.153 -1.0544  1.1473 -1.2283
17697TIP3   OH274505   1.162   5.495   4.251  0.6278 -0.5836  0.0653
17697TIP3    H174506   1.097   5.428   4.232  0.9038 -0.3390 -1.8593
17697TIP3    H274507   1.239   5.446   4.279  0.3242 -0.9929  0.1880
17698TIP3   OH274508   6.533   2.623   1.137  0.4750  0.1171 -0.1413
17698TIP3    H174509   6.574   2.578   1.064  0.8805  0.1755  0.0466
17698TIP3    H274510   6.550   2.716   1.120 -0.0313  0.1725 -0.3337
17699TIP3   OH274511   1.063   0.258  15.449  0.2242 -0.5473 -0.9548
17699TIP3    H174512   1.038   0.207  15.372  0.3621 -2.7415  0.3873
17699TIP3    H274513   1.062   0.194  15.521  1.0202  1.2367  0.6892
17700TIP3   OH274514   3.335   0.859  13.146  0.3107 -0.0586 -0.6862
17700TIP3    H174515   3.353   0.953  13.143  0.2337 -0.0550 -1.0957
17700TIP3    H274516   3.421   0.818  13.138  0.4839 -0.0180  0.7965
17701TIP3   OH274517   1.796   3.362   0.214 -0.3717 -0.4599  0.0129
17701TIP3    H174518   1.715   3.348   0.165 -0.4398  0.2272 -0.0703
17701TIP3    H274519   1.866   3.358   0.148 -0.4561  0.3743 -0.1346
17702TIP3   OH274520   3.823   0.400   3.503 -0.5505 -0.0530 -0.5373
17702TIP3    H174521   3.886   0.466   3.531 -1.3078  0.8887 -1.0232
17702TIP3    H274522   3.874   0.340   3.449  0.7917 -1.5396  2.2863
17703TIP3   OH274523   5.028   6.710  13.586  0.6159  0.2093  0.5771
17703TIP3    H174524   4.978   6.790  13.566 -1.8448 -1.5178 -0.3811
17703TIP3    H274525   5.099   6.740  13.642  0.1276  3.1877 -0.2990
17704TIP3   OH274526   2.348   3.478   4.298 -0.2860 -0.2532  0.5091
17704TIP3    H174527   2.402   3.434   4.364  1.6070  0.0042 -0.8412
17704TIP3    H274528   2.387   3.453   4.215 -1.8144  0.5589 -0.4793
17705TIP3   OH274529   0.941   1.231  14.404 -0.2706  0.1225  0.4567
17705TIP3    H174530   0.977   1.149  14.437  0.8955  0.6513  0.5430
17705TIP3    H274531   0.984   1.243  14.319 -2.7470 -0.8905 -0.9807
17706TIP3   OH274532   1.840   2.800  12.027  0.6285 -0.4906  0.3623
17706TIP3    H174533   1.779   2.856  11.979  1.7206  0.9498  0.6317
17706TIP3    H274534   1.814   2.711  12.004 -0.0482  0.1484 -1.4145
17707TIP3   OH274535   6.189   0.553  15.233  0.4432  0.2132  0.1834
17707TIP3    H174536   6.271   0.596  15.209  0.4846 -0.2573 -0.5344
17707TIP3    H274537   6.151   0.526  15.150  1.3295 -2.7793  0.6856
17708TIP3   OH274538   5.398   3.194  15.842  0.9795  0.3086 -0.1905
17708TIP3    H174539   5.421   3.228  15.928 -1.5506  1.6016  0.0185
17708TIP3    H274540   5.363   3.269  15.795 -1.2913 -1.2015 -0.9940
17709TIP3   OH274541   1.623   3.503   2.497 -0.4977 -0.4020  0.2548
17709TIP3    H174542   1.649   3.589   2.464  0.5791 -0.8384 -0.0543
17709TIP3    H274543   1.548   3.521   2.553 -1.6315  0.4889 -1.5089
17710TIP3   OH274544   6.596   1.205  15.237 -0.2518  0.0457  0.4561
17710TIP3    H174545   6.508   1.209  15.274  0.0506  0.2747  1.1508
17710TIP3    H274546   6.655   1.199  15.312  0.3164 -0.3951 -0.0084
17711TIP3   OH274547   6.252   4.762  10.758 -0.1395  0.2780 -0.3859
17711TIP3    H174548   6.287   4.851  10.753 -0.0721  0.3805  1.4716
17711TIP3    H274549   6.159   4.773  10.775 -0.4356 -0.0072 -1.8038
17712TIP3   OH274550   0.965   2.675  11.284 -0.0889 -0.5502 -0.3877
17712TIP3    H174551   1.032   2.609  11.268 -0.9766 -1.7072  0.5726
17712TIP3    H274552   0.962   2.727  11.204  0.7362 -1.5796 -1.0928
17713TIP3   OH274553   0.039   5.407  13.200  0.3362 -0.1226 -0.0382
17713TIP3    H174554  -0.039   5.460  13.217  0.5822  0.5646 -1.0271
17713TIP3    H274555   0.112   5.468  13.211  0.7605 -0.8211  1.1316
17714TIP3   OH274556   5.174   5.499   1.084 -0.3971  0.0259  0.2204
17714TIP3    H174557   5.182   5.421   1.028  0.3338 -1.2652  2.0821
17714TIP3    H274558   5.224   5.477   1.163 -1.7396  1.6596  1.5523
17715TIP3   OH274559   1.851   0.466   5.349 -0.8041 -0.4193  0.4833
17715TIP3    H174560   1.778   0.407   5.368 -0.1950 -1.5846 -0.7259
17715TIP3    H274561   1.831   0.501   5.262  0.1647 -0.9059  0.0515
17716TIP3   OH274562   4.848   1.360   0.158  0.1446 -0.5363  0.0866
17716TIP3    H174563   4.869   1.439   0.108 -0.6820 -0.1271  0.3727
17716TIP3    H274564   4.913   1.296   0.130 -0.3485 -0.3429 -1.5735
17717TIP3   OH274565   3.199   3.412   6.055 -0.3137 -0.2236  0.3750
17717TIP3    H174566   3.151   3.454   6.126 -1.9865 -1.1631 -0.1834
17717TIP3    H274567   3.251   3.344   6.098  1.0894  1.2537  1.0644
17718TIP3   OH274568   5.520   0.419  12.360 -0.4123 -0.0225 -0.1745
17718TIP3    H174569   5.546   0.336  12.319 -0.0591  0.3006 -0.6125
17718TIP3    H274570   5.486   0.472  12.287 -0.8220  0.1428  0.1358
17719TIP3   OH274571   0.415   3.410  16.522  0.2758 -1.1683  1.1286
17719TIP3    H174572   0.438   3.473  16.591 -0.2919 -0.9585  1.1314
17719TIP3    H274573   0.363   3.343  16.567 -0.2208 -0.9543  0.8836
17720TIP3   OH274574   2.340   2.315  15.232  0.6190  0.3102 -0.6559
17720TIP3    H174575   2.254   2.358  15.233  0.2687 -0.3993  0.6005
17720TIP3    H274576   2.325   2.233  15.186  0.6108  0.1614 -0.3892
17721TIP3   OH274577   0.998   5.137  16.060 -0.4758  0.7289 -0.0693
17721TIP3    H174578   0.983   5.200  16.130  2.6517  1.0867  0.3399
17721TIP3    H274579   0.995   5.052  16.104  0.2559  0.8831  0.2841
17722TIP3   OH274580   4.391   1.706   2.156  0.7551  0.4170 -0.8530
17722TIP3    H174581   4.367   1.775   2.094  0.4065  0.2998 -0.8469
17722TIP3    H274582   4.387   1.625   2.105 -0.5792  0.2000 -0.4028
17723TIP3   OH274583   4.010   0.877   5.110  0.1422  0.3980 -0.5160
17723TIP3    H174584   3.988   0.803   5.167 -0.3628  0.2776 -0.8683
17723TIP3    H274585   4.102   0.863   5.087  0.1164  0.0120 -0.3878
17724TIP3   OH274586   0.486   2.548  14.426 -0.2619  0.2382 -0.5311
17724TIP3    H174587   0.436   2.558  14.345  0.0070  0.4719 -0.6692
17724TIP3    H274588   0.556   2.487  14.404  0.0931  0.6652 -0.6094
17725TIP3   OH274589   5.383   0.382   5.699  0.0078  0.5685 -0.5453
17725TIP3    H174590   5.473   0.411   5.719  1.2616 -2.0073 -2.2778
17725TIP3    H274591   5.383   0.369   5.604 -1.7503 -0.9694 -0.3428
17726TIP3   OH274592   1.004   2.864   5.079  0.1732  0.3105 -0.0669
17726TIP3    H174593   0.971   2.944   5.120 -0.9682 -0.4228  0.4784
17726TIP3    H274594   0.953   2.854   4.999  0.6071  0.3476 -0.3516
17727TIP3   OH274595   5.986   5.311  16.868 -0.4779 -0.1885 -0.0223
17727TIP3    H174596   6.033   5.265  16.798 -1.5207 -0.3529 -0.6436
17727TIP3    H274597   5.914   5.252  16.891 -1.7041  1.0150 -0.6692
17728TIP3   OH274598   3.226   6.443  14.494  0.1480  0.0534  0.4409
17728TIP3    H174599   3.210   6.403  14.409  2.0008 -1.8934  0.9712
17728TIP3    H274600   3.154   6.411  14.549 -0.4521  0.4591 -0.1050
17729TIP3   OH274601   4.931   2.358   3.506 -0.7594  0.2876 -0.2800
17729TIP3    H174602   4.982   2.373   3.585 -0.2584 -0.2449 -0.4980
17729TIP3    H274603   4.960   2.273   3.474 -1.6479  0.0675 -0.5175
17730TIP3   OH274604   2.247   2.069   3.486 -0.5341  0.1236 -0.7504
17730TIP3    H174605   2.188   2.133   3.526 -0.2693  1.0822 -1.8821
17730TIP3    H274606   2.190   2.004   3.447 -0.8100 -0.0109 -0.1331
17731TIP3   OH274607   4.448   6.432  11.596  0.4368 -0.0228 -0.0088
17731TIP3    H174608   4.387   6.477  11.537  0.1708  0.9830  1.0147
17731TIP3    H274609   4.534   6.469  11.574  0.2698  0.7163  0.5693
17732TIP3   OH274610   4.265   0.613  14.409 -0.5383 -0.1812  0.2066
17732TIP3    H174611   4.212   0.649  14.480 -0.7566  0.2606 -0.1781
17732TIP3    H274612   4.262   0.680  14.341 -2.5826 -1.7698 -1.3283
17733TIP3   OH274613   5.092   5.454  14.644 -0.6657  0.0244  0.0974
17733TIP3    H174614   5.075   5.469  14.551  0.7606 -0.0243 -0.1912
17733TIP3    H274615   5.064   5.534  14.688 -1.1638  0.1227 -0.4014
17734TIP3   OH274616   2.229   4.853   4.128  0.1481 -0.1094  0.3821
17734TIP3    H174617   2.197   4.840   4.217  0.4349 -1.7509  0.2583
17734TIP3    H274618   2.155   4.891   4.081 -0.3607 -0.2798  1.0432
17735TIP3   OH274619   2.175   3.738   5.255 -0.3333 -0.0297 -0.2072
17735TIP3    H174620   2.166   3.810   5.192 -1.3077  1.5590  1.6748
17735TIP3    H274621   2.167   3.659   5.203 -1.0505  1.2482 -2.0848
17736TIP3   OH274622   5.129   3.938   4.408  0.4324  0.2341 -0.3147
17736TIP3    H174623   5.046   3.983   4.392  0.7343  0.4603 -1.2568
17736TIP3    H274624   5.108   3.845   4.399  0.4577  0.3294 -1.3964
17737TIP3   OH274625   3.999   0.820   5.821  0.2061 -0.1855  0.0066
17737TIP3    H174626   4.059   0.894   5.828 -0.9548  0.8922 -1.1952
17737TIP3    H274627   3.951   0.819   5.903  0.1034  0.4992 -0.0464
17738TIP3   OH274628   1.090   6.078   2.367 -0.3659 -0.6706  0.5017
17738TIP3    H174629   1.076   6.152   2.426 -1.1800 -0.2750 -0.1774
17738TIP3    H274630   1.185   6.071   2.358 -0.3274  1.0493 -0.4147
17739TIP3   OH274631   6.633   6.590  11.841  0.5246 -0.1795  0.1852
17739TIP3    H174632   6.712   6.555  11.799  1.2604 -0.3306  1.6593
17739TIP3    H274633   6.571   6.600  11.769  1.8183 -0.2341 -0.9720
17740TIP3   OH274634   5.717   6.117   3.266 -0.1735  0.3369 -0.3369
17740TIP3    H174635   5.789   6.075   3.312 -1.3738 -0.2755  1.0181
17740TIP3    H274636   5.672   6.046   3.220 -0.9365  0.4505  0.2208
17741TIP3   OH274637   3.799   5.394   3.268  0.0083  0.2656  0.1727
17741TIP3    H174638   3.838   5.348   3.193 -1.9931 -0.2360 -0.6101
17741TIP3    H274639   3.873   5.419   3.322  1.2851 -2.4155 -0.2413
17742TIP3   OH274640   1.516   6.200   3.694 -0.0565  0.9100  0.1389
17742TIP3    H174641   1.468   6.195   3.777  1.2590 -0.5065  0.8307
17742TIP3    H274642   1.448   6.215   3.628 -1.4000 -0.6092  1.1545
17743TIP3   OH274643   2.515   1.211   5.353 -0.5135 -0.2780 -0.1229
17743TIP3    H174644   2.583   1.244   5.413 -1.2754 -1.9001  1.7103
17743TIP3    H274645   2.560   1.201   5.269  0.5599  2.1741  0.0921
17744TIP3   OH274646   0.937   5.641  11.540  0.1604 -0.1286  0.3888
17744TIP3    H174647   0.871   5.572  11.552  1.5559 -1.4417  0.5851
17744TIP3    H274648   1.020   5.597  11.555  1.0807  1.5685  0.2911
17745TIP3   OH274649   5.150   2.239   1.811  0.1912 -0.2144 -0.6352
17745TIP3    H174650   5.100   2.240   1.893 -0.2739  0.5817 -0.9147
17745TIP3    H274651   5.083   2.234   1.742  0.5459 -0.1701 -0.9833
17746TIP3   OH274652   3.335   0.039  16.392 -0.3229  0.0496  0.2954
17746TIP3    H174653   3.407  -0.023  16.381 -0.6909 -0.0568 -1.7002
17746TIP3    H274654   3.264  -0.014  16.429  0.3218 -0.0578  1.3713
17747TIP3   OH274655   6.299   6.130  10.714  0.4399  0.8032  0.6998
17747TIP3    H174656   6.367   6.144  10.779  1.7897  0.5563 -0.6300
17747TIP3    H274657   6.345   6.096  10.637 -0.9962  1.7694 -0.6422
17748TIP3   OH274658   2.466   2.252   1.225  0.0487  0.2784  0.4314
17748TIP3    H174659   2.528   2.211   1.164 -0.0622 -0.2663  0.6810
17748TIP3    H274660   2.407   2.181   1.251 -0.9467  0.8904 -0.1337
17749TIP3   OH274661   1.976   4.698  14.151  0.0336 -0.3494  0.6620
17749TIP3    H174662   1.887   4.725  14.171  0.0117 -0.1970  0.3605
17749TIP3    H274663   2.027   4.779  14.159  0.1228 -0.4091  0.6961
17750TIP3   OH274664   3.995   4.880  11.293  0.8987 -0.3513 -0.6301
17750TIP3    H174665   4.075   4.925  11.265  1.7040 -0.8761  0.8049
17750TIP3    H274666   4.016   4.787  11.287  0.1528 -0.5054 -0.9223
17751TIP3   OH274667   1.379   1.485   1.958  0.4915  0.2241  0.0029
17751TIP3    H174668   1.406   1.474   1.867  0.2174 -0.5154  0.0097
17751TIP3    H274669   1.368   1.396   1.991  1.5317  0.4829  1.0498
17752TIP3   OH274670   3.254   1.844   3.087  0.0190  0.9685 -0.0207
17752TIP3    H174671   3.313   1.775   3.056  1.1598  1.4234  1.0820
17752TIP3    H274672   3.292   1.925   3.053 -0.0146  1.2527  0.6195
17753TIP3   OH274673   5.250   3.742  16.956  0.1088 -0.1928  0.0708
17753TIP3    H174674   5.207   3.828  16.948 -0.7283 -0.4890  1.2713
17753TIP3    H274675   5.283   3.740  17.045 -1.1935 -1.7139  0.5450
17754TIP3   OH274676   6.768   4.913   3.426  0.5942  0.2150  0.4280
17754TIP3    H174677   6.854   4.930   3.465  0.8050 -0.6648  0.3554
17754TIP3    H274678   6.720   4.864   3.492  0.9964 -1.3892 -0.4319
17755TIP3   OH274679   2.378   1.398   1.593  0.1786 -0.2862  0.4274
17755TIP3    H174680   2.327   1.317   1.596  0.2623 -0.3621 -0.1203
17755TIP3    H274681   2.442   1.384   1.523 -0.0192  0.3747  0.1083
17756TIP3   OH274682   4.217   2.449   3.044  0.2311  0.2066 -0.0812
17756TIP3    H174683   4.283   2.380   3.051  1.2910  1.2564  0.6256
17756TIP3    H274684   4.218   2.474   2.951  0.0376 -0.5363 -0.2843
17757TIP3   OH274685   4.977   6.661   3.721 -0.4318 -0.4906  0.2303
17757TIP3    H174686   4.949   6.637   3.809 -0.4403 -0.7339  0.1598
17757TIP3    H274687   4.902   6.706   3.682  0.0607  0.9366  0.8701
17758TIP3   OH274688   1.655   2.534   2.508 -0.6636 -0.0384  0.6517
17758TIP3    H174689   1.727   2.582   2.550  1.3141 -1.7897 -0.6488
17758TIP3    H274690   1.693   2.502   2.426 -2.7500 -1.5547  0.2512
17759TIP3   OH274691   1.720   0.288   3.430  0.3029 -0.2421  0.6173
17759TIP3    H174692   1.694   0.198   3.411 -0.3885 -0.1764  1.2078
17759TIP3    H274693   1.796   0.279   3.487  0.2265 -0.4537  0.6875
17760TIP3   OH274694   3.817   1.962  15.912 -0.5018 -0.0163 -0.0849
17760TIP3    H174695   3.909   1.986  15.904 -0.7991  1.9869  1.8886
17760TIP3    H274696   3.804   1.894  15.847  2.3047 -0.1215 -0.5991
17761TIP3   OH274697   5.556   6.558   3.486 -0.4737 -0.3488  0.4129
17761TIP3    H174698   5.595   6.493   3.427  0.8491  0.1995  0.6622
17761TIP3    H274699   5.581   6.529   3.574 -0.9511 -0.2002  0.5986
17762TIP3   OH274700   5.910   6.767  16.371 -0.2665  0.1085  0.0415
17762TIP3    H174701   5.960   6.841  16.407  0.4973 -1.4993  2.4164
17762TIP3    H274702   5.967   6.731  16.303 -0.6062  1.6199 -1.0734
17763TIP3   OH274703   6.034   4.425   0.090  0.4692  0.1473  0.4065
17763TIP3    H174704   5.999   4.486   0.155  0.4182  0.6648 -0.1035
17763TIP3    H274705   6.121   4.457   0.071  1.4589 -1.4518  2.0763
17764TIP3   OH274706   6.748   5.728  13.785 -0.5456 -0.1021 -0.7454
17764TIP3    H174707   6.654   5.718  13.797 -0.5061  0.5395  0.0858
17764TIP3    H274708   6.771   5.660  13.722 -1.4376 -0.7574 -0.3710
17765TIP3   OH274709   2.086   4.009  14.882 -0.1519 -0.3059  0.6555
17765TIP3    H174710   2.019   4.068  14.916  2.1588  2.0986  1.2580
17765TIP3    H274711   2.088   4.025  14.788  0.4287  0.5660  0.8105
17766TIP3   OH274712   5.221   0.922   0.250 -0.3600 -0.6546  0.7274
17766TIP3    H174713   5.235   0.927   0.345  4.2535 -1.6659  0.2248
17766TIP3    H274714   5.239   1.010   0.219 -3.0899 -0.0156  0.8722
17767TIP3   OH274715   2.513   4.856  11.473 -0.2776 -0.1199 -0.3956
17767TIP3    H174716   2.421   4.879  11.457 -0.0116  1.0787 -0.2496
17767TIP3    H274717   2.511   4.763  11.494 -1.3479 -0.3234 -1.3559
17768TIP3   OH274718   3.624   5.416   0.350  0.1698 -1.1164 -0.3336
17768TIP3    H174719   3.612   5.340   0.407  1.2591  0.0352  1.4638
17768TIP3    H274720   3.537   5.455   0.344 -0.0840 -1.6208 -0.0055
17769TIP3   OH274721   4.893   0.202  13.585  0.5873  0.8501  0.4551
17769TIP3    H174722   4.833   0.258  13.536 -0.2536 -0.1644  0.2957
17769TIP3    H274723   4.915   0.252  13.664  1.9383  2.4892 -0.9182
17770TIP3   OH274724   4.861   6.760   2.519  0.4164 -0.2068 -0.2498
17770TIP3    H174725   4.937   6.707   2.539 -0.2482 -0.7103  0.9553
17770TIP3    H274726   4.794   6.732   2.581 -0.8498  0.0247 -1.4638
17771TIP3   OH274727   3.091   5.985  11.769  0.4438  0.1147 -0.0140
17771TIP3    H174728   2.999   6.003  11.787  0.1915  0.3622 -1.4803
17771TIP3    H274729   3.136   6.067  11.792  0.2104  0.2309  0.0319
17772TIP3   OH274730   2.960   3.239   4.617 -0.5733 -0.4612  0.3760
17772TIP3    H174731   2.908   3.198   4.686 -0.1698  0.1850  1.0647
17772TIP3    H274732   3.021   3.170   4.590 -2.5317 -1.6260 -1.2633
17773TIP3   OH274733   0.525   6.538  12.459 -0.3055 -0.1150 -0.3028
17773TIP3    H174734   0.465   6.593  12.509  0.1800  0.7852 -0.6857
17773TIP3    H274735   0.487   6.450  12.463 -0.3664 -0.0217  1.4585
17774TIP3   OH274736   3.022   0.084   1.708 -0.0225 -0.4533 -0.2076
17774TIP3    H174737   3.097   0.138   1.683  0.6208 -1.0161  0.4747
17774TIP3    H274738   2.980   0.062   1.625  0.0479  0.6066 -0.5294
17775TIP3   OH274739   2.568   2.427  11.927 -0.2429  0.8090 -0.0504
17775TIP3    H174740   2.526   2.341  11.915 -0.6028  0.9608  0.1165
17775TIP3    H274741   2.659   2.412  11.904  0.3181 -0.3148  2.6339
17776TIP3   OH274742   3.134   6.596   0.814  0.0456 -0.4092 -0.4800
17776TIP3    H174743   3.099   6.547   0.740  0.1681  0.7543 -1.3332
17776TIP3    H274744   3.059   6.608   0.873 -0.0969 -1.1809 -0.5088
17777TIP3   OH274745   3.098   4.261   5.066 -0.1399 -0.3709  0.0171
17777TIP3    H174746   3.098   4.250   4.971  0.1832  0.0755 -0.0354
17777TIP3    H274747   3.027   4.324   5.082 -0.1051 -0.3440  0.0600
17778TIP3   OH274748   0.512   1.450  16.976 -0.1816  0.3355 -0.0816
17778TIP3    H174749   0.591   1.505  16.966  0.4137 -0.4481  0.2773
17778TIP3    H274750   0.546   1.361  16.975 -0.7455  0.0635  3.2028
17779TIP3   OH274751   1.807   4.816   3.182  0.1191 -0.1033 -0.2828
17779TIP3    H174752   1.867   4.890   3.173 -1.4865  1.2852  0.0052
17779TIP3    H274753   1.777   4.820   3.273  0.6075 -1.5991 -0.0373
17780TIP3   OH274754   1.625   0.957  15.729 -0.1418  0.5712  0.3167
17780TIP3    H174755   1.638   1.029  15.668  0.3148  0.9187  0.8168
17780TIP3    H274756   1.587   0.886  15.676  1.8151  0.2711 -0.7350
17781TIP3   OH274757   3.679   3.531   4.774 -0.0462  0.0905 -0.3525
17781TIP3    H174758   3.768   3.529   4.810 -0.9053 -2.5687  1.8290
17781TIP3    H274759   3.686   3.488   4.689  0.2863 -2.9965  1.1601
17782TIP3   OH274760   3.045   0.124   3.631 -0.3539 -0.3024 -0.0604
17782TIP3    H174761   2.950   0.122   3.626 -0.3008 -0.3311 -1.0376
17782TIP3    H274762   3.072   0.033   3.621 -0.2492 -0.3744  0.8222
17783TIP3   OH274763   1.446   2.473   5.154 -0.3334 -0.6540 -0.5860
17783TIP3    H174764   1.444   2.550   5.210  3.6966 -1.4358  0.8065
17783TIP3    H274765   1.395   2.407   5.201 -1.1873  0.2028 -0.3022
17784TIP3   OH274766   0.179   1.984  17.112 -0.4119  0.5430 -0.0974
17784TIP3    H174767   0.232   2.052  17.154 -2.0211  0.9061  1.4018
17784TIP3    H274768   0.184   2.005  17.019 -0.7666  2.6614  0.3308
17785TIP3   OH274769   4.038   5.792  13.812 -0.5095 -0.1474  0.1291
17785TIP3    H174770   4.069   5.863  13.868 -2.7189  0.9667 -0.0054
17785TIP3    H274771   3.968   5.750  13.863 -0.2797 -1.2235 -0.4281
17786TIP3   OH274772   1.055   2.820  11.031 -0.0989 -0.1244  0.5417
17786TIP3    H174773   0.991   2.862  10.974  1.8450  2.7779  0.4222
17786TIP3    H274774   1.110   2.769  10.973 -0.2665  0.0159  0.2615
17787TIP3   OH274775   5.488   4.608   4.620  0.6168  0.7525  0.4617
17787TIP3    H174776   5.505   4.642   4.532 -0.3926 -0.1608 -0.1003
17787TIP3    H274777   5.571   4.569   4.647  0.2956 -1.0506 -1.0469
17788TIP3   OH274778   4.488   6.659   2.466  0.0783 -0.8186 -0.4774
17788TIP3    H174779   4.521   6.647   2.377  0.0910 -1.5674 -0.3702
17788TIP3    H274780   4.492   6.754   2.480 -1.8959 -0.4597 -2.0383
17789TIP3   OH274781   3.086   6.173   1.299 -0.0737 -0.3514  0.4732
17789TIP3    H174782   3.041   6.188   1.382  0.8086  0.7631  0.7688
17789TIP3    H274783   3.060   6.085   1.273 -3.2470  0.6115  0.1139
17790TIP3   OH274784   2.007   4.650   1.226 -0.3010  0.3275 -0.9761
17790TIP3    H174785   1.952   4.618   1.297 -0.9347 -0.4337 -1.7974
17790TIP3    H274786   1.986   4.743   1.220 -0.1860  0.4098 -0.1195
17791TIP3   OH274787   4.990   5.655  14.790 -0.0478 -0.7460  1.1409
17791TIP3    H174788   4.964   5.616  14.873  0.9872 -0.2165  1.7171
17791TIP3    H274789   5.004   5.748  14.810  0.5202 -0.6810  0.4481
17792TIP3   OH274790   1.291   3.347   2.938 -0.1015 -0.2428 -0.4194
17792TIP3    H174791   1.268   3.259   2.908 -3.2098  0.5980 -0.7315
17792TIP3    H274792   1.210   3.381   2.976  1.2727  2.1776  0.4705
17793TIP3   OH274793   6.343   3.752  14.762  0.1086 -0.2202  0.2988
17793TIP3    H174794   6.408   3.698  14.716 -0.1471  1.3687 -1.9626
17793TIP3    H274795   6.261   3.704  14.752  0.1792 -0.2137 -0.3312
17794TIP3   OH274796   1.852   0.368   2.761  0.0254  0.4519  0.3725
17794TIP3    H174797   1.892   0.423   2.694 -0.4620  0.2973 -0.0530
17794TIP3    H274798   1.924   0.314   2.794 -0.0897 -0.8461 -1.4010
17795TIP3   OH274799   0.631   4.553   6.001  0.6103 -0.6428 -0.7002
17795TIP3    H174800   0.715   4.530   5.961  0.5745 -0.3042 -0.9742
17795TIP3    H274801   0.640   4.527   6.093  0.8940 -0.9156 -0.8047
17796TIP3   OH274802   4.900   3.376  11.970  0.1651  0.1860 -0.3502
17796TIP3    H174803   4.807   3.356  11.984  0.5266 -0.1901  1.7806
17796TIP3    H274804   4.900   3.461  11.926 -1.2254 -0.8893 -2.4904
17797TIP3   OH274805   3.550   2.285   6.494 -0.3880  0.9654  0.5100
17797TIP3    H174806   3.526   2.363   6.444  0.1985  0.9210  0.1477
17797TIP3    H274807   3.583   2.319   6.577 -0.4829  1.0882  0.4967
17798TIP3   OH274808   2.698   3.302  13.473 -0.3076  0.2318  0.6451
17798TIP3    H174809   2.736   3.390  13.479 -0.1243  0.1479  0.7038
17798TIP3    H274810   2.740   3.253  13.543  0.2089 -0.1367  0.0797
17799TIP3   OH274811   5.954   2.138  10.511 -0.2571  0.7110 -0.2524
17799TIP3    H174812   6.049   2.144  10.500  0.0372 -0.4729  1.3797
17799TIP3    H274813   5.919   2.211  10.461  1.3979  0.0379 -2.4897
17800TIP3   OH274814   6.003   1.200   1.891 -0.4220 -0.0696  0.7414
17800TIP3    H174815   6.023   1.257   1.965  1.0071  1.2630 -0.6054
17800TIP3    H274816   5.958   1.257   1.828  0.3161 -0.5984 -0.2926
17801TIP3   OH274817   3.025   2.483  13.504  0.1752 -0.0960 -0.3438
17801TIP3    H174818   3.043   2.510  13.413  2.2965  3.3347  0.9951
17801TIP3    H274819   3.067   2.398  13.513  1.3016  0.2420 -2.1534
17802TIP3   OH274820   2.295   5.994  14.108 -0.4503 -0.0302 -0.2167
17802TIP3    H174821   2.333   6.082  14.120  0.9934 -0.3608 -2.0972
17802TIP3    H274822   2.203   6.004  14.131  0.0148  1.6389  1.0216
17803TIP3   OH274823   4.380   0.616   2.241  0.0851  0.1693 -0.0259
17803TIP3    H174824   4.348   0.706   2.229  0.0493  0.2520  0.6821
17803TIP3    H274825   4.464   0.615   2.195 -0.0150  0.5097 -0.2189
17804TIP3   OH274826   3.764   6.591   0.381  0.2130  0.0131  0.0057
17804TIP3    H174827   3.715   6.671   0.360  0.3333  0.3085  0.8462
17804TIP3    H274828   3.775   6.594   0.476  0.5974 -0.7876 -0.0137
17805TIP3   OH274829   0.089   1.131   2.708 -0.1408 -0.6322  0.1545
17805TIP3    H174830   0.037   1.091   2.639  0.5914 -0.8960 -0.2543
17805TIP3    H274831   0.046   1.104   2.790 -0.4883 -1.0605 -0.1654
17806TIP3   OH274832   3.046   3.656   2.769 -0.2990 -0.1929  0.4281
17806TIP3    H174833   3.006   3.689   2.849 -0.0457 -1.0868  0.9280
17806TIP3    H274834   3.108   3.724   2.743 -0.8235  0.3768  0.6442
17807TIP3   OH274835   4.017   2.964   1.526  0.1460 -0.2939 -0.3437
17807TIP3    H174836   3.955   2.892   1.517  1.7970 -1.8067  0.0055
17807TIP3    H274837   4.085   2.945   1.461  0.7912  0.7307  0.0264
17808TIP3   OH274838   4.342   2.165  15.621  0.1737 -0.3220 -0.3049
17808TIP3    H174839   4.347   2.257  15.646 -0.8400 -0.3040 -0.1361
17808TIP3    H274840   4.357   2.164  15.527 -0.5769  0.1094 -0.4350
17809TIP3   OH274841   4.928   3.007  15.250  0.4080  0.5423 -0.3207
17809TIP3    H174842   4.909   3.055  15.169 -0.4858  1.7951  0.6182
17809TIP3    H274843   4.920   3.073  15.319 -1.1058 -1.0042  1.0259
17810TIP3   OH274844   1.279   0.911  14.717 -0.2202 -0.0552  0.5119
17810TIP3    H174845   1.240   0.827  14.689 -0.0217 -0.5043  1.5612
17810TIP3    H274846   1.333   0.888  14.793  1.6860  0.6566 -0.5991
17811TIP3   OH274847   0.697   2.327   3.112 -0.2935 -0.3572  0.2864
17811TIP3    H174848   0.682   2.385   3.186 -2.4794  1.3777 -1.4433
17811TIP3    H274849   0.609   2.305   3.081  0.5782 -1.6934 -1.2852
17812TIP3   OH274850   4.256   3.123  10.845 -0.3700  0.0922 -0.2005
17812TIP3    H174851   4.259   3.046  10.902  0.3486  0.0170 -0.3364
17812TIP3    H274852   4.191   3.100  10.778 -0.8940  0.0069  0.3328
17813TIP3   OH274853   3.401   3.054   1.882  0.0978 -0.1993  0.4765
17813TIP3    H174854   3.376   3.130   1.934 -0.7535  0.8406 -1.3877
17813TIP3    H274855   3.489   3.074   1.851  0.5047 -0.7007  1.3193
17814TIP3   OH274856   3.419   0.455  16.132  0.5863 -0.1571 -0.3169
17814TIP3    H174857   3.462   0.418  16.209  0.3772 -0.0689 -0.1569
17814TIP3    H274858   3.327   0.431  16.142  0.7342 -1.0341 -1.0673
17815TIP3   OH274859   5.900   5.423   4.809  0.1830  0.6387 -0.3606
17815TIP3    H174860   5.911   5.493   4.873  1.6586  1.1918 -1.2178
17815TIP3    H274861   5.891   5.468   4.725  1.3106 -0.2083 -0.9407
17816TIP3   OH274862   2.941   3.038  11.001  0.1933 -0.6343  0.0550
17816TIP3    H174863   2.908   3.024  11.090 -0.6884 -0.3116 -0.2110
17816TIP3    H274864   2.868   3.080  10.955  1.5114  1.5385 -0.1494
17817TIP3   OH274865   0.538   1.867   2.244  0.5276 -0.5488  0.0025
17817TIP3    H174866   0.454   1.826   2.223  0.0914 -0.3199  1.2518
17817TIP3    H274867   0.601   1.823   2.187 -0.2334 -1.6638  0.0010
17818TIP3   OH274868   1.085   0.836   0.780 -0.1117 -0.1353 -0.0536
17818TIP3    H174869   1.123   0.825   0.867 -1.5685 -0.0158  0.6063
17818TIP3    H274870   1.088   0.749   0.741  0.8524 -0.1199 -0.0103
17819TIP3   OH274871   1.676   6.754   0.269 -0.2187 -0.2119  0.2288
17819TIP3    H174872   1.725   6.672   0.278  0.0912 -0.1916 -1.1580
17819TIP3    H274873   1.597   6.730   0.221 -0.3908  0.2084  0.3000
17820TIP3   OH274874   1.692   6.068  10.857 -0.2255 -0.0954 -0.0505
17820TIP3    H174875   1.679   6.014  10.779 -2.3732  0.2718  0.0304
17820TIP3    H274876   1.781   6.103  10.847  0.5313 -2.2134 -0.9782
17821TIP3   OH274877   6.772   4.728  13.996  0.2114 -0.0206  0.4805
17821TIP3    H174878   6.833   4.773  14.054 -2.3782  2.4697  1.4177
17821TIP3    H274879   6.780   4.775  13.912  0.7524 -0.7615  0.1112
17822TIP3   OH274880   5.815   0.788   3.107 -0.3053 -0.3981  0.6086
17822TIP3    H174881   5.853   0.754   3.188 -0.1124  0.7606  1.0070
17822TIP3    H274882   5.859   0.738   3.038  0.1506 -0.7960  1.1794
17823TIP3   OH274883   3.966   6.433   3.937 -0.3928 -0.0355 -0.2228
17823TIP3    H174884   3.881   6.439   3.893 -0.0889 -0.1098 -0.8292
17823TIP3    H274885   3.970   6.343   3.970 -0.2945 -0.2178 -0.7265
17824TIP3   OH274886   3.197   2.413  15.690 -0.2083  0.0880  0.3370
17824TIP3    H174887   3.219   2.399  15.598  1.5320 -0.8639  0.8694
17824TIP3    H274888   3.102   2.405  15.694 -0.4223  1.4576 -1.5921
17825TIP3   OH274889   0.521   3.528  14.175 -0.3163 -0.1433  0.5322
17825TIP3    H174890   0.497   3.607  14.127 -0.4537 -0.2768  0.3835
17825TIP3    H274891   0.564   3.473  14.110  0.2262  0.0177  0.7536
17826TIP3   OH274892   0.173   6.564   0.798 -0.2927 -0.2582 -0.2406
17826TIP3    H174893   0.258   6.524   0.818 -1.5649 -1.4990  2.9228
17826TIP3    H274894   0.189   6.658   0.803  1.1653 -0.4579 -0.8873
17827TIP3   OH274895   2.665   2.408   3.998  0.3352 -0.5084 -0.5812
17827TIP3    H174896   2.705   2.400   4.084  1.9177 -2.1957 -1.4372
17827TIP3    H274897   2.739   2.419   3.938 -0.7066  0.0873 -1.7717
17828TIP3   OH274898   0.060   1.273  15.948 -0.0651  0.6913  1.0019
17828TIP3    H174899   0.108   1.335  15.893  0.1908  0.3850  0.8822
17828TIP3    H274900  -0.002   1.231  15.888  0.8172 -0.2797  0.7608
17829TIP3   OH274901   5.743   0.453   3.151  0.5317  0.0699 -0.0031
17829TIP3    H174902   5.818   0.456   3.210  0.7152 -1.1195 -0.1424
17829TIP3    H274903   5.781   0.464   3.064  0.3355  1.1990  0.0475
17830TIP3   OH274904   6.314   6.223   6.546  0.0777  0.4324 -0.2649
17830TIP3    H174905   6.373   6.204   6.473 -0.9321  2.1418 -1.5758
17830TIP3    H274906   6.287   6.314   6.531  0.8031  1.2318  2.9321
17831TIP3   OH274907   1.455   5.846  12.980  0.3016 -0.7150  0.3060
17831TIP3    H174908   1.461   5.936  12.947  0.8018 -0.6673  0.5230
17831TIP3    H274909   1.364   5.837  13.007 -0.5025 -1.1962 -2.3570
17832TIP3   OH274910   2.772   3.448  12.861 -0.6089 -0.7087 -0.5623
17832TIP3    H174911   2.824   3.528  12.853 -2.7448  0.9282  1.4198
17832TIP3    H274912   2.712   3.451  12.787 -0.4473 -0.6590 -0.6921
17833TIP3   OH274913   2.240   1.994   4.158 -0.2768  0.0190  0.5334
17833TIP3    H174914   2.291   2.006   4.078 -0.7352 -0.3160  0.1909
17833TIP3    H274915   2.197   2.079   4.172  1.1162  0.6007  1.3469
17834TIP3   OH274916   3.362   1.265  15.746 -0.2073  0.5682 -0.6299
17834TIP3    H174917   3.323   1.271  15.659 -0.7316  0.1389 -0.4297
17834TIP3    H274918   3.299   1.310  15.803  0.5463  1.6032 -0.5991
17835TIP3   OH274919   2.858   4.827   2.234  0.6150 -0.2934  0.2905
17835TIP3    H174920   2.844   4.920   2.253  3.1537  0.2551 -0.3388
17835TIP3    H274921   2.868   4.823   2.139 -1.3817 -1.5048  0.1077
17836TIP3   OH274922   1.098   1.129  16.837  0.0915  0.0221  0.5392
17836TIP3    H174923   1.145   1.081  16.905 -1.0987  1.3069  2.3039
17836TIP3    H274924   1.098   1.220  16.867 -1.2646  0.4540 -0.6923
17837TIP3   OH274925   4.976   0.818   3.771  0.0924 -0.3820 -0.0180
17837TIP3    H174926   4.927   0.753   3.721 -2.3505  0.0452  1.7724
17837TIP3    H274927   4.988   0.778   3.857 -0.0764  0.9132  0.6206
17838TIP3   OH274928   1.636   6.369  12.451 -0.5207  0.3818  0.7263
17838TIP3    H174929   1.714   6.319  12.427 -1.8833 -2.6515  2.2374
17838TIP3    H274930   1.650   6.391  12.543 -0.7276  1.2623  0.5472
17839TIP3   OH274931   5.418   3.082  13.100  0.3936 -0.1866 -0.3315
17839TIP3    H174932   5.483   3.097  13.032  0.7711 -2.2182 -0.4421
17839TIP3    H274933   5.470   3.066  13.179  0.0246 -1.4112 -0.3315
17840TIP3   OH274934   2.510   3.931   3.477  0.4375 -0.3600 -0.0296
17840TIP3    H174935   2.490   3.929   3.571 -1.3887 -0.5996 -0.4134
17840TIP3    H274936   2.585   3.873   3.468  1.3154  0.4917  1.4288
17841TIP3   OH274937   5.590   2.596   0.641  0.5966  0.2655  0.0596
17841TIP3    H174938   5.595   2.504   0.667 -1.2087 -0.3663 -1.6548
17841TIP3    H274939   5.565   2.594   0.548  0.4075  2.4737  0.0192
17842TIP3   OH274940   1.977   1.502  14.291 -0.1001 -0.2526  0.6024
17842TIP3    H174941   1.903   1.452  14.256 -0.4577  1.4905 -1.2521
17842TIP3    H274942   1.955   1.516  14.383 -1.5878 -0.6756  0.3251
17843TIP3   OH274943   3.987   1.767   1.582 -0.1728  0.4018  0.8072
17843TIP3    H174944   3.893   1.749   1.586 -0.1653  0.9316  5.2073
17843TIP3    H274945   4.024   1.690   1.538 -2.4957 -0.2970 -0.0163
17844TIP3   OH274946   4.591   3.636  15.305 -0.3258  0.0696  0.3784
17844TIP3    H174947   4.596   3.708  15.243  0.5933  0.6452  1.0931
17844TIP3    H274948   4.537   3.669  15.377 -2.4515 -1.0385 -0.6688
17845TIP3   OH274949   1.897   3.032   2.282  0.6599  0.0892  0.2677
17845TIP3    H174950   1.827   3.093   2.306  0.7686 -0.7421  2.8269
17845TIP3    H274951   1.973   3.064   2.330  0.9919 -1.4147  0.7449
17846TIP3   OH274952   4.689   1.042   6.138  0.6463 -0.1810  0.0018
17846TIP3    H174953   4.729   1.126   6.115  0.5950  0.4363  2.0812
17846TIP3    H274954   4.759   0.978   6.125  0.6874  0.1632 -1.5954
17847TIP3   OH274955   1.635   6.066  12.373 -0.2381 -0.3037 -0.1113
17847TIP3    H174956   1.664   5.988  12.325  0.7005  0.4260 -0.7702
17847TIP3    H274957   1.551   6.089  12.334 -0.4825 -0.9346  0.0337
17848TIP3   OH274958   0.183   4.059   5.433 -0.0133 -0.0333  0.3472
17848TIP3    H174959   0.222   4.000   5.369  0.9123 -0.5643  1.3748
17848TIP3    H274960   0.179   4.007   5.514 -1.7496  0.4106  0.5734
17849TIP3   OH274961   6.586   3.726  13.124 -0.2952  0.0147 -0.3496
17849TIP3    H174962   6.538   3.745  13.043  0.7632  0.4235 -0.8811
17849TIP3    H274963   6.677   3.720  13.098  0.2240  1.4658  1.0254
17850TIP3   OH274964   5.098   6.123   3.963 -0.4133 -0.2503 -0.4436
17850TIP3    H174965   5.008   6.091   3.958 -1.2541  2.2277 -2.2066
17850TIP3    H274966   5.116   6.158   3.876  1.8098  0.4778  0.2721
17851TIP3   OH274967   6.171   4.761   5.167  0.4650 -0.1987 -0.0322
17851TIP3    H174968   6.223   4.834   5.135  0.8559  0.8960  2.9027
17851TIP3    H274969   6.089   4.800   5.196 -0.2484 -1.2713 -0.5974
17852TIP3   OH274970   1.796   6.498   1.750 -0.6620  0.2048  0.2591
17852TIP3    H174971   1.789   6.589   1.723  0.6884  0.0672 -0.5969
17852TIP3    H274972   1.879   6.468   1.713 -1.3449 -1.5314  0.0664
17853TIP3   OH274973   2.980   1.372   5.804  0.4123 -0.4807  0.4715
17853TIP3    H174974   3.035   1.310   5.756 -0.7250  0.4984 -2.1506
17853TIP3    H274975   2.910   1.318   5.841  0.3337 -0.9952 -0.4197
17854TIP3   OH274976   4.354   1.830  15.785 -0.3897  0.0278  0.3873
17854TIP3    H174977   4.354   1.844  15.691 -1.9750  1.0274  0.5153
17854TIP3    H274978   4.446   1.825  15.809  0.0442  0.7716 -1.0652
17855TIP3   OH274979   0.732   0.598   2.545 -0.0358  0.2424 -0.7330
17855TIP3    H174980   0.716   0.505   2.559 -1.6153  0.3869 -1.4775
17855TIP3    H274981   0.651   0.641   2.572  1.1277  1.5285  0.7835
17856TIP3   OH274982   0.030   2.726   1.307  0.4014  0.1957  0.5032
17856TIP3    H174983  -0.019   2.792   1.357 -0.8712  0.1441 -0.6545
17856TIP3    H274984   0.053   2.660   1.372 -1.5467 -0.0593  0.9778
17857TIP3   OH274985   5.376   3.184  13.745 -0.0335 -0.9920 -0.0949
17857TIP3    H174986   5.318   3.187  13.669 -0.1697  0.4448  0.0458
17857TIP3    H274987   5.463   3.167  13.708 -0.3267 -1.8013 -0.4288
17858TIP3   OH274988   1.481   0.940  11.224 -0.1756 -0.1198 -0.3009
17858TIP3    H174989   1.479   0.935  11.128  0.2586 -0.8338 -0.2705
17858TIP3    H274990   1.403   0.892  11.252 -0.2718  0.0409 -0.2905
17859TIP3   OH274991   2.427   3.397   1.681 -0.0594  0.5179  0.4812
17859TIP3    H174992   2.442   3.487   1.652 -0.6219 -0.1473 -1.9469
17859TIP3    H274993   2.341   3.400   1.724 -0.8974  0.7902 -1.1951
17860TIP3   OH274994   0.073   3.377   1.754 -0.4841  0.2038  0.2619
17860TIP3    H174995   0.012   3.371   1.680 -0.4667 -1.0223  0.3489
17860TIP3    H274996   0.147   3.322   1.729 -0.2204  0.2442  0.9493
17861TIP3   OH274997   4.270   1.829  15.532 -0.5513  0.1923 -0.5028
17861TIP3    H174998   4.258   1.734  15.530  0.0218  0.1234 -0.9885
17861TIP3    H274999   4.264   1.855  15.440  0.8766  0.4189 -0.5472
17862TIP3   OH275000   5.908   4.571   4.976 -0.4492  0.1733  0.3876
17862TIP3    H175001   5.865   4.517   5.042  3.0544  0.6017  3.1726
17862TIP3    H275002   5.891   4.661   5.004 -0.8710  0.4076 -0.6078
17863TIP3   OH275003   3.931   0.425   1.742 -0.4821  0.5215 -0.1434
17863TIP3    H175004   3.843   0.459   1.759 -1.1217 -1.2603  0.2655
17863TIP3    H275005   3.917   0.340   1.701  1.0090 -0.7050  1.7579
17864TIP3   OH275006   2.583   3.123  16.632 -0.3447 -0.1914 -0.1563
17864TIP3    H175007   2.560   3.187  16.699  1.6305  0.7355 -0.3514
17864TIP3    H275008   2.674   3.102  16.648 -1.1700 -3.6226  0.4100
17865TIP3   OH275009   3.551   4.471  12.051  0.2688 -0.7942  0.1587
17865TIP3    H175010   3.480   4.486  11.989 -0.7030 -1.5687  1.0739
17865TIP3    H275011   3.613   4.542  12.034 -0.4724 -0.4120 -0.9914
17866TIP3   OH275012   2.746   0.120  14.342 -0.4178 -1.1632 -0.6597
17866TIP3    H175013   2.789   0.135  14.427 -2.3345  1.8178 -0.1484
17866TIP3    H275014   2.798   0.171  14.280 -0.7013 -1.0078 -0.7689
17867TIP3   OH275015   0.147   3.029  12.413 -0.1262 -0.0659  0.3957
17867TIP3    H175016   0.112   3.106  12.459 -1.0104 -0.9077  1.1560
17867TIP3    H275017   0.234   3.015  12.451  0.1331  0.6941  0.0911
17868TIP3   OH275018   2.794   2.596   3.609  0.5807 -0.5844 -0.1574
17868TIP3    H175019   2.766   2.509   3.639 -0.7299 -0.2318 -0.3212
17868TIP3    H275020   2.749   2.608   3.525  1.5411 -0.1531 -0.6195
17869TIP3   OH275021   1.278   3.466   4.827  0.1298  0.2711 -0.5981
17869TIP3    H175022   1.268   3.388   4.772  0.6928 -0.1577 -0.1092
17869TIP3    H275023   1.189   3.499   4.838 -0.1093 -0.2703 -0.8636
17870TIP3   OH275024   0.744   0.697  10.858  0.0866 -0.1273  0.3259
17870TIP3    H175025   0.765   0.767  10.797  1.1788 -0.8022 -0.0961
17870TIP3    H275026   0.772   0.731  10.944  0.4175  0.0406  0.1544
17871TIP3   OH275027   4.243   3.156   6.074  0.4960 -0.2323 -0.0063
17871TIP3    H175028   4.239   3.187   5.983  0.2739  0.5870  0.2774
17871TIP3    H275029   4.214   3.065   6.069  1.5018 -0.5208 -0.9069
17872TIP3   OH275030   3.157   0.393  10.506  0.3943  0.0829 -0.0157
17872TIP3    H175031   3.144   0.325  10.441  1.9035 -0.1334 -0.1007
17872TIP3    H275032   3.094   0.462  10.482 -1.4558 -1.4407  0.3472
17873TIP3   OH275033   2.840   1.632   4.885  0.5559  0.1003 -0.3339
17873TIP3    H175034   2.809   1.665   4.801  0.8306  0.0207 -0.4638
17873TIP3    H275035   2.934   1.646   4.884  0.4872  0.5972  0.1829
17874TIP3   OH275036   4.490   1.461  13.281 -0.1295 -0.5828  0.1181
17874TIP3    H175037   4.553   1.513  13.331  0.2933 -1.0906  0.1124
17874TIP3    H275038   4.437   1.527  13.235 -0.3031 -0.1266  0.9560
17875TIP3   OH275039   2.358   3.097   3.399 -0.1535 -0.2243  0.1281
17875TIP3    H175040   2.296   3.025   3.387  1.9402 -1.8782 -1.1862
17875TIP3    H275041   2.397   3.110   3.313  1.9182  0.1967  1.1043
17876TIP3   OH275042   4.966   5.706   2.104  0.1990  0.1831 -0.3799
17876TIP3    H175043   4.885   5.655   2.110 -0.9782  2.0809  0.4573
17876TIP3    H275044   5.036   5.640   2.098 -1.3581 -1.4853 -0.6343
17877TIP3   OH275045   6.638   3.930   4.192  0.5935 -0.2623  0.4486
17877TIP3    H175046   6.588   3.905   4.114 -1.0104 -1.5499  1.8317
17877TIP3    H275047   6.592   4.007   4.226  0.1806 -0.7954  1.1185
17878TIP3   OH275048   4.085   0.523  17.018  0.1466  0.3951 -0.0858
17878TIP3    H175049   4.091   0.592  16.951 -4.2198 -0.9295 -2.0548
17878TIP3    H275050   4.089   0.441  16.969  2.8984 -0.7884  1.9829
17879TIP3   OH275051   3.055   5.417  13.064 -0.4498  0.1461  0.2877
17879TIP3    H175052   3.034   5.407  13.157  0.0207 -0.7862  0.3004
17879TIP3    H275053   3.111   5.341  13.044 -1.7016 -0.4266 -1.0911
17880TIP3   OH275054   0.747   2.553   3.682 -0.0196  0.4017  0.6881
17880TIP3    H175055   0.840   2.537   3.699  1.3278  3.0992 -3.4398
17880TIP3    H275056   0.723   2.622   3.745  1.3966  1.2606  0.3187
17881TIP3   OH275057   4.516   3.878   5.401 -0.4154  0.0054 -0.0787
17881TIP3    H175058   4.430   3.854   5.435  0.3621 -0.2966  1.7530
17881TIP3    H275059   4.514   3.974   5.394 -0.8173  0.0155  0.1944
17882TIP3   OH275060   3.649   1.352   1.084 -0.2940 -0.0299 -0.0733
17882TIP3    H175061   3.581   1.358   1.017 -0.5059  0.8847  0.2192
17882TIP3    H275062   3.717   1.297   1.044 -1.1990 -0.9724 -0.3602
17883TIP3   OH275063   1.617   5.751   1.891  0.1691 -0.0007 -0.1107
17883TIP3    H175064   1.689   5.810   1.915 -0.2915  0.4733  0.1267
17883TIP3    H275065   1.538   5.804   1.904 -0.1659 -0.1382 -1.4453
17884TIP3   OH275066   2.915   0.227  15.349  0.4864  0.2334 -0.2464
17884TIP3    H175067   2.968   0.283  15.405  1.5784  0.2231 -1.2418
17884TIP3    H275068   2.859   0.179  15.409  0.1651  1.7460  0.6751
17885TIP3   OH275069   1.291   6.343  14.133 -0.5028 -0.0643 -0.1958
17885TIP3    H175070   1.202   6.377  14.125 -0.3010  0.2359 -1.3083
17885TIP3    H275071   1.280   6.254  14.164 -1.1312  0.3961  0.9176
17886TIP3   OH275072   1.590   6.447   4.644 -0.2932  0.1429  0.0841
17886TIP3    H175073   1.625   6.394   4.715 -1.5846  0.0440  0.6519
17886TIP3    H275074   1.609   6.397   4.565  1.0491  0.2066  0.3552
17887TIP3   OH275075   5.556   5.791   4.364  0.1157  0.3123 -0.1164
17887TIP3    H175076   5.505   5.719   4.402 -0.3685  0.7305  0.0311
17887TIP3    H275077   5.637   5.793   4.415 -0.9997  1.5778  1.6260
17888TIP3   OH275078   6.102   1.326  10.655  0.2035 -0.2229 -0.5251
17888TIP3    H175079   6.078   1.418  10.653  1.2087  0.0391 -0.9333
17888TIP3    H275080   6.197   1.325  10.639 -0.0030 -1.3893 -1.8121
17889TIP3   OH275081   1.640   6.289  11.117 -0.1202 -0.1852  0.0258
17889TIP3    H175082   1.587   6.219  11.078  0.5906 -1.4000  1.1861
17889TIP3    H275083   1.727   6.249  11.128  0.7058  1.3770 -0.7137
17890TIP3   OH275084   6.282   0.380   3.202 -0.3752 -0.6925  0.3583
17890TIP3    H175085   6.271   0.435   3.125 -0.6337  0.0803  0.9320
17890TIP3    H275086   6.258   0.437   3.275 -1.8532 -1.9398  0.8791
17891TIP3   OH275087   2.712   1.296  14.412 -0.2196  0.2563  0.1462
17891TIP3    H175088   2.805   1.293  14.434 -0.5005 -1.4197  1.2132
17891TIP3    H275089   2.701   1.230  14.343 -0.6864  0.1035  0.3581
17892TIP3   OH275090   1.590   5.835   5.254 -0.4000  0.1638 -0.2484
17892TIP3    H175091   1.593   5.740   5.242  0.0500  0.1718 -0.2165
17892TIP3    H275092   1.671   5.856   5.301 -1.3726  0.3380  1.3759
17893TIP3   OH275093   1.730   2.089   5.520  0.0886 -0.6178 -0.1412
17893TIP3    H175094   1.752   2.135   5.439 -0.0567  0.2014  0.2737
17893TIP3    H275095   1.802   2.110   5.579  0.7107 -2.0567 -0.3799
17894TIP3   OH275096   2.414   3.313   2.670 -0.0844 -1.2122 -0.1328
17894TIP3    H175097   2.435   3.301   2.763  1.1183  0.0138 -0.2453
17894TIP3    H275098   2.447   3.234   2.628  0.9281 -0.9891  0.2325
17895TIP3   OH275099   2.920   0.230   2.863 -0.3391 -0.0998 -0.6765
17895TIP3    H175100   2.989   0.224   2.796 -0.1071  1.1085 -0.5543
17895TIP3    H275101   2.855   0.290   2.826 -2.5710 -3.1265 -1.8469
17896TIP3   OH275102   4.329   4.288  12.925 -0.0063 -0.2254 -0.0352
17896TIP3    H175103   4.372   4.352  12.982 -0.8809 -0.6941  1.1744
17896TIP3    H275104   4.401   4.244  12.880  0.7323 -0.1669  1.0590
17897TIP3   OH275105   1.382   3.263   2.248  0.3043 -0.2920 -0.8533
17897TIP3    H175106   1.447   3.334   2.247  0.6018 -0.5554 -0.5237
17897TIP3    H275107   1.300   3.305   2.274  0.6867 -0.2304  0.3115
17898TIP3   OH275108   0.114   2.119  13.747  0.1892  0.2957  0.3299
17898TIP3    H175109   0.028   2.160  13.745 -0.3020 -0.7780 -1.4429
17898TIP3    H275110   0.176   2.191  13.732 -0.5442  0.6771 -0.8543
17899TIP3   OH275111   6.758   0.244   0.605  0.2652 -0.1766 -0.0931
17899TIP3    H175112   6.732   0.309   0.540 -1.0519 -1.3190 -0.7326
17899TIP3    H275113   6.845   0.216   0.578 -0.0573 -0.2552 -1.0645
17900TIP3   OH275114   6.418   4.245  17.123  0.8785 -0.3418  0.4584
17900TIP3    H175115   6.397   4.338  17.131  0.1839 -0.5335  0.9899
17900TIP3    H275116   6.428   4.215  17.214  2.1036 -0.5611  0.2503
17901TIP3   OH275117   5.141   5.730   5.035 -0.3439 -0.1799 -0.3686
17901TIP3    H175118   5.210   5.711   4.972 -0.0140 -0.1529 -0.0182
17901TIP3    H275119   5.061   5.696   4.994 -0.1813  0.1215 -0.9310
17902TIP3   OH275120   4.575   2.488  16.280 -0.0956  0.4403 -0.5219
17902TIP3    H175121   4.546   2.579  16.271 -0.0880  0.4634 -0.3210
17902TIP3    H275122   4.494   2.438  16.287 -0.0945  0.4744 -0.2426
17903TIP3   OH275123   3.271   6.391  13.551  0.1918 -0.3909  0.4402
17903TIP3    H175124   3.195   6.423  13.599  1.7731  2.3399  1.2134
17903TIP3    H275125   3.344   6.400  13.613  2.2739  3.2057 -2.4051
17904TIP3   OH275126   1.094   6.779  17.078  0.6431 -0.0632 -0.1050
17904TIP3    H175127   1.139   6.846  17.128 -0.2434  0.7096 -0.3264
17904TIP3    H275128   1.002   6.786  17.107  0.6801 -1.7094  0.4683
17905TIP3   OH275129   6.364   5.610  15.340 -0.5685  0.0281  0.2886
17905TIP3    H175130   6.372   5.684  15.280 -0.0052 -0.4604 -0.2494
17905TIP3    H275131   6.286   5.563  15.310 -0.3618 -0.1433  0.0141
17906TIP3   OH275132   5.160   5.393   4.930 -0.0479  0.2130  0.1595
17906TIP3    H175133   5.155   5.324   4.996  0.4023 -1.6010 -1.6272
17906TIP3    H275134   5.070   5.408   4.903 -0.2357  0.9913  1.2080
17907TIP3   OH275135   5.816   4.283  12.055 -0.1171 -0.2444 -0.2496
17907TIP3    H175136   5.739   4.339  12.069  1.3472  1.0989  3.0021
17907TIP3    H275137   5.876   4.337  12.004 -0.6916 -0.7601 -1.5058
17908TIP3   OH275138   3.308   6.409  11.431  0.0054 -0.3112 -0.2291
17908TIP3    H175139   3.321   6.334  11.374 -0.4493 -0.7730  0.2597
17908TIP3    H275140   3.213   6.419  11.436  0.0231 -0.5145  0.7358
17909TIP3   OH275141   0.888   3.351  15.320 -0.2168  0.4307 -0.3015
17909TIP3    H175142   0.898   3.268  15.273  2.1321  1.2495 -1.3259
17909TIP3    H275143   0.815   3.395  15.276 -1.0392 -0.8027 -0.1840
17910TIP3   OH275144   3.857   6.048  15.594 -0.4097 -0.2688  0.0134
17910TIP3    H175145   3.763   6.034  15.580 -0.3142 -0.1922 -0.7706
17910TIP3    H275146   3.863   6.091  15.679 -1.2110  1.2911 -0.7163
17911TIP3   OH275147   5.880   2.187  12.357 -0.5232 -0.5886  0.3059
17911TIP3    H175148   5.918   2.132  12.288  0.1826  0.3742 -0.0740
17911TIP3    H275149   5.952   2.201  12.418 -0.3068  1.0504 -0.3006
17912TIP3   OH275150   2.098   5.870   0.674  0.1532  0.5119  0.7073
17912TIP3    H175151   2.130   5.882   0.763  0.6451  0.5665  0.5257
17912TIP3    H275152   2.003   5.878   0.681  0.2392  1.2971  1.1067
17913TIP3   OH275153   0.726   2.883  14.454  0.0983  0.7700  0.0673
17913TIP3    H175154   0.695   2.816  14.393  0.0470  0.3257  0.5763
17913TIP3    H275155   0.647   2.912  14.500 -0.0343  1.9198 -0.8724
17914TIP3   OH275156   0.607   6.594   1.055  0.0984  0.4535 -0.6340
17914TIP3    H175157   0.666   6.665   1.079  2.1861 -1.2276 -0.6205
17914TIP3    H275158   0.552   6.581   1.132  2.1742 -0.3644  0.7575
17915TIP3   OH275159   3.240   0.701  14.621 -0.0457 -0.7402 -0.1024
17915TIP3    H175160   3.155   0.699  14.665  0.0028  1.1783  0.1403
17915TIP3    H275161   3.248   0.615  14.580 -1.1759 -1.6820  1.5981
17916TIP3   OH275162   1.920   6.781  12.878 -0.6767  0.4568 -0.7289
17916TIP3    H175163   2.015   6.789  12.869 -0.5244 -0.2329  0.2043
17916TIP3    H275164   1.907   6.744  12.965 -1.6521 -2.4178 -2.0279
17917TIP3   OH275165   6.581   1.455   1.089 -0.4423 -0.3735 -0.3840
17917TIP3    H175166   6.556   1.440   0.998  0.8021 -0.4303 -0.7302
17917TIP3    H275167   6.543   1.540   1.111 -0.7677 -0.3727 -0.9459
17918TIP3   OH275168   6.276   0.617  13.872  0.0144 -0.3454  0.2073
17918TIP3    H175169   6.290   0.599  13.965  1.2328  0.4816  0.1950
17918TIP3    H275170   6.181   0.631  13.865  0.1145  1.1731  1.6141
17919TIP3   OH275171   1.189   3.284   4.324  0.4651 -0.9170 -0.5232
17919TIP3    H175172   1.119   3.346   4.304 -0.1533 -1.3971  0.1565
17919TIP3    H275173   1.269   3.338   4.324 -0.1930  0.1176  1.1975
17920TIP3   OH275174   4.538   3.903   4.417 -0.1810 -0.5287  0.4650
17920TIP3    H175175   4.521   3.905   4.512  0.3569 -1.3790  0.5797
17920TIP3    H275176   4.591   3.825   4.403  0.7965  0.2664 -0.3782
17921TIP3   OH275177   6.005   4.875   0.477 -1.0004  0.8941  0.0981
17921TIP3    H175178   5.928   4.870   0.533  0.2996 -0.2578  1.8489
17921TIP3    H275179   6.063   4.806   0.510  0.0318  0.5525 -2.3347
17922TIP3   OH275180   3.602   2.446   1.588  0.6592 -0.2905  0.3122
17922TIP3    H175181   3.567   2.503   1.656 -0.1316 -2.8459  2.1158
17922TIP3    H275182   3.673   2.398   1.632  0.5345 -1.5381 -0.8285
17923TIP3   OH275183   4.762   0.004  14.696  0.0798 -0.0692 -0.2132
17923TIP3    H175184   4.668  -0.012  14.688  1.0121 -5.0164 -2.7041
17923TIP3    H275185   4.784   0.055  14.618 -0.6605  2.2510  1.0321
17924TIP3   OH275186   2.482   5.544   3.474 -0.1257 -0.6134  0.4662
17924TIP3    H175187   2.550   5.545   3.542  1.4888  1.6498 -1.1010
17924TIP3    H275188   2.449   5.634   3.473  1.8631  0.1775 -3.6141
17925TIP3   OH275189   2.500   1.039   0.577  0.4607  0.6072  0.4506
17925TIP3    H175190   2.513   0.988   0.496 -0.6537  0.1806  0.5274
17925TIP3    H275191   2.423   0.999   0.618  0.0746  1.8312  0.9357
17926TIP3   OH275192   0.602   6.080   4.751 -0.4622  0.1745  0.5598
17926TIP3    H175193   0.559   6.142   4.692  2.9540  1.9000 -0.2414
17926TIP3    H275194   0.627   6.007   4.694  2.2284  1.5344 -0.0805
17927TIP3   OH275195   1.777   4.926   2.703 -0.4678  0.0579 -0.0125
17927TIP3    H175196   1.781   5.020   2.682  0.7787 -0.3059 -1.5082
17927TIP3    H275197   1.721   4.889   2.635  0.1621 -0.4908 -0.2373
17928TIP3   OH275198   5.057   3.490  15.427 -0.1578 -0.4965  0.6920
17928TIP3    H175199   5.012   3.519  15.505 -0.7114 -1.7537  0.8629
17928TIP3    H275200   4.988   3.481  15.361  0.6139  2.7583 -0.6362
17929TIP3   OH275201   5.868   2.796  12.469  0.5862 -0.5022 -0.6077
17929TIP3    H175202   5.924   2.871  12.491  0.8761 -1.2727  1.4051
17929TIP3    H275203   5.783   2.835  12.448  1.0942  0.4807 -0.8740
17930TIP3   OH275204   4.157   0.473  10.773 -0.5408  0.1382 -0.2619
17930TIP3    H175205   4.200   0.546  10.729  0.0909  0.4920  0.9035
17930TIP3    H275206   4.134   0.507  10.859 -1.2318 -0.7062 -0.1071
17931TIP3   OH275207   4.040   6.113  14.576  0.1580  0.1307 -0.1282
17931TIP3    H175208   4.068   6.141  14.489 -0.9912  2.0696  0.0826
17931TIP3    H275209   4.119   6.120  14.630  0.4326  0.8099 -0.6043
17932TIP3   OH275210   3.181   5.876   3.701  0.1871 -0.2473 -0.2841
17932TIP3    H175211   3.181   5.860   3.606 -0.6676 -2.9925  0.1448
17932TIP3    H275212   3.193   5.789   3.740  4.2817  1.2596  2.1044
17933TIP3   OH275213   1.628   3.719  11.978 -0.1691 -0.0337 -0.3445
17933TIP3    H175214   1.540   3.684  11.963 -0.5945  0.5523  0.7171
17933TIP3    H275215   1.659   3.743  11.891 -0.9487 -0.5222 -0.7646
17934TIP3   OH275216   0.366   2.137   4.342 -0.5244 -0.2125 -0.6518
17934TIP3    H175217   0.299   2.192   4.302 -0.4450 -1.0498 -1.9485
17934TIP3    H275218   0.436   2.132   4.276  0.4666 -0.0086  0.3608
17935TIP3   OH275219   1.078   1.328  16.170  0.1853 -0.4712  0.2429
17935TIP3    H175220   0.985   1.341  16.149  0.1685 -0.5493  0.2698
17935TIP3    H275221   1.082   1.331  16.265  0.3732  0.6746  0.2066
17936TIP3   OH275222   0.258   2.084   0.203 -0.3253 -0.0984  0.4095
17936TIP3    H175223   0.229   1.994   0.185 -1.1208  0.1322  0.5038
17936TIP3    H275224   0.192   2.139   0.161  0.7147  0.4521 -0.5267
17937TIP3   OH275225   0.660   3.839   3.674 -0.1241 -0.3207  0.0266
17937TIP3    H175226   0.664   3.870   3.583  0.2033  2.5476  0.9777
17937TIP3    H275227   0.591   3.892   3.714 -1.1246 -2.4403  1.1523
17938TIP3   OH275228   2.841   0.717  16.294  0.4923  0.0328 -0.4306
17938TIP3    H175229   2.834   0.810  16.274 -0.1073 -0.3735 -2.2215
17938TIP3    H275230   2.933   0.696  16.280  0.8796  0.5947  1.1609
17939TIP3   OH275231   6.382   1.764  12.750  0.8093  0.5444 -0.4376
17939TIP3    H175232   6.354   1.696  12.688 -0.8105 -0.0772  0.9586
17939TIP3    H275233   6.314   1.766  12.816  1.1113  3.1767 -0.1596
17940TIP3   OH275234   6.628   1.748  13.064 -0.1405  0.5102 -0.2626
17940TIP3    H175235   6.657   1.835  13.092  0.5820  0.4332 -0.7620
17940TIP3    H275236   6.639   1.692  13.140 -0.3206  0.7925 -0.0294
17941TIP3   OH275237   1.679   4.672  16.155 -0.0636  0.4436 -0.0847
17941TIP3    H175238   1.663   4.761  16.187  0.1441  0.0469  1.1425
17941TIP3    H275239   1.595   4.628  16.165 -0.0523  0.3778 -0.2830
17942TIP3   OH275240   5.711   3.725   3.987 -0.2234  0.4366  0.2068
17942TIP3    H175241   5.745   3.804   3.945 -0.1837  0.2837 -0.0541
17942TIP3    H275242   5.716   3.658   3.919  1.7288 -0.3065  1.0677
17943TIP3   OH275243   2.707   4.379   1.587 -0.2592  0.1424 -0.1321
17943TIP3    H175244   2.624   4.390   1.634 -0.1469 -0.0963  0.1277
17943TIP3    H275245   2.696   4.297   1.538 -1.1203  1.4233 -2.1165
17944TIP3   OH275246   2.830   4.513  13.881 -0.4946 -0.4090  0.9982
17944TIP3    H175247   2.847   4.496  13.974  0.2016 -0.9771  0.7751
17944TIP3    H275248   2.850   4.430  13.838  0.5075  0.2454  0.1834
17945TIP3   OH275249   1.037   3.524   3.780 -0.5134  0.0863 -0.5798
17945TIP3    H175250   1.001   3.467   3.711 -0.2533  0.6684 -1.1986
17945TIP3    H275251   1.110   3.473   3.817 -1.2125 -0.5987 -0.1299
17946TIP3   OH275252   3.376   4.860  14.566  0.8278  0.2714 -0.6321
17946TIP3    H175253   3.312   4.931  14.566  0.0096 -0.4508 -0.5989
17946TIP3    H275254   3.355   4.810  14.487  0.3172 -0.8798  0.2291
17947TIP3   OH275255   2.387   1.681   2.359 -0.0095 -0.0019 -0.3086
17947TIP3    H175256   2.412   1.772   2.368 -0.7659  0.1282  0.4973
17947TIP3    H275257   2.460   1.632   2.397  0.5135  0.2530 -0.9816
17948TIP3   OH275258   5.842   3.356  13.882 -0.6749  0.0329  0.4654
17948TIP3    H175259   5.847   3.448  13.909  0.0176  0.3882 -0.8595
17948TIP3    H275260   5.785   3.316  13.948 -1.0977  1.4278  0.9845
17949TIP3   OH275261   6.176   1.993  14.118  0.0361 -0.3994 -0.1151
17949TIP3    H175262   6.248   2.022  14.062 -1.5055  0.2755 -1.7994
17949TIP3    H275263   6.206   1.910  14.155  0.9283 -1.0546 -2.2634
17950TIP3   OH275264   4.068   1.782   1.871  0.1301  0.4459  0.0676
17950TIP3    H175265   4.063   1.757   1.778  0.0134 -0.4330  0.3002
17950TIP3    H275266   3.993   1.839   1.884  0.3003  0.7903 -0.4471
17951TIP3   OH275267   6.391   1.747   5.024  0.7103 -0.3567  0.0579
17951TIP3    H175268   6.430   1.669   4.983 -1.2319 -0.6117 -1.3528
17951TIP3    H275269   6.446   1.820   4.992  0.0376 -0.7047 -1.9760
17952TIP3   OH275270   3.283   2.575  12.141 -0.0574  0.3767 -0.1892
17952TIP3    H175271   3.336   2.588  12.062 -0.5228 -1.8379 -0.9095
17952TIP3    H275272   3.345   2.582  12.213  0.9326 -0.5681 -0.9296
17953TIP3   OH275273   1.807   1.853   5.252  0.5027 -0.5653 -0.8630
17953TIP3    H175274   1.731   1.872   5.197  2.1628 -0.5312 -3.2458
17953TIP3    H275275   1.810   1.757   5.255 -0.1526 -0.5597 -0.0160
17954TIP3   OH275276   6.558   3.471   5.706  0.3231 -0.3010 -0.4280
17954TIP3    H175277   6.474   3.451   5.664  0.8816  0.1213 -1.7692
17954TIP3    H275278   6.535   3.525   5.782 -0.5013  1.2321 -1.7376
17955TIP3   OH275279   5.999   4.692  13.828  0.1943 -0.3757 -0.2061
17955TIP3    H175280   6.085   4.657  13.854  0.0159 -0.0268  0.8912
17955TIP3    H275281   6.016   4.782  13.801  0.0148  0.0902  1.1662
17956TIP3   OH275282   2.774   1.375  10.875  0.0821 -0.6468  0.1989
17956TIP3    H175283   2.710   1.304  10.877  0.7165 -1.2060  1.0624
17956TIP3    H275284   2.832   1.357  10.949  2.6732 -1.5082 -1.9607
17957TIP3   OH275285   3.472   0.415   4.867 -0.0976 -0.1431  0.1017
17957TIP3    H175286   3.538   0.395   4.934 -0.3274  1.0022  0.6724
17957TIP3    H275287   3.523   0.428   4.787  0.2569 -0.5461  0.2566
17958TIP3   OH275288   2.520   2.405  15.408  0.1028 -0.4355  0.5567
17958TIP3    H175289   2.454   2.385  15.341 -0.2218  1.7236  0.1846
17958TIP3    H275290   2.591   2.343  15.390 -0.1932 -0.2285 -1.4759
17959TIP3   OH275291   5.169   0.061  12.629 -0.0757  0.5319 -0.2624
17959TIP3    H175292   5.138  -0.004  12.692 -0.0836  1.7579  1.0205
17959TIP3    H275293   5.125   0.038  12.547 -1.5547  0.0805  0.6506
17960TIP3   OH275294   6.239   5.320   0.657  0.1174  0.1820 -1.0308
17960TIP3    H175295   6.187   5.267   0.597 -1.4561 -1.7195  1.8732
17960TIP3    H275296   6.313   5.264   0.680  0.2745  0.5624 -0.6080
17961TIP3   OH275297   4.379   1.413  14.903  0.4241  0.4336  0.2887
17961TIP3    H175298   4.301   1.432  14.851  0.0322  2.1926  1.4891
17961TIP3    H275299   4.435   1.490  14.892  1.4702 -0.2832  0.4299
17962TIP3   OH275300   4.914   4.329   2.815 -0.8781 -0.0493  0.1261
17962TIP3    H175301   4.981   4.341   2.882  0.6839  0.2699 -1.4633
17962TIP3    H275302   4.879   4.242   2.832 -0.5260  0.0342  1.3555
17963TIP3   OH275303   2.915   2.642   3.046 -0.1917  0.5096  0.4240
17963TIP3    H175304   2.932   2.718   2.991 -0.1840 -0.3925 -0.8604
17963TIP3    H275305   3.000   2.598   3.054 -0.3444  0.2252  0.5171
17964TIP3   OH275306   5.732   5.670  12.231  0.1458  0.2747  0.5298
17964TIP3    H175307   5.734   5.745  12.172  1.7458  0.1027  0.3220
17964TIP3    H275308   5.701   5.598  12.176 -0.8059  0.6472  0.5706
17965TIP3   OH275309   0.184   0.732  14.138 -0.3465  0.2489  0.0258
17965TIP3    H175310   0.203   0.646  14.174  2.3746  1.2455  1.1308
17965TIP3    H275311   0.128   0.774  14.202 -2.5126 -1.0004 -0.9811
17966TIP3   OH275312   3.597   5.593   5.114  0.5004  0.6346  0.1870
17966TIP3    H175313   3.607   5.550   5.199  1.1165 -0.1179 -0.2608
17966TIP3    H275314   3.504   5.584   5.093  0.6781 -0.7366 -0.0389
17967TIP3   OH275315   3.935   5.914   0.091  0.1952  0.1605 -0.0810
17967TIP3    H175316   3.990   5.993   0.094  0.3953  0.0239 -0.1143
17967TIP3    H275317   3.879   5.921   0.168  1.6081 -0.6683  1.0449
17968TIP3   OH275318   6.337   2.849   1.109 -0.5131  0.2750  0.1665
17968TIP3    H175319   6.301   2.918   1.164 -0.7690  0.5058 -0.2825
17968TIP3    H275320   6.358   2.893   1.026  2.9568  0.6390  1.1827
17969TIP3   OH275321   0.145   0.977  13.776 -0.4077  0.5997  0.4572
17969TIP3    H175322   0.240   0.979  13.790 -0.0781 -0.4090 -1.3859
17969TIP3    H275323   0.122   1.067  13.753  0.6257  0.2916 -1.9896
17970TIP3   OH275324   1.569   5.195   4.453  0.4444 -0.1603  0.4118
17970TIP3    H175325   1.526   5.129   4.400  0.4571  0.7535 -0.7578
17970TIP3    H275326   1.613   5.146   4.522 -0.6859 -1.2594  0.3584
17971TIP3   OH275327   2.933   5.657  16.266 -0.4685  0.1730  0.2399
17971TIP3    H175328   2.850   5.611  16.276 -1.1782  1.0771 -1.4273
17971TIP3    H275329   2.960   5.640  16.176 -0.1308  2.0100 -0.0140
17972TIP3   OH275330   5.200   5.154  11.514  0.6151 -0.7071  0.2894
17972TIP3    H175331   5.163   5.228  11.563  0.3047 -0.7777  0.1663
17972TIP3    H275332   5.186   5.177  11.422 -1.4314 -1.8825  0.2757
17973TIP3   OH275333   4.844   6.248   2.052 -0.5444  0.0829 -0.0936
17973TIP3    H175334   4.931   6.258   2.093 -0.4040 -0.1424 -0.3359
17973TIP3    H275335   4.831   6.153   2.046  0.5026  0.0644 -2.8023
17974TIP3   OH275336   0.622   1.390   1.750 -0.6482  0.2733 -0.7075
17974TIP3    H175337   0.707   1.395   1.706  0.0872 -0.2781  0.6106
17974TIP3    H275338   0.637   1.433   1.835 -1.1013 -1.6524  0.3884
17975TIP3   OH275339   5.686   1.515  13.560 -0.3304 -0.0028 -0.1361
17975TIP3    H175340   5.593   1.531  13.541 -1.3808 -2.6811  2.3974
17975TIP3    H275341   5.712   1.448  13.497 -0.3745  0.1256 -0.2897
17976TIP3   OH275342   4.331   6.197   1.795  0.1131 -0.5499 -0.0504
17976TIP3    H175343   4.267   6.126   1.800  0.4242 -0.7524  1.0600
17976TIP3    H275344   4.414   6.156   1.821  1.0030 -0.6527 -2.7738
17977TIP3   OH275345   2.048   5.916  14.509 -0.1523  0.3694  0.2436
17977TIP3    H175346   2.003   5.851  14.455  0.4392  1.0108 -1.0182
17977TIP3    H275347   1.978   5.971  14.544 -0.5368 -0.0576  0.1492
17978TIP3   OH275348   6.041   1.994  11.175 -0.1604  0.1539  0.5557
17978TIP3    H175349   6.075   1.913  11.214 -1.2624 -0.1759  0.8360
17978TIP3    H275350   6.061   1.985  11.082 -0.0204 -0.3174  0.6271
17979TIP3   OH275351   4.005   2.749   5.741  0.9176 -0.5437  0.5493
17979TIP3    H175352   3.917   2.781   5.764  0.4698 -1.2312 -0.1719
17979TIP3    H275353   4.041   2.718   5.824  1.4032  1.8669  1.2896
17980TIP3   OH275354   3.815   4.206  16.370  0.5018 -0.2353  0.5452
17980TIP3    H175355   3.770   4.185  16.289  3.3567  1.1485 -1.5157
17980TIP3    H275356   3.745   4.227  16.432 -1.7067  0.0207 -1.9479
17981TIP3   OH275357   5.158   6.144  11.472 -0.4115  0.5148 -0.3528
17981TIP3    H175358   5.205   6.190  11.541 -4.0051  2.2717  1.0683
17981TIP3    H275359   5.152   6.208  11.401  0.9262 -0.3476 -1.2571
17982TIP3   OH275360   5.282   6.062  14.022  0.3087 -0.4167  0.0278
17982TIP3    H175361   5.318   6.102  13.942 -0.1565  0.2521  0.1470
17982TIP3    H275362   5.227   5.990  13.990 -0.3624  0.2299 -0.2974
17983TIP3   OH275363   3.704   2.459  14.405  0.0729 -0.7973 -0.4858
17983TIP3    H175364   3.657   2.376  14.413 -1.2402  0.0674  1.0747
17983TIP3    H275365   3.679   2.492  14.318 -1.9741 -0.5010  0.1949
17984TIP3   OH275366   4.324   6.050   4.442  0.0178  0.7739  0.0382
17984TIP3    H175367   4.288   5.993   4.510 -0.2652  0.9604  0.0439
17984TIP3    H275368   4.296   6.010   4.360  0.5396  0.4281  0.0190
17985TIP3   OH275369   0.264   0.195  11.451  0.2238 -0.6704  0.2923
17985TIP3    H175370   0.291   0.106  11.474  0.4410 -0.4186  1.0245
17985TIP3    H275371   0.344   0.247  11.456  0.0679 -0.3999  0.0293
17986TIP3   OH275372   5.362   0.010   5.935  0.4326 -0.3545  0.0299
17986TIP3    H175373   5.404   0.027   5.850 -0.5473 -0.3198 -0.4484
17986TIP3    H275374   5.418  -0.056   5.976  1.2365  0.0527 -0.3904
17987TIP3   OH275375   4.000   2.527  16.072  0.3329  0.5235  0.4923
17987TIP3    H175376   4.035   2.453  16.022  0.2853 -0.0105  1.2516
17987TIP3    H275377   3.906   2.526  16.053  0.3255  0.3637  0.5348
17988TIP3   OH275378   4.964   5.483   0.729  0.1737  0.1449 -0.5735
17988TIP3    H175379   4.919   5.399   0.723 -0.2074  0.3332 -0.3576
17988TIP3    H275380   4.991   5.503   0.640  0.1851 -0.1636 -0.6378
17989TIP3   OH275381   4.550   2.101  16.332 -0.3525 -0.6623 -0.0159
17989TIP3    H175382   4.549   2.115  16.237  1.5101 -0.8017 -0.0678
17989TIP3    H275383   4.495   2.023  16.345  2.2004 -2.7854 -1.3826
17990TIP3   OH275384   4.963   1.265  11.304 -0.1358  0.1313 -0.3204
17990TIP3    H175385   5.022   1.239  11.374 -0.4308 -0.4356 -0.2779
17990TIP3    H275386   4.991   1.213  11.228  0.6544  1.2836 -0.8256
17991TIP3   OH275387   1.264   1.345  13.631 -0.3816 -0.3136 -0.1118
17991TIP3    H175388   1.179   1.302  13.626 -0.7188  0.3915 -0.6269
17991TIP3    H275389   1.311   1.315  13.553 -0.7910  0.5959 -0.7202
17992TIP3   OH275390   5.686   4.800  11.792  0.4056  0.3374 -0.2201
17992TIP3    H175391   5.607   4.850  11.773  0.1920 -0.3868 -1.2938
17992TIP3    H275392   5.657   4.709  11.794  0.6386  0.2705  2.4874
17993TIP3   OH275393   0.940   3.953   3.102 -0.3828  0.2273 -0.0134
17993TIP3    H175394   0.920   3.916   3.016  1.6329  1.5727 -1.0986
17993TIP3    H275395   1.006   3.894   3.139 -0.6396  0.1176  0.2783
17994TIP3   OH275396   5.576   1.884   3.625 -0.0395 -0.8538 -0.2495
17994TIP3    H175397   5.498   1.828   3.627 -0.7966  0.0330 -3.0977
17994TIP3    H275398   5.641   1.833   3.577  0.5731 -0.8838  0.6033
17995TIP3   OH275399   6.728   6.632   5.434  0.0765  0.0869  0.7349
17995TIP3    H175400   6.747   6.604   5.345  1.3562 -1.4970  1.4717
17995TIP3    H275401   6.633   6.626   5.442 -0.0867  0.5889 -0.6104
17996TIP3   OH275402   6.430   1.980   3.357 -0.1907 -0.1792 -0.1519
17996TIP3    H175403   6.476   2.038   3.296  1.9283 -0.7570  0.8325
17996TIP3    H275404   6.473   1.895   3.345  0.7038 -0.1474  2.5723
17997TIP3   OH275405   4.837   6.321   2.678  0.0052 -0.2833 -0.3248
17997TIP3    H175406   4.875   6.378   2.744 -0.2209  0.2531 -0.6582
17997TIP3    H275407   4.789   6.379   2.620 -0.6062 -0.8578 -0.4054
17998TIP3   OH275408   3.731   1.519  16.341 -0.0735 -0.0150  0.6459
17998TIP3    H175409   3.810   1.535  16.290 -0.0923  0.9194  0.9019
17998TIP3    H275410   3.714   1.426  16.330  0.8374 -0.1397  0.2633
17999TIP3   OH275411   6.140   3.677  15.786 -0.0449  0.3255  1.0112
17999TIP3    H175412   6.100   3.761  15.808  0.2389  0.0725  2.5232
17999TIP3    H275413   6.155   3.682  15.691 -0.9167  1.5898  0.9298
18000TIP3   OH275414   1.576   4.862  13.427  0.5781  0.0661  0.4161
18000TIP3    H175415   1.582   4.934  13.364 -1.3725  0.2896  0.4622
18000TIP3    H275416   1.638   4.886  13.496 -0.2101  1.8222  0.5444
18001TIP3   OH275417   1.896   0.974  16.523  0.6779  0.2012 -0.6544
18001TIP3    H175418   1.974   0.959  16.575  1.0589  0.5932 -1.1087
18001TIP3    H275419   1.897   0.905  16.457  1.1226  0.7366 -1.2167
18002TIP3   OH275420   5.902   4.054   2.839  0.0091  0.3295  0.2721
18002TIP3    H175421   5.954   4.042   2.918 -2.4907 -1.2228  1.7783
18002TIP3    H275422   5.867   4.143   2.847  0.2386  0.3905  0.6033
18003TIP3   OH275423   5.135   4.391   5.809  0.0129 -0.1266 -0.2967
18003TIP3    H175424   5.106   4.311   5.851  1.4072 -2.5945 -3.7410
18003TIP3    H275425   5.101   4.385   5.719  3.4600  1.1725 -1.7835
18004TIP3   OH275426   2.409   4.668   1.060 -0.4029 -0.1719 -0.5568
18004TIP3    H175427   2.472   4.688   0.990 -0.1075 -0.1633 -0.2888
18004TIP3    H275428   2.326   4.704   1.028 -0.4370 -0.8166 -1.2367
18005TIP3   OH275429   2.717   1.174  16.098 -1.1138  0.2554  0.7086
18005TIP3    H175430   2.736   1.246  16.158  1.6921 -0.3494  0.6047
18005TIP3    H275431   2.758   1.097  16.139 -3.0824 -1.0719  0.2593
18006TIP3   OH275432   1.323   5.665   0.479 -0.7156 -0.2382 -0.7522
18006TIP3    H175433   1.357   5.754   0.479 -1.5529  0.0979  1.2734
18006TIP3    H275434   1.291   5.651   0.568 -1.1228 -2.3608 -1.2012
18007TIP3   OH275435   0.503   1.634  13.275 -0.0061 -0.4402 -0.1133
18007TIP3    H175436   0.517   1.559  13.217 -0.7673 -1.5800  1.1601
18007TIP3    H275437   0.421   1.616  13.319  0.3182  0.6525  0.9698
18008TIP3   OH275438   3.124   5.286  10.656 -0.7090 -0.6009 -0.2894
18008TIP3    H175439   3.136   5.197  10.689 -1.7622 -0.1806  1.2579
18008TIP3    H275440   3.193   5.337  10.700 -1.1168 -0.3433  0.0517
18009TIP3   OH275441   5.970   1.474   5.118  0.6095 -0.1942 -0.4122
18009TIP3    H175442   6.053   1.522   5.110  0.9382 -0.6017  0.5120
18009TIP3    H275443   5.929   1.483   5.032  0.6993  1.6899 -0.2903
18010TIP3   OH275444   1.476   5.730  10.362  0.4867  0.2220 -0.2137
18010TIP3    H175445   1.392   5.701  10.399  0.3172 -1.1597 -1.6111
18010TIP3    H275446   1.485   5.679  10.281  2.6331  0.4475 -0.1307
18011TIP3   OH275447   0.965   0.115   2.837 -0.3034  0.1842  0.2802
18011TIP3    H175448   0.982   0.164   2.918  0.4910  0.4295 -0.0271
18011TIP3    H275449   1.013   0.163   2.770 -0.8001 -0.1315 -0.3089
18012TIP3   OH275450   0.519   2.454  10.847  0.2396  0.1068 -0.0042
18012TIP3    H175451   0.548   2.369  10.881 -1.6134 -0.4905  0.1646
18012TIP3    H275452   0.578   2.473  10.775  0.9953 -1.0927  0.2911
18013TIP3   OH275453   5.922   0.176  14.633 -0.0341 -0.5947 -0.1721
18013TIP3    H175454   5.941   0.173  14.540 -1.5901  1.3492 -0.5693
18013TIP3    H275455   5.847   0.118  14.644  0.8290 -1.7000  0.0859
18014TIP3   OH275456   1.787   1.480   2.644  0.0526  0.1099 -0.2357
18014TIP3    H175457   1.849   1.451   2.577  1.7528  0.1941  1.2460
18014TIP3    H275458   1.786   1.575   2.635  1.6152  0.2639  0.9502
18015TIP3   OH275459   6.688   5.796   3.713 -0.0611  0.1998  0.0912
18015TIP3    H175460   6.685   5.703   3.693 -0.6596  0.4253 -0.9003
18015TIP3    H275461   6.778   5.823   3.693  0.1762 -0.2102  0.6071
18016TIP3   OH275462   2.570   2.528   0.322 -0.7320 -0.1514 -0.1447
18016TIP3    H175463   2.533   2.580   0.394 -0.5218  0.8847 -0.7671
18016TIP3    H275464   2.653   2.496   0.356 -0.6524  0.3039  0.1022
18017TIP3   OH275465   6.515   0.341  14.528  0.6678 -0.1720  0.2032
18017TIP3    H175466   6.564   0.267  14.494 -0.3028 -1.7092  2.0592
18017TIP3    H275467   6.440   0.302  14.573 -1.1668  2.0329 -0.8116
18018TIP3   OH275468   6.295   2.527  16.559 -0.2269  0.1011  0.2323
18018TIP3    H175469   6.284   2.613  16.520  1.2240  0.5038  0.7016
18018TIP3    H275470   6.366   2.487  16.510 -0.5039 -0.6131  0.4021
18019TIP3   OH275471   2.858   1.158   3.051 -0.1919  0.0901  0.1552
18019TIP3    H175472   2.786   1.219   3.041 -0.5778 -0.3104  0.4532
18019TIP3    H275473   2.883   1.164   3.143 -0.7129 -0.7260  0.3572
18020TIP3   OH275474   5.319   2.210  14.792 -0.4560  0.0385 -0.1546
18020TIP3    H175475   5.397   2.234  14.842  0.1458 -0.3907 -0.8757
18020TIP3    H275476   5.325   2.261  14.712  0.1719 -1.5465 -1.1364
18021TIP3   OH275477   4.940   0.795   0.694  0.1588  0.8607 -0.1213
18021TIP3    H175478   4.992   0.719   0.718 -0.4786  1.1320  2.1963
18021TIP3    H275479   5.000   0.851   0.644  0.5720 -1.2277 -2.0594
18022TIP3   OH275480   2.394   4.064   0.641  0.3607  0.0490 -0.4359
18022TIP3    H175481   2.368   3.980   0.604  2.5573 -1.3758  1.1511
18022TIP3    H275482   2.439   4.042   0.722  2.6340  2.6351 -0.9190
18023TIP3   OH275483   6.041   6.284  14.234  0.2557  0.4140  0.5081
18023TIP3    H175484   6.063   6.287  14.327 -0.7810 -1.2902  0.8415
18023TIP3    H275485   6.010   6.194  14.220  1.0269  0.4498 -1.6278
18024TIP3   OH275486   3.119   5.439   3.212 -0.2143  0.3425  0.8263
18024TIP3    H175487   3.042   5.410   3.162 -1.3507  2.1347  1.4718
18024TIP3    H275488   3.104   5.406   3.300  0.7814 -1.0493  0.4926
18025TIP3   OH275489   4.099   0.909  11.178 -0.3746  0.2379  0.1631
18025TIP3    H175490   4.155   0.832  11.168  1.8100  1.6326  1.1346
18025TIP3    H275491   4.084   0.940  11.088  1.1460  0.3050 -0.0913
18026TIP3   OH275492   5.232   5.786   1.075  0.6876 -0.3909 -0.1447
18026TIP3    H175493   5.301   5.808   1.013 -0.1829 -1.8626 -1.6717
18026TIP3    H275494   5.214   5.694   1.059  0.3011 -0.7497  2.1797
18027TIP3   OH275495   0.225   4.502   5.669 -0.3010 -0.3134  0.0203
18027TIP3    H175496   0.192   4.413   5.665 -0.3372 -0.3246  0.4965
18027TIP3    H275497   0.197   4.534   5.755 -0.7319  0.3308 -0.3604
18028TIP3   OH275498   6.322   0.070   3.447  0.1234 -0.0263 -0.5229
18028TIP3    H175499   6.394   0.113   3.493  0.0711 -2.4503  1.9448
18028TIP3    H275500   6.359  -0.014   3.418 -1.3782 -0.8505 -0.1346
18029TIP3   OH275501   2.839   3.379   5.096 -0.4120  0.0322 -0.6903
18029TIP3    H175502   2.892   3.459   5.096 -0.4896  0.0925  0.2849
18029TIP3    H275503   2.758   3.405   5.052 -0.9418  0.8569  0.7155
18030TIP3   OH275504   5.978   2.548  12.377  0.4148 -0.1139 -0.6941
18030TIP3    H175505   5.954   2.474  12.432 -0.5514 -0.4627 -1.5942
18030TIP3    H275506   5.941   2.624  12.422 -0.1058 -0.3635 -0.7013
18031TIP3   OH275507   3.664   5.175   1.341 -0.2575 -0.6595 -0.5162
18031TIP3    H175508   3.661   5.141   1.252 -1.8038 -0.3630 -0.5854
18031TIP3    H275509   3.603   5.120   1.390  1.4128 -1.5615  0.6445
18032TIP3   OH275510   4.193   6.550  16.683 -0.4152 -0.3668 -0.4628
18032TIP3    H175511   4.121   6.501  16.723 -0.8092 -0.8520 -1.7738
18032TIP3    H275512   4.162   6.641  16.682 -0.7208 -0.4691 -0.3973
18033TIP3   OH275513   5.293   4.663  16.921  0.6855  0.2005  0.4495
18033TIP3    H175514   5.268   4.571  16.917 -0.0071  0.3634  0.8848
18033TIP3    H275515   5.385   4.665  16.896 -0.1764 -0.2161 -3.0290
18034TIP3   OH275516   4.314   5.498  11.372 -0.4024  0.4678 -0.6569
18034TIP3    H175517   4.314   5.575  11.428  0.4772  1.3977 -1.9250
18034TIP3    H275518   4.272   5.526  11.291 -0.5527 -0.5319 -0.9412
18035TIP3   OH275519   5.549   4.994   5.896 -0.2286  0.2361  0.1190
18035TIP3    H175520   5.532   5.080   5.859  0.0462  0.3393  0.2372
18035TIP3    H275521   5.461   4.957   5.910 -0.3225 -0.3139 -1.7932
18036TIP3   OH275522   3.422   2.107   2.607  0.3115 -0.9178 -0.1626
18036TIP3    H175523   3.389   2.193   2.582 -1.1781 -1.7403 -1.1265
18036TIP3    H275524   3.385   2.090   2.693  0.3437 -0.7306 -0.1124
18037TIP3   OH275525   6.613   3.804   0.194  0.0140 -0.1319  0.1030
18037TIP3    H175526   6.708   3.813   0.185 -0.0628  1.2938  0.5866
18037TIP3    H275527   6.592   3.849   0.276 -1.3723  1.6323 -1.1858
18038TIP3   OH275528   1.353   6.243   6.041  0.0355 -0.1893  0.4159
18038TIP3    H175529   1.366   6.244   6.136  1.1063 -2.0612  0.3147
18038TIP3    H275530   1.401   6.166   6.011 -1.0031 -0.1051 -1.5530
18039TIP3   OH275531   4.786   5.777  11.797 -0.4332 -0.6469 -1.2307
18039TIP3    H175532   4.838   5.839  11.847  0.3003  1.0462 -4.0136
18039TIP3    H275533   4.696   5.810  11.804 -1.0880 -2.8879  2.5386
18040TIP3   OH275534   5.300   0.414   1.978  0.3405 -0.0286 -0.0795
18040TIP3    H175535   5.302   0.322   2.002  0.0926  0.3694  1.6024
18040TIP3    H275536   5.332   0.459   2.057 -0.4500  1.3743 -0.5442
18041TIP3   OH275537   3.201   3.324  13.821 -0.1989 -0.1202  0.3460
18041TIP3    H175538   3.208   3.415  13.850  0.6590  0.3208 -1.2121
18041TIP3    H275539   3.290   3.289  13.830 -0.3684 -0.5939  0.2027
18042TIP3   OH275540   4.618   6.480   0.586 -0.4448  0.1044 -0.5232
18042TIP3    H175541   4.634   6.520   0.501  2.3256 -1.5123 -0.8235
18042TIP3    H275542   4.650   6.543   0.650  1.5436 -0.5166 -0.8868
18043TIP3   OH275543   2.627   3.170   5.473  0.1630  0.4899 -0.1283
18043TIP3    H175544   2.545   3.214   5.496 -0.3878 -0.4235 -0.3207
18043TIP3    H275545   2.611   3.079   5.496  1.5884  0.5214  1.0486
18044TIP3   OH275546   0.058   0.726  14.383 -0.1055  0.7306 -0.5648
18044TIP3    H175547  -0.006   0.661  14.414  0.9972 -0.1185 -0.0236
18044TIP3    H275548   0.111   0.746  14.460  1.1438  0.4008 -1.3288
18045TIP3   OH275549   1.148   6.520  17.226 -0.0563 -0.3476  0.3414
18045TIP3    H175550   1.231   6.516  17.272  0.5781 -0.9123 -0.8269
18045TIP3    H275551   1.141   6.611  17.197  0.3839 -0.4171  0.0210
18046TIP3   OH275552   2.777   6.037   2.205  0.0617  0.4718  0.2632
18046TIP3    H175553   2.740   5.970   2.147 -0.4645  0.6158  0.4355
18046TIP3    H275554   2.837   6.086   2.149  1.8065 -1.2474  0.5406
18047TIP3   OH275555   5.331   2.126   6.141  0.3317 -0.2555  0.3299
18047TIP3    H175556   5.384   2.185   6.088 -0.9489  1.0343  0.4645
18047TIP3    H275557   5.241   2.154   6.125 -0.1252 -0.4043  2.5121
18048TIP3   OH275558   3.622   4.930   6.169  0.1506  0.4457  0.1969
18048TIP3    H175559   3.545   4.981   6.194 -0.7447 -0.4432 -0.6655
18048TIP3    H275560   3.604   4.842   6.202  0.5157  0.0967 -0.5153
18049TIP3   OH275561   2.100   5.166  13.615  0.4281 -0.0243 -0.0160
18049TIP3    H175562   2.099   5.099  13.546  0.3016  0.0366 -0.0730
18049TIP3    H275563   2.064   5.121  13.692  0.6133 -0.1067  0.0247
18050TIP3   OH275564   2.016   1.494   3.769  0.4474  0.4244 -0.9020
18050TIP3    H175565   2.004   1.400   3.752 -0.0253  0.2257  0.4628
18050TIP3    H275566   2.104   1.501   3.807  0.6995  0.6099 -1.5103
18051TIP3   OH275567   2.747   3.527  13.780 -0.1125  0.7407 -0.1277
18051TIP3    H175568   2.801   3.534  13.701  0.7956  1.5431  0.5577
18051TIP3    H275569   2.798   3.571  13.848 -1.1177  0.4904  0.7950
18052TIP3   OH275570   5.759   0.290  15.959 -0.5770 -0.0730  0.0068
18052TIP3    H175571   5.749   0.245  16.043 -0.0219  1.7221  1.0690
18052TIP3    H275572   5.835   0.249  15.919  0.3834  0.4024  1.2961
18053TIP3   OH275573   2.656   6.508   0.726  0.0800  0.1525 -0.1758
18053TIP3    H175574   2.693   6.430   0.685 -0.8770  0.2010 -1.1447
18053TIP3    H275575   2.709   6.521   0.805  2.5437  0.5420 -1.8098
18054TIP3   OH275576   2.659   1.279  12.642  0.6269  0.4403  0.1825
18054TIP3    H175577   2.573   1.283  12.599 -0.1648 -2.8213  1.3335
18054TIP3    H275578   2.709   1.217  12.589  0.6165 -1.3441  2.1742
18055TIP3   OH275579   1.122   5.191  15.817  0.2595 -0.2700 -0.0915
18055TIP3    H175580   1.149   5.282  15.807 -1.6385  0.4042  0.8659
18055TIP3    H275581   1.082   5.186  15.904 -0.2549 -1.8709 -0.3947
18056TIP3   OH275582   4.218   2.682   4.800  0.5016  0.2107  0.5321
18056TIP3    H175583   4.132   2.708   4.769 -0.2971 -0.4136  2.1584
18056TIP3    H275584   4.279   2.718   4.736 -0.9426  0.9848 -0.4235
18057TIP3   OH275585   4.744   1.243  13.174 -0.1521 -0.0978  0.3745
18057TIP3    H175586   4.835   1.268  13.159  0.1724 -0.3848  1.8394
18057TIP3    H275587   4.711   1.308  13.235 -1.4624  1.0445 -1.4899
18058TIP3   OH275588   6.593   6.570   2.149 -0.3355 -0.2244 -0.2250
18058TIP3    H175589   6.618   6.608   2.065  0.3338 -0.7335 -0.2656
18058TIP3    H275590   6.536   6.635   2.189 -0.4998  0.1105 -0.9885
18059TIP3   OH275591   1.357   5.952  14.477  0.0100 -0.1046  0.2698
18059TIP3    H175592   1.442   5.914  14.454  0.2781 -0.2895  1.5631
18059TIP3    H275593   1.306   5.947  14.396  0.3610 -2.3355  0.1534
18060TIP3   OH275594   6.080   3.483   2.941  0.2061 -0.3391 -0.5284
18060TIP3    H175595   6.005   3.524   2.985 -0.3816  0.5727 -2.3363
18060TIP3    H275596   6.083   3.524   2.855  1.2371 -2.2192 -1.4206
18061TIP3   OH275597   2.154   0.236   3.901  0.9676  0.0265 -0.0294
18061TIP3    H175598   2.209   0.158   3.902  0.3143 -0.4350  0.8850
18061TIP3    H275599   2.067   0.204   3.926  1.0346  1.3055  1.8728
18062TIP3   OH275600   5.947   6.022  14.470  0.0904 -0.1198  0.2425
18062TIP3    H175601   5.875   5.989  14.524  0.5900  0.2074  1.1201
18062TIP3    H275602   5.991   6.086  14.526  1.3236 -0.6244 -0.1344
18063TIP3   OH275603   0.508   4.225   0.235  0.4319  0.4535  0.0648
18063TIP3    H175604   0.421   4.186   0.237  0.7717 -0.2878  2.9581
18063TIP3    H275605   0.494   4.314   0.204 -1.5711  0.7873  1.7995
18064TIP3   OH275606   0.464   2.878   4.912 -0.3370 -0.2904 -0.0176
18064TIP3    H175607   0.426   2.928   4.840 -0.4583  0.4435  0.5455
18064TIP3    H275608   0.528   2.938   4.951 -0.9116 -0.3474  1.0335
18065TIP3   OH275609   1.892   3.805  15.082  0.5035 -0.0014  0.2970
18065TIP3    H175610   1.977   3.785  15.042  0.5257 -0.0360  0.3610
18065TIP3    H275611   1.868   3.891  15.047  0.5842  0.0270  0.3110
18066TIP3   OH275612   1.909   0.700   3.135 -0.4413  0.2933  0.4023
18066TIP3    H175613   1.814   0.706   3.135 -0.4428  0.5689 -1.7471
18066TIP3    H275614   1.927   0.606   3.138 -0.7909  0.2356  0.6882
18067TIP3   OH275615   1.230   4.728  17.023 -0.0076 -0.2807  0.4213
18067TIP3    H175616   1.186   4.644  17.037  0.1150 -0.8796 -2.3391
18067TIP3    H275617   1.165   4.794  17.048 -0.1601 -1.1843  2.4732
18068TIP3   OH275618   0.979   6.400   5.765  0.1263 -0.6243  0.2300
18068TIP3    H175619   1.004   6.368   5.852 -1.0932 -1.5726  0.2482
18068TIP3    H275620   1.042   6.470   5.746  1.0137 -1.0689  1.4515
18069TIP3   OH275621   0.376   5.602   2.689 -0.2057 -0.2000 -0.1284
18069TIP3    H175622   0.417   5.536   2.633 -1.3678 -0.3180 -0.8359
18069TIP3    H275623   0.329   5.659   2.629 -1.6819 -0.4879  0.7309
18070TIP3   OH275624   2.102   5.652  11.069  0.1870  0.3580  0.2014
18070TIP3    H175625   2.108   5.634  11.163 -1.1812  0.6315  0.3576
18070TIP3    H275626   2.189   5.633  11.035  0.5603 -0.2186  1.4477
18071TIP3   OH275627   5.078   4.362  12.803 -0.5773 -0.5524  0.3648
18071TIP3    H175628   5.015   4.364  12.875 -1.2181  0.3997 -0.2069
18071TIP3    H275629   5.162   4.380  12.846 -1.3003  2.7989  0.5773
18072TIP3   OH275630   3.119   5.702   1.715  0.6045 -0.4778 -0.4707
18072TIP3    H175631   3.057   5.673   1.648  1.2052 -1.7717 -0.4715
18072TIP3    H275632   3.098   5.649   1.792  0.2521  0.6475  0.2294
18073TIP3   OH275633   0.928   1.206   1.438 -0.0116 -0.0426 -0.6773
18073TIP3    H175634   0.960   1.292   1.409  0.9618 -0.4700 -0.8806
18073TIP3    H275635   0.969   1.144   1.378 -0.0072 -0.7210  0.0275
18074TIP3   OH275636   1.157   2.750  13.655  0.1208  0.3987 -0.7292
18074TIP3    H175637   1.164   2.656  13.674 -0.0458  0.7421  1.1496
18074TIP3    H275638   1.063   2.766  13.649 -0.0185  1.0834  2.5298
18075TIP3   OH275639   4.274   4.660   1.952  0.1869  0.2328 -0.2701
18075TIP3    H175640   4.240   4.597   2.015  0.9250  0.0071 -0.0976
18075TIP3    H275641   4.237   4.633   1.868  1.0822 -0.8515 -0.3152
18076TIP3   OH275642   3.034   5.955  12.917 -0.2226 -0.2338 -0.5370
18076TIP3    H175643   3.081   5.974  12.998 -2.0791  0.6659  0.3426
18076TIP3    H275644   3.017   6.042  12.879  0.3497 -0.6302 -1.7387
18077TIP3   OH275645   5.880   1.733   1.501  0.2001 -0.1979 -0.1839
18077TIP3    H175646   5.964   1.738   1.456 -0.4128 -2.4594 -1.6981
18077TIP3    H275647   5.841   1.652   1.469 -1.6510 -0.2578  2.0960
18078TIP3   OH275648   0.382   1.585  17.166 -0.1932 -0.3921  0.5192
18078TIP3    H175649   0.298   1.616  17.132  0.7004  0.4411 -1.0067
18078TIP3    H275650   0.414   1.526  17.098  0.4229 -0.7555  1.1246
18079TIP3   OH275651   3.760   5.664   5.634  0.2311  0.5036 -0.2315
18079TIP3    H175652   3.814   5.705   5.567 -0.9277  0.4358 -1.2226
18079TIP3    H275653   3.714   5.737   5.676  1.3131  0.5870  0.8014
18080TIP3   OH275654   3.232   5.042  14.438  0.1697 -0.0302  0.2687
18080TIP3    H175655   3.159   4.998  14.482  1.7887 -1.5641  1.5188
18080TIP3    H275656   3.213   5.032  14.344  0.1064 -2.8234  0.5253
18081TIP3   OH275657   4.302   5.920  11.790  0.7174  0.0737 -0.2037
18081TIP3    H175658   4.222   5.870  11.772  0.6543 -0.5789  1.7050
18081TIP3    H275659   4.368   5.883  11.732 -0.2252  0.2030 -1.3608
18082TIP3   OH275660   5.601   3.297   4.626 -0.3283  0.6371 -0.4637
18082TIP3    H175661   5.650   3.221   4.659 -0.1199  0.0153 -2.1326
18082TIP3    H275662   5.652   3.327   4.551 -1.7917  0.8125 -1.4045
18083TIP3   OH275663   2.492   3.009   4.970  0.5067  0.0037 -0.9780
18083TIP3    H175664   2.527   2.970   4.890  0.5321 -0.9646 -0.5018
18083TIP3    H275665   2.405   3.041   4.946 -0.0080 -1.4422 -1.0690
18084TIP3   OH275666   3.819   3.690   2.383  0.5208  0.5153 -0.8298
18084TIP3    H175667   3.878   3.765   2.379 -0.0259  0.9280 -1.2754
18084TIP3    H275668   3.858   3.627   2.322  1.7715 -0.1541  0.6241
18085TIP3   OH275669   1.847   0.014   0.704 -0.3405  0.1906 -0.1175
18085TIP3    H175670   1.924   0.000   0.759  0.6038 -0.0285 -1.4608
18085TIP3    H275671   1.815   0.101   0.728 -0.1523 -0.0574  1.0253
18086TIP3   OH275672   6.597   2.008   0.460 -0.3681  0.4570 -0.4749
18086TIP3    H175673   6.531   1.964   0.406  0.0107 -0.5358 -0.1383
18086TIP3    H275674   6.562   2.004   0.549  0.1964 -0.1543 -0.2824
18087TIP3   OH275675   0.974   2.415   4.618  0.5897 -0.6849  0.0390
18087TIP3    H175676   1.017   2.483   4.564 -4.0805  1.4373 -1.2765
18087TIP3    H275677   0.974   2.451   4.706  1.9515 -0.9816  0.1782
18088TIP3   OH275678   6.249   4.749  13.910  0.0401 -1.0727  0.1141
18088TIP3    H175679   6.256   4.842  13.889 -2.8474 -0.9017 -0.1634
18088TIP3    H275680   6.336   4.726  13.943  0.7317  1.7634  0.3875
18089TIP3   OH275681   5.143   6.590  11.526 -0.1411 -0.0216 -0.4741
18089TIP3    H175682   5.143   6.682  11.553  2.8562  0.1953 -0.9916
18089TIP3    H275683   5.186   6.545  11.599 -2.1899 -1.1398  0.0700
18090TIP3   OH275684   1.866   0.758  14.006  0.1204  0.0045 -0.0707
18090TIP3    H175685   1.884   0.767  14.099  1.4942 -0.1322 -0.3108
18090TIP3    H275686   1.819   0.838  13.983  0.2856  0.3064  0.6270
18091TIP3   OH275687   0.702   3.944  12.688  0.0045 -0.7720  0.2523
18091TIP3    H175688   0.620   3.899  12.708  1.3551 -2.5809  1.9604
18091TIP3    H275689   0.738   3.895  12.613  0.3525 -1.0944  0.6258
18092TIP3   OH275690   1.892   1.577  15.318  0.3527 -0.0277  0.1408
18092TIP3    H175691   1.898   1.542  15.407  1.6706 -0.5811 -0.1563
18092TIP3    H275692   1.836   1.515  15.272  4.2152 -2.9414 -0.9054
18093TIP3   OH275693   5.862   4.716  11.536 -0.0651  0.9201  1.1122
18093TIP3    H175694   5.808   4.761  11.472 -1.4198 -1.6651  0.3949
18093TIP3    H275695   5.812   4.719  11.617 -0.3975  0.2312  0.9310
18094TIP3   OH275696   2.676   6.688   5.508  0.5354  0.0923 -0.1517
18094TIP3    H175697   2.711   6.776   5.494  1.8682 -0.4869 -0.5826
18094TIP3    H275698   2.654   6.686   5.601  1.5257  0.5316  0.1020
18095TIP3   OH275699   6.752   4.149  11.363  0.2211  0.3927 -0.2766
18095TIP3    H175700   6.681   4.084  11.361 -0.0542  0.6406  0.9288
18095TIP3    H275701   6.773   4.164  11.271 -0.1463 -0.9380 -0.5924
18096TIP3   OH275702   0.630   1.779   1.286  0.0318  0.1405 -0.1761
18096TIP3    H175703   0.636   1.774   1.381  1.6563  0.2661 -0.2626
18096TIP3    H275704   0.703   1.726   1.254 -0.8724 -0.4360 -1.3708
18097TIP3   OH275705   4.180   1.389   4.002 -0.5316  0.3048 -0.3102
18097TIP3    H175706   4.135   1.306   3.985  1.2857 -0.6693 -0.6057
18097TIP3    H275707   4.267   1.362   4.032 -0.6230  2.0994  1.6983
18098TIP3   OH275708   3.890   4.709   0.383  0.7223 -0.7761 -0.1961
18098TIP3    H175709   3.811   4.764   0.381  0.6936 -0.8242 -0.5441
18098TIP3    H275710   3.900   4.684   0.475  2.7423  2.6679  0.5723
18099TIP3   OH275711   2.249   1.306   3.575 -0.8209  0.0608 -0.0532
18099TIP3    H175712   2.255   1.219   3.614  1.7400  0.3876  0.3982
18099TIP3    H275713   2.262   1.366   3.648  0.8552  0.7314 -0.8597
18100TIP3   OH275714   6.247   2.926  14.502  0.0011 -0.5087 -0.0799
18100TIP3    H175715   6.189   2.879  14.441  0.3641 -0.7224 -0.2576
18100TIP3    H275716   6.193   2.938  14.581 -0.3215 -0.6186 -0.2803
18101TIP3   OH275717   2.835   0.260   0.028  0.3282 -0.3301 -0.0616
18101TIP3    H175718   2.792   0.322  -0.030  1.3473  0.4849  0.0417
18101TIP3    H275719   2.796   0.276   0.114 -1.1135 -1.4727 -0.4956
18102TIP3   OH275720   3.981   0.075   1.244  0.0023  0.0892 -0.2599
18102TIP3    H175721   4.034   0.013   1.193 -0.3444  0.0354 -0.5540
18102TIP3    H275722   3.949   0.137   1.180 -1.4468 -0.6856 -0.2970
18103TIP3   OH275723   6.550   0.853  14.458  0.1188 -0.0626  0.1714
18103TIP3    H175724   6.578   0.771  14.419 -1.1942  0.4570 -1.9310
18103TIP3    H275725   6.521   0.829  14.546  0.8343 -1.6340 -0.0069
18104TIP3   OH275726   3.250   2.097  13.805  0.4783  0.2125 -0.2202
18104TIP3    H175727   3.274   2.005  13.816  0.1241  0.2281  0.7748
18104TIP3    H275728   3.332   2.140  13.779  0.3348 -0.6008 -2.0752
18105TIP3   OH275729   5.584   0.433   3.769 -0.3233  0.1061  0.4002
18105TIP3    H175730   5.518   0.365   3.757  0.5456 -0.6025 -0.4924
18105TIP3    H275731   5.546   0.511   3.729 -0.7810 -0.1964  0.2410
18106TIP3   OH275732   5.888   4.162  16.860  0.1548  0.2483  0.0158
18106TIP3    H175733   5.835   4.130  16.787  2.1033 -1.8624 -0.5304
18106TIP3    H275734   5.934   4.238  16.825  1.1027 -0.7720 -0.9961
18107TIP3   OH275735   5.838   6.357  15.523 -0.0813  0.0494 -0.0111
18107TIP3    H175736   5.837   6.301  15.600  2.2444 -1.4625 -1.0085
18107TIP3    H275737   5.931   6.377  15.509 -0.6631  2.0618 -1.1642
18108TIP3   OH275738   3.127   5.404  13.382  0.4754 -0.1026  0.2164
18108TIP3    H175739   3.033   5.421  13.388 -0.0800 -2.7330 -0.4938
18108TIP3    H275740   3.168   5.485  13.414 -2.0092  1.0016  0.7247
18109TIP3   OH275741   0.277   3.718  17.225 -0.2249 -0.1439  0.1554
18109TIP3    H175742   0.223   3.683  17.154 -0.7365  0.6781  0.1330
18109TIP3    H275743   0.223   3.710  17.303  0.0336 -0.3039  0.3199
18110TIP3   OH275744   5.012   0.500   4.371  0.0087  0.1124 -0.4388
18110TIP3    H175745   4.999   0.419   4.419 -0.2315 -0.0918 -0.8459
18110TIP3    H275746   5.063   0.474   4.294 -1.3429  0.0896 -1.3452
18111TIP3   OH275747   4.466   4.443  13.102 -0.0485 -1.0347 -0.1560
18111TIP3    H175748   4.558   4.469  13.095 -0.1543 -0.7903 -0.7277
18111TIP3    H275749   4.418   4.523  13.081 -0.3857 -1.2989 -0.3849
18112TIP3   OH275750   6.652   2.684  11.267  0.5786  0.5154  0.0037
18112TIP3    H175751   6.656   2.727  11.181  0.8847 -1.8042 -1.2006
18112TIP3    H275752   6.560   2.658  11.277  1.0000 -1.3645 -0.7646
18113TIP3   OH275753   4.233   0.761  10.943 -0.0257 -0.4219  0.1811
18113TIP3    H175754   4.321   0.726  10.931 -0.7041 -1.9280 -0.4458
18113TIP3    H275755   4.181   0.686  10.972 -1.1254  0.4420  0.4623
18114TIP3   OH275756   1.065   2.620  12.253 -0.7295  0.3220  0.1046
18114TIP3    H175757   1.116   2.696  12.224 -1.4795  1.1903  1.0372
18114TIP3    H275758   0.983   2.627  12.205 -0.3650 -0.5283 -0.6507
18115TIP3   OH275759   6.767   4.313  12.750 -0.0968 -0.3475  0.3819
18115TIP3    H175760   6.709   4.382  12.783  0.5246  0.7939 -0.8846
18115TIP3    H275761   6.726   4.285  12.668 -0.0047 -1.0715  0.5762
18116TIP3   OH275762   1.013   4.049  16.482  0.1378 -0.5692  0.1278
18116TIP3    H175763   1.034   4.032  16.391 -2.0402 -0.6192 -0.4022
18116TIP3    H275764   1.065   4.125  16.505  2.0295 -1.6076 -0.6198
18117TIP3   OH275765   2.909   4.490   0.314 -0.2970  0.3554 -0.1784
18117TIP3    H175766   2.966   4.413   0.311  1.1965  1.4044  0.5988
18117TIP3    H275767   2.907   4.523   0.225  2.5217  1.8579  0.2524
18118TIP3   OH275768   4.965   0.165   0.767  0.3177  0.4237 -0.3568
18118TIP3    H175769   4.984   0.239   0.824 -0.9249  1.1518 -0.8593
18118TIP3    H275770   4.869   0.159   0.767  0.4238 -1.4274 -0.0107
18119TIP3   OH275771   1.343   2.295   0.869 -0.3187  0.1226  0.1684
18119TIP3    H175772   1.421   2.309   0.923 -1.0416 -4.0101  2.5089
18119TIP3    H275773   1.271   2.328   0.921 -0.7769 -1.8793  0.8610
18120TIP3   OH275774   0.818   2.060  12.790  0.4424 -0.1923 -0.2585
18120TIP3    H175775   0.726   2.076  12.769 -0.2420 -2.3927  0.7908
18120TIP3    H275776   0.851   2.008  12.717  1.2718  1.8360 -1.3340
18121TIP3   OH275777   0.893   1.804   3.409  0.5256 -0.4998  0.1730
18121TIP3    H175778   0.955   1.864   3.449  0.5878 -1.0169  0.8547
18121TIP3    H275779   0.867   1.847   3.327 -0.0035  0.8051  1.0183
18122TIP3   OH275780   4.738   5.354  15.425 -0.6726  0.3105  0.1660
18122TIP3    H175781   4.660   5.411  15.421  0.2745  1.6346  0.0571
18122TIP3    H275782   4.746   5.332  15.517 -1.0871  0.3038  0.2038
18123TIP3   OH275783   5.337   5.565  14.669  0.4149  0.6263 -0.6821
18123TIP3    H175784   5.366   5.600  14.585 -1.0782  1.6671 -0.7844
18123TIP3    H275785   5.259   5.515  14.648 -0.1078  1.0949  0.1143
18124TIP3   OH275786   6.769   2.479  15.880 -0.0659  0.3520  0.3160
18124TIP3    H175787   6.850   2.469  15.931  0.1313  0.2789 -0.0098
18124TIP3    H275788   6.701   2.491  15.946 -0.3096 -2.9086  0.7667
18125TIP3   OH275789   3.909   3.456  13.548 -0.4179 -0.2399 -0.3854
18125TIP3    H175790   3.921   3.544  13.513  0.7755 -0.0629  0.4577
18125TIP3    H275791   3.822   3.459  13.590  0.2052  0.9489  0.8477
18126TIP3   OH275792   4.372   3.001  11.946  0.1471 -0.9099  0.1002
18126TIP3    H175793   4.340   2.968  12.030 -1.0004  0.8311  0.3718
18126TIP3    H275794   4.463   2.973  11.943  0.4381 -0.3226  2.2942
18127TIP3   OH275795   1.472   0.968   4.956 -0.2385 -0.7699 -0.0694
18127TIP3    H175796   1.413   0.899   4.987 -1.6997  0.5108  0.0612
18127TIP3    H275797   1.484   0.949   4.863 -2.3747  0.0220 -0.5232
18128TIP3   OH275798   0.796   6.537   3.522 -0.2049  0.4940  0.5840
18128TIP3    H175799   0.724   6.527   3.458  0.4120  0.4577 -0.1115
18128TIP3    H275800   0.788   6.459   3.578 -1.6524  1.2581  1.4796
18129TIP3   OH275801   5.877   4.045   3.596  0.5145  0.8997 -0.1813
18129TIP3    H175802   5.929   4.100   3.654 -0.3464  0.3407  1.1488
18129TIP3    H275803   5.815   4.106   3.553 -0.1117  1.0442  0.9174
18130TIP3   OH275804   6.744   5.528   2.957 -0.2031 -0.4406  0.1455
18130TIP3    H175805   6.761   5.585   3.031 -0.3446 -1.2014  0.7739
18130TIP3    H275806   6.667   5.566   2.914  0.2148  0.3105  0.0680
18131TIP3   OH275807   0.933   2.503  15.625  0.1738 -0.6918  0.2537
18131TIP3    H175808   0.891   2.453  15.696  0.3865  1.1645  1.7496
18131TIP3    H275809   0.898   2.465  15.545  0.0493 -2.9761  1.3442
18132TIP3   OH275810   2.887   0.088  13.816  0.3117 -0.4102 -0.5480
18132TIP3    H175811   2.934   0.108  13.898 -0.9900  0.8300 -0.0877
18132TIP3    H275812   2.852   0.172  13.788  1.7693 -0.5945 -3.0591
18133TIP3   OH275813   0.184   1.060  16.783  0.6607 -0.3794  0.0314
18133TIP3    H175814   0.227   1.018  16.709 -1.9892  1.0428 -2.3895
18133TIP3    H275815   0.106   1.007  16.799 -0.2583  0.9422 -0.0452
18134TIP3   OH275816   2.506   4.562  11.526  0.0216 -0.1427  0.1972
18134TIP3    H175817   2.501   4.489  11.464  2.8841  1.2397 -1.7214
18134TIP3    H275818   2.531   4.520  11.609 -2.7670 -1.8404  0.2814
18135TIP3   OH275819   5.887   4.120  11.855  0.1002  0.7424  0.4770
18135TIP3    H175820   5.862   4.184  11.789 -1.2754  0.5501  0.8046
18135TIP3    H275821   5.873   4.164  11.939 -0.0758  0.3058  0.6825
18136TIP3   OH275822   5.050   0.996   4.026 -0.5136 -0.0521  0.3251
18136TIP3    H175823   5.118   0.975   4.090 -1.0583 -0.5514  0.7449
18136TIP3    H275824   5.034   0.914   3.980  0.7761  0.5969 -1.3286
18137TIP3   OH275825   2.088   4.083   3.186  0.3224 -0.7865  0.5146
18137TIP3    H175826   2.115   4.173   3.206  0.1290 -0.4135 -0.8404
18137TIP3    H275827   2.136   4.029   3.248  1.3815  0.1661  0.5471
18138TIP3   OH275828   5.629   0.180   1.962  0.2086  0.2885  0.4628
18138TIP3    H175829   5.607   0.232   2.039  1.1579  1.6332 -0.1582
18138TIP3    H275830   5.661   0.097   1.998  0.7641  0.9451  1.5305
18139TIP3   OH275831   3.291   0.455   1.812 -0.1407 -0.2077  0.3520
18139TIP3    H175832   3.266   0.394   1.882  1.6521 -0.2442  0.9930
18139TIP3    H275833   3.315   0.535   1.858  1.3994 -0.3502 -0.1794
18140TIP3   OH275834   2.661   5.863  14.674 -0.0536 -0.3001  0.3137
18140TIP3    H175835   2.572   5.847  14.704 -0.5817  0.5848 -0.7345
18140TIP3    H275836   2.715   5.860  14.753 -0.8752 -1.7531  0.8380
18141TIP3   OH275837   0.889   0.512   5.178 -0.2952 -0.5461  0.1259
18141TIP3    H175838   0.936   0.522   5.260  0.5384  0.8638 -0.5070
18141TIP3    H275839   0.949   0.546   5.111 -1.8346  0.4085 -0.8021
18142TIP3   OH275840   3.896   6.437   5.684 -0.0417 -0.5720  0.7727
18142TIP3    H175841   3.939   6.356   5.657  1.2720 -0.1171  1.4938
18142TIP3    H275842   3.898   6.435   5.779 -0.5910  0.0101  0.8033
18143TIP3   OH275843   6.397   5.949   3.808  0.1350 -1.3455  0.4731
18143TIP3    H175844   6.372   5.964   3.899  3.8072  0.2506  1.3053
18143TIP3    H275845   6.443   5.865   3.809  0.8123 -0.9843  0.2564
18144TIP3   OH275846   2.069   4.270   3.921  0.3548  0.1004 -0.8464
18144TIP3    H175847   2.012   4.263   3.998  1.8925 -0.9346  0.2287
18144TIP3    H275848   2.009   4.290   3.849 -1.0973  1.3266  0.6457
18145TIP3   OH275849   5.091   0.389   2.766  0.1867  0.4697  0.6799
18145TIP3    H175850   5.171   0.375   2.716  0.2637  0.2648  0.8647
18145TIP3    H275851   5.021   0.388   2.700  0.1424 -1.2036  0.7525
18146TIP3   OH275852   4.880   1.606   5.352  0.2173 -0.5795  0.3376
18146TIP3    H175853   4.901   1.680   5.409  2.7591 -0.8273 -0.1997
18146TIP3    H275854   4.878   1.531   5.412  1.1966 -0.5887  0.3677
18147TIP3   OH275855   0.388   2.906   1.773  0.3257  0.0718 -0.6376
18147TIP3    H175856   0.334   2.946   1.841 -0.5749  0.0408 -1.3140
18147TIP3    H275857   0.368   2.812   1.779  1.3703 -0.1190  0.0224
18148TIP3   OH275858   5.123   2.855  15.139  0.2655 -0.1848 -0.2293
18148TIP3    H175859   5.033   2.858  15.169  0.0832 -2.0054 -0.5437
18148TIP3    H275860   5.138   2.942  15.100 -1.0437  0.4398  0.6283
18149TIP3   OH275861   5.801   1.299  11.277 -0.0918  0.6519 -0.1505
18149TIP3    H175862   5.825   1.314  11.186  0.1135  2.3232  0.1625
18149TIP3    H275863   5.707   1.277  11.274  0.1830 -0.4848 -0.8561
18150TIP3   OH275864   3.651   3.704   3.353 -0.1518  0.3553  0.4366
18150TIP3    H175865   3.612   3.729   3.269 -0.2486 -0.0627  0.3571
18150TIP3    H275866   3.731   3.756   3.359 -0.8890  1.4546  0.7487
18151TIP3   OH275867   4.411   3.060  14.719 -0.2696 -0.0987  0.8133
18151TIP3    H175868   4.350   3.123  14.680 -0.4379  0.5834  2.1690
18151TIP3    H275869   4.370   2.975  14.704  0.7445 -0.0942 -2.5144
18152TIP3   OH275870   1.975   1.696   3.553 -0.2757  0.4301 -0.0140
18152TIP3    H175871   1.922   1.651   3.488 -2.1107  0.7535  1.2338
18152TIP3    H275872   1.985   1.633   3.624  1.7678  0.0576 -0.5819
18153TIP3   OH275873   2.567   4.598  16.389  0.4321 -0.8040  0.0939
18153TIP3    H175874   2.485   4.598  16.440 -0.2932 -0.8298 -1.0474
18153TIP3    H275875   2.615   4.521  16.421 -0.5201 -1.4716 -0.0368
18154TIP3   OH275876   3.376   6.394  16.506 -0.1015  0.6475 -0.0939
18154TIP3    H175877   3.395   6.392  16.412  0.4857  1.1302  0.0116
18154TIP3    H275878   3.462   6.391  16.548 -0.3861 -0.4432  0.4465
18155TIP3   OH275879   2.114   1.819  14.448  0.5021  0.1681  0.5087
18155TIP3    H175880   2.131   1.730  14.419 -4.2544 -0.2301 -1.4894
18155TIP3    H275881   2.155   1.874  14.381  0.2358 -0.5930 -0.2904
18156TIP3   OH275882   3.326   2.103  12.771  0.4371  0.5582 -0.3332
18156TIP3    H175883   3.287   2.066  12.851 -1.2158 -0.0850 -1.4068
18156TIP3    H275884   3.357   2.027  12.723  0.5865  0.8810 -0.7469
18157TIP3   OH275885   5.589   2.971   3.174  0.1404 -0.0027  0.2436
18157TIP3    H175886   5.564   2.894   3.123  1.0659  0.5436 -1.0687
18157TIP3    H275887   5.524   2.975   3.245  0.0252 -1.9201  0.2784
18158TIP3   OH275888   3.990   0.948  14.121  0.3314  0.2544  0.6137
18158TIP3    H175889   4.029   0.901  14.194  0.7592 -1.7226 -0.8503
18158TIP3    H275890   3.896   0.938  14.133  0.4053 -0.2815  0.7570
18159TIP3   OH275891   1.519   2.644  15.294  0.2402  0.1038 -0.8201
18159TIP3    H175892   1.452   2.600  15.345  0.1095  0.5145 -0.6326
18159TIP3    H275893   1.583   2.576  15.273  0.5585  0.0428  0.3317
18160TIP3   OH275894   6.528   2.495   1.367 -0.1747  0.2767 -0.1129
18160TIP3    H175895   6.541   2.548   1.289  0.0178 -0.2321 -0.4238
18160TIP3    H275896   6.529   2.558   1.439  1.1609  0.5630 -0.3807
18161TIP3   OH275897   3.435   4.648   0.452  0.1806 -0.3580 -0.3105
18161TIP3    H175898   3.345   4.679   0.444  0.5146  0.3485 -1.5764
18161TIP3    H275899   3.434   4.560   0.415  0.3260  0.2761 -1.8626
18162TIP3   OH275900   3.615   4.745   4.446  0.3665  0.0985  0.1214
18162TIP3    H175901   3.547   4.765   4.381  0.2095 -0.2374  0.1814
18162TIP3    H275902   3.678   4.817   4.437  0.9128 -0.5162 -1.1684
18163TIP3   OH275903   5.129   4.402   1.741 -0.4213 -0.2217  0.3618
18163TIP3    H175904   5.036   4.398   1.762  0.1214 -2.2051  2.5894
18163TIP3    H275905   5.164   4.468   1.800 -0.3461  0.2594 -0.2179
18164TIP3   OH275906   5.780   6.600   0.180 -0.2830  0.5731  0.3674
18164TIP3    H175907   5.801   6.652   0.258 -1.9906 -0.1366  1.3416
18164TIP3    H275908   5.790   6.661   0.107  1.6895  1.1537  1.1007
18165TIP3   OH275909   1.794   3.289   1.699 -0.4712 -0.2499  0.1190
18165TIP3    H175910   1.703   3.261   1.703 -0.4046 -0.5806 -0.5535
18165TIP3    H275911   1.797   3.369   1.752 -1.2229 -0.0549 -0.1215
18166TIP3   OH275912   2.624   0.192   5.785 -0.0592  0.3262  0.6631
18166TIP3    H175913   2.700   0.218   5.733 -1.0312 -1.5604 -1.7675
18166TIP3    H275914   2.566   0.269   5.782  0.2770  0.5543 -0.3155
18167TIP3   OH275915   4.731   6.292  13.469  0.0643 -0.7554 -0.1278
18167TIP3    H175916   4.725   6.197  13.458  0.6285 -0.9987  1.6008
18167TIP3    H275917   4.824   6.312  13.458 -0.1835 -0.2674 -1.4354
18168TIP3   OH275918   5.677   0.244   0.598  0.2273 -0.1729 -0.4571
18168TIP3    H175919   5.653   0.246   0.505  1.2474 -0.0706 -0.7150
18168TIP3    H275920   5.765   0.208   0.600 -0.2194 -1.2684  0.5725
18169TIP3   OH275921   4.298   1.978  16.934 -0.0940  0.0867  0.2579
18169TIP3    H175922   4.378   2.020  16.965 -0.6371  1.4964 -0.2090
18169TIP3    H275923   4.272   2.029  16.856 -0.4857 -1.4300 -0.6228
18170TIP3   OH275924   0.758   6.267   4.889  0.2166  0.3585  0.3107
18170TIP3    H175925   0.702   6.200   4.849  2.2194 -1.3504  0.2151
18170TIP3    H275926   0.756   6.340   4.827  0.3263 -0.8028 -1.1098
18171TIP3   OH275927   1.784   1.576   3.355 -0.1959 -0.0271 -0.6661
18171TIP3    H175928   1.688   1.571   3.354 -0.3132  1.2441  1.0676
18171TIP3    H275929   1.811   1.499   3.405 -0.4493  0.7220  0.6617
18172TIP3   OH275930   3.656   0.553   2.853  0.1632 -0.3360 -0.1271
18172TIP3    H175931   3.564   0.553   2.880 -0.0712  0.6916 -0.8902
18172TIP3    H275932   3.654   0.584   2.762  1.2249 -0.7347 -0.2839
18173TIP3   OH275933   4.637   1.255  13.438  0.0870  0.1922 -0.5109
18173TIP3    H175934   4.593   1.286  13.516  0.9360  0.3321 -0.0821
18173TIP3    H275935   4.571   1.261  13.369 -0.9169 -0.7181  0.3581
18174TIP3   OH275936   2.364   3.698   4.910  0.0651  0.3164  0.2179
18174TIP3    H175937   2.277   3.738   4.908 -0.7829 -1.5019  0.1611
18174TIP3    H275938   2.381   3.670   4.820  0.1594 -0.4695  0.4724
18175TIP3   OH275939   4.539   1.277   3.523  0.0274  0.0076  0.8194
18175TIP3    H175940   4.566   1.206   3.581  0.7824 -0.5672 -0.2211
18175TIP3    H275941   4.457   1.309   3.560  1.1670  0.5486  3.0032
18176TIP3   OH275942   3.179   2.400   5.449 -0.0693 -0.8506  0.1964
18176TIP3    H175943   3.204   2.386   5.358  1.4931 -2.3973  0.8455
18176TIP3    H275944   3.084   2.417   5.446  0.2416  0.6604 -1.8506
18177TIP3   OH275945   5.507   3.561  14.009 -0.3837 -0.0165 -0.3782
18177TIP3    H175946   5.525   3.654  13.992 -2.5074  0.4803 -0.0377
18177TIP3    H275947   5.588   3.528  14.048  0.8679  1.3630 -1.7328
18178TIP3   OH275948   3.883   2.803  17.200 -0.0764 -0.4874 -0.5560
18178TIP3    H175949   3.968   2.844  17.218 -0.5673  0.7437 -1.0139
18178TIP3    H275950   3.860   2.759  17.282  1.2615 -1.3214 -0.5996
18179TIP3   OH275951   0.448   2.773   5.928 -0.3755 -0.1181  0.0688
18179TIP3    H175952   0.518   2.814   5.979  1.9848 -0.6646 -2.5940
18179TIP3    H275953   0.459   2.679   5.943  1.8596 -0.4668 -3.1394
18180TIP3   OH275954   6.027   1.875  17.198 -0.0313  0.0738  0.2668
18180TIP3    H175955   5.932   1.871  17.207  0.0081 -1.0965  0.1790
18180TIP3    H275956   6.042   1.930  17.121 -0.6315  0.1253  0.1872
18181TIP3   OH275957   3.730   6.430   4.922  0.4673 -0.1431 -0.1316
18181TIP3    H175958   3.687   6.384   4.849 -0.2463 -1.7747  1.2819
18181TIP3    H275959   3.823   6.424   4.902  0.2689 -0.4596 -0.9891
18182TIP3   OH275960   2.815   6.019  15.428 -0.1059  0.0136 -0.1545
18182TIP3    H175961   2.790   6.068  15.349  0.9565  0.4505 -0.2234
18182TIP3    H275962   2.839   5.932  15.396  1.6867  0.6203 -0.4855
18183TIP3   OH275963   5.934   3.321  13.110  0.1423 -0.3645  0.3471
18183TIP3    H175964   5.956   3.318  13.203  0.4917 -0.4303  0.2607
18183TIP3    H275965   5.909   3.231  13.088  1.3163 -0.6345  0.0729
18184TIP3   OH275966   3.936   0.419   2.953 -0.0441  0.0854  0.1403
18184TIP3    H175967   3.912   0.415   2.861 -1.1885  1.2967  0.3746
18184TIP3    H275968   3.938   0.328   2.982 -0.4072 -0.2471 -0.8889
18185TIP3   OH275969   0.057   6.423   2.854 -0.0066 -0.3782  0.4682
18185TIP3    H175970   0.073   6.429   2.760 -0.1931  1.4683  0.5399
18185TIP3    H275971   0.025   6.334   2.867 -2.3686  0.1211 -1.5919
18186TIP3   OH275972   2.261   1.042   3.645 -0.0029 -0.1489  0.5956
18186TIP3    H175973   2.294   0.999   3.724  2.2304 -0.6259 -0.5329
18186TIP3    H275974   2.294   0.987   3.573 -1.4463  0.6355 -0.6774
18187TIP3   OH275975   6.327   3.358   0.146 -0.9657 -0.2971  1.0919
18187TIP3    H175976   6.345   3.268   0.119  1.4673 -0.2611  2.4426
18187TIP3    H275977   6.360   3.363   0.236 -1.2998  1.8778  1.1227
18188TIP3   OH275978   0.347   4.804   2.327  0.8282 -0.8138  0.5650
18188TIP3    H175979   0.373   4.802   2.419  0.9262 -0.7530  0.5391
18188TIP3    H275980   0.428   4.785   2.279  0.7816 -0.8245  0.4913
18189TIP3   OH275981   1.284   3.438  11.203  0.3118  0.3423 -0.5402
18189TIP3    H175982   1.294   3.366  11.265 -0.9725  0.2651 -0.4138
18189TIP3    H275983   1.370   3.446  11.161  0.1262 -2.0483 -1.4351
18190TIP3   OH275984   4.709   0.744  11.874  0.0144  1.0567  0.0492
18190TIP3    H175985   4.786   0.800  11.877 -0.1737  1.2604  1.6345
18190TIP3    H275986   4.686   0.730  11.966 -1.1352  0.0328 -0.3769
18191TIP3   OH275987   2.628   2.111   3.091  0.4416  0.7402  0.1432
18191TIP3    H175988   2.547   2.112   3.142  0.2643 -1.2743 -0.0647
18191TIP3    H275989   2.667   2.197   3.106 -0.4866  0.8152  2.2847
18192TIP3   OH275990   2.683   3.728   5.651 -0.1710  0.6900 -0.0923
18192TIP3    H175991   2.747   3.666   5.616 -0.5096  0.6126 -0.5749
18192TIP3    H275992   2.642   3.682   5.724 -1.2842 -0.1200 -1.2056
18193TIP3   OH275993   3.989   4.263   1.233 -0.1037  0.4406 -0.0282
18193TIP3    H175994   4.015   4.172   1.248 -0.5926  0.3894  0.5051
18193TIP3    H275995   3.950   4.262   1.145  0.0759  0.1750 -0.1068
18194TIP3   OH275996   4.148   5.502   3.632 -0.1132 -0.0643  0.3174
18194TIP3    H175997   4.224   5.487   3.690  1.0138  2.3259 -0.5171
18194TIP3    H275998   4.105   5.579   3.668  0.2086  1.0451 -1.6130
18195TIP3   OH275999   5.141   6.369  11.672  0.2279  0.0223 -0.4846
18195TIP3    H176000   5.085   6.299  11.705  0.4881 -0.0366 -0.1557
18195TIP3    H276001   5.081   6.437  11.641 -0.0216 -0.1838 -0.4466
18196TIP3   OH276002   0.137   0.670   1.387 -0.8245 -0.2611  0.0825
18196TIP3    H176003   0.118   0.582   1.355  0.2975  0.3960 -2.5219
18196TIP3    H276004   0.232   0.678   1.384 -0.8740  0.8965  0.7606
18197TIP3   OH276005   4.506   4.284  14.727 -0.3910 -0.3064  0.3699
18197TIP3    H176006   4.598   4.260  14.726 -0.6722 -1.4382  0.6528
18197TIP3    H276007   4.506   4.379  14.734  0.7530 -0.2941  0.2938
18198TIP3   OH276008   1.611   0.402   0.733 -0.5175  0.5223 -0.0796
18198TIP3    H176009   1.697   0.373   0.762 -0.4190  1.4785  0.6422
18198TIP3    H276010   1.575   0.329   0.683  0.1917 -0.3608  0.7010
18199TIP3   OH276011   1.320   6.765  13.674 -0.4541 -0.5252  0.1010
18199TIP3    H176012   1.407   6.806  13.681 -1.1392  0.9747  0.0822
18199TIP3    H276013   1.273   6.796  13.751 -1.2358 -0.6917 -0.3031
18200TIP3   OH276014   3.657   3.044   3.453 -0.8549 -0.2659  0.4695
18200TIP3    H176015   3.611   3.127   3.442  0.1800  0.3915  0.9745
18200TIP3    H276016   3.596   2.988   3.500 -1.8399 -0.0459 -0.5289
18201TIP3   OH276017   1.084   6.230   2.809 -0.3379  0.6473  0.1207
18201TIP3    H176018   1.017   6.180   2.856  0.2439  1.4138  1.8100
18201TIP3    H276019   1.167   6.199   2.846 -0.0169  3.6254  2.0321
18202TIP3   OH276020   2.933   2.843   3.975 -0.0511  0.4181 -0.1330
18202TIP3    H176021   2.971   2.783   4.039 -0.4805 -0.2121 -0.4670
18202TIP3    H276022   2.851   2.872   4.014 -0.5955 -0.4145 -0.6400
18203TIP3   OH276023   2.683   5.539   3.645 -0.1964 -0.0362 -0.2590
18203TIP3    H176024   2.776   5.561   3.635 -0.3089  0.0575 -1.0979
18203TIP3    H276025   2.662   5.564   3.735  0.6410 -0.2393 -0.0053
18204TIP3   OH276026   1.218   4.284  13.247  0.5381  0.0623  0.1213
18204TIP3    H176027   1.176   4.226  13.183  1.7258 -0.8996  0.1995
18204TIP3    H276028   1.147   4.311  13.305  0.0309 -1.6378  0.3209
18205TIP3   OH276029   3.941   1.528  12.460 -0.0968 -0.2130  0.1419
18205TIP3    H176030   4.032   1.529  12.489 -0.2318  1.3420  0.5216
18205TIP3    H276031   3.945   1.487  12.373  0.9082 -0.4812  0.3039
18206TIP3   OH276032   5.666   6.743  16.250  0.3300  0.3424  0.1171
18206TIP3    H176033   5.757   6.742  16.277  0.6844  2.2215 -0.9450
18206TIP3    H276034   5.668   6.713  16.159 -0.2103 -0.4493  0.3638
18207TIP3   OH276035   3.737   4.088   1.112 -0.1491  0.2275  0.0563
18207TIP3    H176036   3.791   4.103   1.034 -0.5936  2.9547  0.2008
18207TIP3    H276037   3.799   4.072   1.182  0.2693 -1.8065 -0.7433
18208TIP3   OH276038   3.484   3.917  12.302  0.2152  0.0798  0.0273
18208TIP3    H176039   3.532   4.000  12.304 -0.4564  0.4599  0.8158
18208TIP3    H276040   3.449   3.911  12.213 -1.2552  1.5426  0.4764
18209TIP3   OH276041   0.323   1.176   2.293 -0.3646  0.2229  0.1051
18209TIP3    H176042   0.313   1.148   2.202 -0.4429  1.3714 -0.2441
18209TIP3    H276043   0.311   1.096   2.344  2.4360 -0.9683 -1.0281
18210TIP3   OH276044   4.520   3.161   0.719  0.5574  0.3980 -0.4623
18210TIP3    H176045   4.555   3.075   0.693 -0.0972  0.4845 -1.6444
18210TIP3    H276046   4.592   3.202   0.767  0.9859 -0.6912 -0.1535
18211TIP3   OH276047   2.539   0.602   4.059  0.0989  0.2684 -0.4764
18211TIP3    H176048   2.566   0.598   4.151  0.4650  1.5752 -0.5245
18211TIP3    H276049   2.466   0.664   4.058 -0.1651 -0.0457 -1.0119
18212TIP3   OH276050   6.021   3.890  11.776  0.5891 -0.3186 -0.2608
18212TIP3    H176051   5.977   3.969  11.808  0.6282 -0.4155  0.0355
18212TIP3    H276052   6.067   3.918  11.697 -1.2120 -0.5413 -1.4264
18213TIP3   OH276053   2.423   4.539   6.341  0.2662  0.2271  0.1924
18213TIP3    H176054   2.502   4.547   6.287  1.0993 -1.9902  1.0280
18213TIP3    H276055   2.456   4.537   6.431 -0.5948 -2.0906  0.4931
18214TIP3   OH276056   3.827   3.842   6.431  0.1137 -0.1973  0.3175
18214TIP3    H176057   3.853   3.934   6.426  1.9403 -0.7255 -0.4487
18214TIP3    H276058   3.825   3.823   6.525 -0.5275  0.6790  0.4902
18215TIP3   OH276059   5.154   0.512  12.865  0.2774  0.3738  0.2886
18215TIP3    H176060   5.078   0.467  12.901 -0.8726  1.9274 -0.1006
18215TIP3    H276061   5.192   0.450  12.803 -2.5005  0.6154 -1.8093
18216TIP3   OH276062   0.400   1.473  13.825 -0.0173 -0.0023  0.0528
18216TIP3    H176063   0.435   1.522  13.751 -1.5157  0.2378 -0.5201
18216TIP3    H276064   0.413   1.381  13.802 -2.7070 -0.0048 -1.6729
18217TIP3   OH276065   1.630   0.350  17.110 -0.2161  0.1244  0.2516
18217TIP3    H176066   1.607   0.324  17.200 -3.5343  0.7682 -0.3153
18217TIP3    H276067   1.599   0.441  17.104  1.2221  0.5311 -1.1405
18218TIP3   OH276068   4.264   3.582   0.490 -0.3510  0.4145 -0.5610
18218TIP3    H176069   4.224   3.653   0.441 -2.7511  1.1472  2.3057
18218TIP3    H276070   4.347   3.618   0.522 -0.8707  1.4411 -0.3486
18219TIP3   OH276071   6.127   6.405  12.572  0.4982 -0.1773  0.2820
18219TIP3    H176072   6.222   6.393  12.566  0.3649 -0.5379 -1.0405
18219TIP3    H276073   6.116   6.500  12.579  0.9648 -0.1516  0.7114
18220TIP3   OH276074   5.161   3.853   6.358 -0.3715  0.0233  0.2598
18220TIP3    H176075   5.139   3.892   6.442 -0.5456 -0.2647  0.3474
18220TIP3    H276076   5.195   3.766   6.380 -0.7934 -0.2068  0.0077
18221TIP3   OH276077   4.452   2.083   3.367 -0.1808 -0.0048  0.3307
18221TIP3    H176078   4.369   2.116   3.330  0.1710  0.9115  0.3314
18221TIP3    H276079   4.519   2.137   3.325  0.5364 -1.7402 -0.7886
18222TIP3   OH276080   5.713   3.139   1.880  0.2591  0.2473 -0.2269
18222TIP3    H176081   5.665   3.056   1.882 -1.2390  1.1224  0.4418
18222TIP3    H276082   5.649   3.204   1.852  1.3282  1.2561 -0.3985
18223TIP3   OH276083   3.394   6.367   1.085 -0.3257  0.1649  0.7753
18223TIP3    H176084   3.330   6.320   1.031  0.5548 -0.5069  0.3010
18223TIP3    H276085   3.381   6.334   1.173  0.6823 -1.4207  0.3449
18224TIP3   OH276086   1.111   2.390   4.021  0.4232  0.6207 -0.1272
18224TIP3    H176087   1.203   2.368   4.003  0.3968 -0.2686  0.8111
18224TIP3    H276088   1.086   2.333   4.093 -1.4605 -0.5557 -1.6772
18225TIP3   OH276089   1.932   0.451   3.802  0.4507  0.3152 -0.2888
18225TIP3    H176090   1.896   0.389   3.865  1.2407  0.6278  0.4785
18225TIP3    H276091   1.962   0.525   3.855 -0.7226  1.4952 -1.1960
18226TIP3   OH276092   6.279   5.074  14.228  0.0308  0.3761 -0.3128
18226TIP3    H176093   6.186   5.084  14.211 -0.0692  1.2763  0.7112
18226TIP3    H276094   6.287   5.076  14.324  1.1179  0.5034 -0.3942
18227TIP3   OH276095   3.928   2.661  14.207 -0.3108 -0.1252  1.5297
18227TIP3    H176096   3.941   2.695  14.296 -0.7420  1.4584  1.0118
18227TIP3    H276097   3.833   2.657  14.196 -0.2599 -0.0002  1.0269
18228TIP3   OH276098   6.384   3.650  15.930 -0.1183 -0.4174 -0.1055
18228TIP3    H176099   6.306   3.687  15.888 -0.4856 -0.2249  0.7394
18228TIP3    H276100   6.453   3.661  15.865 -0.6598 -0.0276 -0.6218
18229TIP3   OH276101   5.114   2.651  15.921  0.1739 -0.0628  0.1128
18229TIP3    H176102   5.020   2.641  15.906  0.7763 -1.5084 -2.9174
18229TIP3    H276103   5.144   2.563  15.944  0.9734  0.1687 -0.0315
18230TIP3   OH276104   4.979   6.368  13.287 -0.1860 -0.0331  0.3123
18230TIP3    H176105   5.066   6.330  13.277  0.2980  1.5591 -2.1267
18230TIP3    H276106   4.922   6.313  13.232  0.0838  1.3451 -1.3784
18231TIP3   OH276107   3.849   4.293  11.180  0.8886  0.2592 -0.4024
18231TIP3    H176108   3.940   4.272  11.158  1.1875  1.5145 -0.3995
18231TIP3    H276109   3.855   4.368  11.240 -0.0496 -1.1935  1.5638
18232TIP3   OH276110   2.213   1.871  16.992  0.4717 -0.2474 -0.4323
18232TIP3    H176111   2.126   1.882  17.032  1.1944 -0.8912  1.3757
18232TIP3    H276112   2.218   1.778  16.971  0.3092 -0.0070 -1.5322
18233TIP3   OH276113   4.641   5.513  13.536  0.1840  0.0953  0.4709
18233TIP3    H176114   4.700   5.517  13.461 -2.3500  1.1284 -1.5440
18233TIP3    H276115   4.634   5.604  13.566 -0.8345  0.0981  0.2669
18234TIP3   OH276116   6.495   1.113   3.171 -0.1003 -0.2718 -0.2456
18234TIP3    H176117   6.490   1.019   3.152 -2.2508  0.0985 -1.7117
18234TIP3    H276118   6.494   1.119   3.266 -0.0002 -1.7488 -0.1481
18235TIP3   OH276119   3.317   6.596   4.192  0.0526 -0.0290  0.1488
18235TIP3    H176120   3.352   6.647   4.119 -0.2795 -0.7544 -0.5242
18235TIP3    H276121   3.311   6.659   4.264  0.3914  0.6900 -0.4400
18236TIP3   OH276122   2.537   3.839  16.818  0.0587 -0.6000 -0.0894
18236TIP3    H176123   2.560   3.802  16.733 -1.1734 -0.0367 -0.6852
18236TIP3    H276124   2.446   3.813  16.831  0.6039 -1.7335  1.6343
18237TIP3   OH276125   3.492   5.154   0.860  0.1096 -0.3710 -0.2520
18237TIP3    H176126   3.575   5.113   0.834 -0.0351 -1.2184  0.5821
18237TIP3    H276127   3.516   5.211   0.934 -0.1861 -1.3486  0.6201
18238TIP3   OH276128   6.749   2.551  11.889  0.1261  0.1044  0.0406
18238TIP3    H176129   6.829   2.577  11.935  1.1080 -0.2971 -1.4074
18238TIP3    H276130   6.679   2.596  11.935  1.2600  1.0311  0.8850
18239TIP3   OH276131   0.485   3.335   2.777  0.1416 -0.7059 -0.1882
18239TIP3    H176132   0.392   3.326   2.798  0.3298 -2.1746  0.0482
18239TIP3    H276133   0.493   3.302   2.688  0.3733 -0.2379 -0.3404
18240TIP3   OH276134   0.031   2.968   3.230  0.1578 -0.1073 -0.3196
18240TIP3    H176135   0.064   3.022   3.159 -1.9104  1.1835 -0.3440
18240TIP3    H276136   0.105   2.914   3.256  1.0606 -0.3156 -3.1677
18241TIP3   OH276137   2.360   2.395   2.918 -0.4235  0.3219  0.3393
18241TIP3    H176138   2.350   2.438   2.833 -0.6591 -0.7354 -0.1768
18241TIP3    H276139   2.420   2.322   2.901 -0.8160 -0.1574  0.9891
18242TIP3   OH276140   4.293   1.493   5.362 -0.0837  0.0584  0.4426
18242TIP3    H176141   4.352   1.427   5.326 -2.4397 -1.7647 -0.2276
18242TIP3    H276142   4.253   1.534   5.285  0.4497  1.4155  0.8819
18243TIP3   OH276143   0.080   1.946  11.302 -0.3336  0.4036  0.0223
18243TIP3    H176144   0.140   2.006  11.257  0.3873 -1.3926 -1.4696
18243TIP3    H276145   0.083   1.866  11.251 -2.1631 -0.5475  1.3405
18244TIP3   OH276146   2.128   0.848   5.270 -0.0385  0.3282 -0.2779
18244TIP3    H176147   2.146   0.907   5.343  3.3372  0.1695 -0.8852
18244TIP3    H276148   2.103   0.765   5.312 -2.0172  1.3397  0.5968
18245TIP3   OH276149   1.006   2.005   1.365  0.0404  0.3963  0.4067
18245TIP3    H176150   0.938   2.064   1.397 -1.5485 -1.6777  0.9855
18245TIP3    H276151   0.972   1.974   1.281  0.8174  0.2607  0.1470
18246TIP3   OH276152   3.156   4.378   0.068 -0.0620 -0.7131 -0.0186
18246TIP3    H176153   3.070   4.336   0.074  0.0214 -1.0680 -1.2021
18246TIP3    H276154   3.140   4.458   0.017  0.4920 -1.3104 -1.1418
18247TIP3   OH276155   5.438   0.598  12.181  0.2372 -0.1282  0.1422
18247TIP3    H176156   5.440   0.593  12.086  1.2051 -0.4658  0.1814
18247TIP3    H276157   5.443   0.691  12.201 -0.1880 -0.0450 -0.1407
18248TIP3   OH276158   2.372   4.767   2.170 -0.2085  0.1769  0.2634
18248TIP3    H176159   2.446   4.715   2.138 -0.5650 -0.9800  1.2870
18248TIP3    H276160   2.295   4.710   2.157 -0.3658 -0.3492  3.1353
18249TIP3   OH276161   5.533   0.273   1.718  0.3447  0.0692  0.1528
18249TIP3    H176162   5.569   0.256   1.805  2.1005  3.4032  0.1672
18249TIP3    H276163   5.602   0.321   1.673 -1.3420  0.2067 -2.3660
18250TIP3   OH276164   5.309   0.431  10.716 -0.2619 -0.5557 -0.2530
18250TIP3    H176165   5.385   0.423  10.773 -0.4140 -0.1661  0.0036
18250TIP3    H276166   5.344   0.463  10.633 -0.4109  1.6319  0.5044
18251TIP3   OH276167   5.345   5.999  17.121  0.3688  0.6097 -0.5081
18251TIP3    H176168   5.334   6.086  17.083  0.4583  0.6406 -0.4631
18251TIP3    H276169   5.396   5.951  17.056 -2.1631 -0.2967 -1.9001
18252TIP3   OH276170   5.694   4.464   1.678 -0.3698  0.1084  0.4392
18252TIP3    H176171   5.740   4.428   1.602  0.3751  2.3888 -0.2448
18252TIP3    H276172   5.752   4.534   1.710 -1.5661  0.4365  1.9440
18253TIP3   OH276173   6.297   3.063   0.497 -0.4424 -0.0345 -0.1913
18253TIP3    H176174   6.369   3.063   0.559  0.1605 -0.5804 -0.8861
18253TIP3    H276175   6.265   3.153   0.497  0.0934  0.1586  0.2784
18254TIP3   OH276176   1.817   0.316  15.366  0.4215  0.4987  0.2507
18254TIP3    H176177   1.776   0.232  15.386 -0.9620  1.0711 -0.1057
18254TIP3    H276178   1.855   0.305  15.279  1.2678 -0.1102  0.6871
18255TIP3   OH276179   0.930   3.064  14.457 -0.0776  0.1129  0.5425
18255TIP3    H176180   0.897   3.142  14.412  0.9849  1.9650  2.9081
18255TIP3    H276181   0.860   2.999  14.444 -1.9471  2.0794  0.3264
18256TIP3   OH276182   6.539   5.054  12.097  0.2896  0.6705 -0.5284
18256TIP3    H176183   6.621   5.004  12.092  0.4712  0.9461 -0.3338
18256TIP3    H276184   6.472   4.994  12.064  0.5684  0.4364 -0.6660
18257TIP3   OH276185   6.568   0.327   3.208  0.5947  0.6553 -0.5566
18257TIP3    H176186   6.477   0.341   3.182 -0.9996 -4.9972  1.1247
18257TIP3    H276187   6.591   0.405   3.258 -2.9289  2.7080 -1.9465
18258TIP3   OH276188   3.883   5.127   3.998  0.0747 -0.0704 -0.4977
18258TIP3    H176189   3.815   5.186   4.032  0.3263  0.5186 -1.0076
18258TIP3    H276190   3.965   5.173   4.015  0.2570 -0.1579 -1.1325
18259TIP3   OH276191   0.287   5.263   1.561  0.3586  0.2538  0.7527
18259TIP3    H176192   0.195   5.275   1.585  0.7110  1.6262  1.4949
18259TIP3    H276193   0.320   5.352   1.550  1.4649 -0.2491 -0.0565
18260TIP3   OH276194   4.950   3.692  12.879  0.0058 -0.3337 -0.5942
18260TIP3    H176195   5.024   3.723  12.932 -1.6172 -0.1565  1.6670
18260TIP3    H276196   4.900   3.772  12.860 -0.2823 -0.6145 -1.0169
18261TIP3   OH276197   0.593   5.030   4.900 -0.3412 -0.3253  0.6863
18261TIP3    H176198   0.560   4.944   4.874  1.0071 -0.4446 -0.7250
18261TIP3    H276199   0.599   5.026   4.995 -1.8004 -1.2365  0.7414
18262TIP3   OH276200   0.362   4.151  15.630  0.0291  0.4957 -0.2409
18262TIP3    H176201   0.439   4.188  15.672 -0.5356  0.6095  0.7253
18262TIP3    H276202   0.296   4.220  15.637  0.1184  0.7577 -1.9098
18263TIP3   OH276203   4.241   4.936   4.299  0.1552 -0.1402 -0.4943
18263TIP3    H176204   4.154   4.910   4.271 -0.7305  1.6499  0.4720
18263TIP3    H276205   4.232   5.029   4.321  3.0520  0.9143 -3.3526
18264TIP3   OH276206   2.136   5.803   5.533  0.3528 -0.3212 -0.9672
18264TIP3    H176207   2.139   5.719   5.578 -0.0567 -0.3947 -1.0817
18264TIP3    H276208   2.056   5.845   5.564  0.4095 -0.0944 -1.1236
18265TIP3   OH276209   0.241   4.359   6.486  0.1008 -0.8160  0.0352
18265TIP3    H176210   0.221   4.278   6.534  1.1744 -1.6264 -0.8754
18265TIP3    H276211   0.331   4.349   6.457 -1.1647 -1.3680 -4.1160
18266TIP3   OH276212   4.854   0.532   0.426 -0.0195  0.0539  0.1437
18266TIP3    H176213   4.859   0.620   0.390 -0.3410 -0.6782 -1.8002
18266TIP3    H276214   4.779   0.533   0.485  1.0589  1.5286  1.5155
18267TIP3   OH276215   2.890   6.538   2.169  0.3416 -0.4584 -0.1533
18267TIP3    H176216   2.978   6.537   2.205 -0.1788 -2.1919  1.1675
18267TIP3    H276217   2.901   6.568   2.079  2.0956  0.6203  0.3970
18268TIP3   OH276218   4.259   3.509   5.886 -0.3609  0.2775 -0.2125
18268TIP3    H176219   4.170   3.496   5.919 -0.9185  0.0274 -1.7647
18268TIP3    H276220   4.292   3.585   5.933 -1.6188  0.7437 -0.0788
18269TIP3   OH276221   1.022   1.159   0.068  0.3078 -0.9877 -0.4149
18269TIP3    H176222   0.963   1.087   0.088  0.1898 -0.3222  1.8370
18269TIP3    H276223   0.985   1.234   0.115  1.3976  0.1208 -1.2745
18270TIP3   OH276224   2.138   6.713   3.634 -0.0187 -0.4603 -0.5621
18270TIP3    H176225   2.043   6.717   3.645 -0.0662  1.9395 -1.6508
18270TIP3    H276226   2.173   6.737   3.720 -0.4001 -0.7142 -0.3364
18271TIP3   OH276227   0.071   0.525   0.099 -1.0020 -0.7730 -0.0444
18271TIP3    H176228   0.018   0.551   0.023 -2.7650  1.0284  1.7272
18271TIP3    H276229   0.031   0.445   0.130 -0.1652 -1.6145 -1.0973
18272TIP3   OH276230   5.138   5.983   0.378  0.5652  0.3758 -0.5394
18272TIP3    H176231   5.229   5.956   0.394  0.4977  0.1291 -0.5734
18272TIP3    H276232   5.128   6.064   0.429  0.6080  0.0538 -0.0192
18273TIP3   OH276233   0.556   3.098   6.136 -0.3229 -0.4489  0.2392
18273TIP3    H176234   0.584   3.130   6.221  0.9970  0.8376 -0.6434
18273TIP3    H276235   0.470   3.138   6.122  0.5941  1.4218 -0.1341
18274TIP3   OH276236   6.065   3.777  16.787  0.0698 -0.1520 -0.3903
18274TIP3    H176237   6.124   3.708  16.818 -1.2154 -0.5476  1.2365
18274TIP3    H276238   6.007   3.733  16.725 -1.6686 -0.8867  1.7154
18275TIP3   OH276239   2.240   1.888   4.432 -0.5311  0.0600 -0.1078
18275TIP3    H176240   2.334   1.894   4.451 -0.1740 -2.7002 -0.7580
18275TIP3    H276241   2.231   1.920   4.343  0.3227 -2.5116 -1.1841
18276TIP3   OH276242   1.772   5.952   4.261 -0.0617  0.5890  0.3900
18276TIP3    H176243   1.803   5.895   4.190 -0.3688  0.5712  0.2715
18276TIP3    H276244   1.700   6.002   4.223  0.0941  0.9376  0.5443
18277TIP3   OH276245   1.190   2.974   0.978  0.3262 -0.1560  0.1475
18277TIP3    H176246   1.220   3.064   0.991  0.9056 -0.5381  1.5556
18277TIP3    H276247   1.195   2.960   0.884 -0.6516  1.5833 -0.1787
18278TIP3   OH276248   4.086   1.183  14.213 -0.1361 -0.3687 -0.5265
18278TIP3    H176249   4.085   1.178  14.309 -2.7189  0.7755 -0.4623
18278TIP3    H276250   4.028   1.113  14.184  1.5303 -1.4462 -1.3186
18279TIP3   OH276251   1.695   1.370  11.206  0.0313  0.0754  0.2545
18279TIP3    H176252   1.619   1.364  11.149  1.0582  0.8009 -1.2276
18279TIP3    H276253   1.668   1.429  11.277  0.1605  2.7974 -1.8802
18280TIP3   OH276254   5.844   0.743  14.950 -0.3680 -0.4202 -0.1958
18280TIP3    H176255   5.823   0.779  14.864  0.6631  1.6976  0.4127
18280TIP3    H276256   5.937   0.722  14.944 -0.8270 -2.5630 -0.3598
18281TIP3   OH276257   1.088   5.261   2.491  0.7720  0.4925 -0.2099
18281TIP3    H176258   1.077   5.354   2.473 -7.2975 -0.1488 -0.1655
18281TIP3    H276259   1.082   5.253   2.586  0.9168 -0.1722 -0.2500
18282TIP3   OH276260   1.533   4.495  14.092 -0.2664  0.8214 -0.0745
18282TIP3    H176261   1.493   4.408  14.090 -0.1667  0.7361  1.0063
18282TIP3    H276262   1.566   4.509  14.004 -1.4524  0.3106 -0.6015
18283TIP3   OH276263   6.579   3.838   5.780  0.1708 -0.5410 -0.7257
18283TIP3    H176264   6.629   3.833   5.862 -0.2601 -2.1165 -0.5480
18283TIP3    H276265   6.504   3.780   5.794 -0.6656  0.2777 -1.7213
18284TIP3   OH276266   5.058   3.902   5.038  0.6285 -0.0888 -0.4029
18284TIP3    H176267   5.019   3.941   5.116  0.1355  2.4010 -1.8317
18284TIP3    H276268   5.149   3.887   5.062  0.2279 -0.3808  1.0001
18285TIP3   OH276269   5.527   3.205  16.245 -0.2620  0.1557 -0.4648
18285TIP3    H176270   5.597   3.180  16.185  0.7326  1.2443  0.2116
18285TIP3    H276271   5.467   3.258  16.192  1.8364  3.1202  0.0132
18286TIP3   OH276272   2.753   0.738  11.747 -0.6009 -0.0891  0.1697
18286TIP3    H176273   2.698   0.753  11.670  0.2415 -0.4504 -0.5078
18286TIP3    H276274   2.801   0.658  11.727  0.6118  0.5453  0.5114
18287TIP3   OH276275   4.593   3.043  16.521 -0.0277 -0.0859 -0.1128
18287TIP3    H176276   4.520   3.084  16.474  2.4668  2.0477 -2.2985
18287TIP3    H276277   4.621   2.972  16.464 -0.1265 -0.6456  0.5303
18288TIP3   OH276278   5.441   2.735  16.386  0.1713 -0.2656  0.6616
18288TIP3    H176279   5.411   2.773  16.303 -0.6496 -0.9803  0.6315
18288TIP3    H276280   5.373   2.672  16.410  0.7107 -0.5098  1.5652
18289TIP3   OH276281   6.591   5.068   4.889 -0.0984 -0.0400 -0.2148
18289TIP3    H176282   6.678   5.080   4.851 -0.5184 -0.6448 -1.3962
18289TIP3    H276283   6.602   4.997   4.952  0.7123  1.3048  1.2097
18290TIP3   OH276284   1.385   5.571  16.360 -0.6396 -0.3275 -0.3864
18290TIP3    H176285   1.399   5.596  16.268 -0.4113 -1.5459 -0.6953
18290TIP3    H276286   1.298   5.603  16.381  0.4272  2.5899 -0.1091
18291TIP3   OH276287   6.323   2.208  11.105  0.3519 -0.2061 -0.2062
18291TIP3    H176288   6.415   2.186  11.121 -0.0388 -1.9604 -0.2349
18291TIP3    H276289   6.280   2.123  11.093 -1.2088  0.6135 -0.5519
18292TIP3   OH276290   2.511   1.764  15.371 -0.0638  0.6397 -0.1208
18292TIP3    H176291   2.453   1.841  15.376 -0.2848  0.5186 -0.7879
18292TIP3    H276292   2.524   1.750  15.277  0.5023  0.2521  0.0133
18293TIP3   OH276293   1.223   2.684   2.771 -0.5247 -0.0575 -0.1786
18293TIP3    H176294   1.285   2.649   2.707  0.4850  0.2551  0.6179
18293TIP3    H276295   1.192   2.766   2.731 -0.6380 -0.3521 -0.7011
18294TIP3   OH276296   4.211   0.067  16.167 -0.1977  0.3419  0.3228
18294TIP3    H176297   4.161   0.145  16.144 -2.0561 -0.7374  0.5622
18294TIP3    H276298   4.200   0.008  16.092  0.9316  0.1826  0.2761
18295TIP3   OH276299   3.374   6.600   4.775  0.0028  0.5553 -0.8164
18295TIP3    H176300   3.403   6.640   4.693  0.4851  0.3376 -0.7550
18295TIP3    H276301   3.355   6.675   4.832 -2.4685  0.7500 -1.8296
18296TIP3   OH276302   2.395   4.180   0.982 -0.2147 -0.2568  0.0026
18296TIP3    H176303   2.340   4.102   0.977  1.1036 -1.2890  1.2810
18296TIP3    H276304   2.382   4.213   1.071  1.1653 -0.4729  0.2968
18297TIP3   OH276305   5.330   5.994   3.255 -0.3145  0.2467  0.2388
18297TIP3    H176306   5.274   5.919   3.236 -1.4651  0.8823  1.0671
18297TIP3    H276307   5.333   5.999   3.350 -0.5838  1.4901  0.1972
18298TIP3   OH276308   6.732   3.206  12.184  0.5622  0.3141  0.9586
18298TIP3    H176309   6.717   3.289  12.229  0.1114  0.6944  0.1119
18298TIP3    H276310   6.658   3.197  12.124  1.5127  0.1451 -0.2054
18299TIP3   OH276311   5.046   5.672  12.842 -0.1594 -0.1622 -0.1928
18299TIP3    H176312   5.052   5.578  12.823 -0.4534 -0.2318  0.0546
18299TIP3    H276313   4.952   5.689  12.849 -0.0629 -0.0536  0.7848
18300TIP3   OH276314   3.824   4.196   3.359 -0.4040  0.5205  0.3119
18300TIP3    H176315   3.795   4.218   3.448 -0.2770  0.4772  0.3638
18300TIP3    H276316   3.868   4.275   3.328 -0.8512  0.6930  0.1175
18301TIP3   OH276317   6.320   0.451   0.319 -0.3982  0.0606  0.5009
18301TIP3    H176318   6.247   0.493   0.274  0.0804  1.9382  1.3949
18301TIP3    H276319   6.311   0.478   0.410  2.9854  2.7690  0.1392
18302TIP3   OH276320   2.871   5.410  11.179  0.0025 -0.4693 -0.0712
18302TIP3    H176321   2.897   5.450  11.096  0.8700 -1.5414 -0.3184
18302TIP3    H276322   2.912   5.466  11.246 -0.3142  0.1262 -0.3713
18303TIP3   OH276323   1.634   2.672   3.532  0.0425  0.2710  0.2052
18303TIP3    H176324   1.708   2.656   3.591  1.6187  0.4697 -1.6726
18303TIP3    H276325   1.622   2.590   3.485 -0.2810  0.5631 -0.2308
18304TIP3   OH276326   2.104   0.661  16.756 -0.1579  0.0353  0.3202
18304TIP3    H176327   2.148   0.640  16.839  1.7508  1.8698 -0.1734
18304TIP3    H276328   2.041   0.590  16.744  2.3277 -2.4832  1.3489
18305TIP3   OH276329   0.374   6.487  11.814  0.8182  0.0018  0.0774
18305TIP3    H176330   0.427   6.450  11.884 -0.3265 -1.4874  0.1821
18305TIP3    H276331   0.375   6.420  11.745  1.4933  1.2192 -1.1365
18306TIP3   OH276332   0.215   3.201  14.318  0.2779 -0.3804  0.1355
18306TIP3    H176333   0.164   3.228  14.394  0.8955 -0.7747  0.6932
18306TIP3    H276334   0.150   3.175  14.253 -0.2672 -4.2938  2.0597
18307TIP3   OH276335   6.786   4.639   1.758  0.1598 -0.5852  0.1291
18307TIP3    H176336   6.843   4.701   1.805  0.2606  0.3527 -1.2147
18307TIP3    H276337   6.844   4.567   1.735  0.3610 -0.5384  0.4820
18308TIP3   OH276338   3.069   0.155  15.699  0.0727  0.3819  0.0212
18308TIP3    H176339   3.139   0.134  15.761  0.2264 -0.2232 -0.3527
18308TIP3    H276340   3.068   0.081  15.638 -0.3166  0.8034 -0.4858
18309TIP3   OH276341   0.524   6.780   0.311  0.7909  0.5922  0.0895
18309TIP3    H176342   0.569   6.831   0.244  0.3572 -0.6206 -1.1524
18309TIP3    H276343   0.446   6.832   0.332  2.7687  2.7668  2.3644
18310TIP3   OH276344   4.391   6.779  14.935  0.5757  0.1608 -0.3665
18310TIP3    H176345   4.381   6.684  14.938  2.2294 -0.0784 -1.5290
18310TIP3    H276346   4.441   6.795  14.855  0.3657  2.0130 -0.1509
18311TIP3   OH276347   5.764   4.971  10.973  0.4331 -0.5018 -0.0571
18311TIP3    H176348   5.720   5.053  10.950  1.5863 -0.1402 -1.0014
18311TIP3    H276349   5.828   4.996  11.039 -0.2807 -0.9177  0.8086
18312TIP3   OH276350   6.215   2.743   2.839  0.3049 -0.0639  0.4169
18312TIP3    H176351   6.214   2.653   2.804 -0.5867  0.4628 -0.9521
18312TIP3    H276352   6.301   2.777   2.814  0.9556 -0.7696  1.6083
18313TIP3   OH276353   1.206   5.079   1.616  0.2867 -0.4550  0.1365
18313TIP3    H176354   1.261   5.153   1.589 -0.8580 -0.0609 -1.1759
18313TIP3    H276355   1.236   5.058   1.705  3.5187 -1.1862 -1.0749
18314TIP3   OH276356   4.837   2.212  11.800 -0.3358  0.2347 -0.2332
18314TIP3    H176357   4.794   2.237  11.718  0.3324  0.7871 -0.4188
18314TIP3    H276358   4.821   2.286  11.859 -1.2567 -0.3846  0.3037
18315TIP3   OH276359   0.317   3.319   6.390 -0.4466 -0.5369 -0.1582
18315TIP3    H176360   0.309   3.251   6.323 -1.7384  0.6988 -1.2876
18315TIP3    H276361   0.240   3.306   6.446 -0.5099 -0.2122 -0.1742
18316TIP3   OH276362   1.728   2.378   0.382 -0.6577  0.2363  0.3950
18316TIP3    H176363   1.666   2.435   0.336 -1.3479  1.8110  3.1899
18316TIP3    H276364   1.814   2.418   0.365 -0.8096  0.3315 -0.1802
18317TIP3   OH276365   5.813   5.335  17.147 -0.3159  0.2487  0.0104
18317TIP3    H176366   5.742   5.362  17.089  0.4049 -0.1152 -1.0518
18317TIP3    H276367   5.779   5.259  17.193 -0.1940 -0.6467 -1.3669
18318TIP3   OH276368   6.439   2.888   2.788 -0.0350 -0.4651  0.3448
18318TIP3    H176369   6.434   2.916   2.697 -1.0266  0.1684  0.5897
18318TIP3    H276370   6.531   2.863   2.800  0.0405 -0.8511 -0.9080
18319TIP3   OH276371   0.804   6.185   5.398  0.0798 -0.3731  0.1754
18319TIP3    H176372   0.780   6.092   5.400  0.5841 -0.5034  2.8922
18319TIP3    H276373   0.883   6.188   5.345 -0.7916 -1.2602 -1.2073
18320TIP3   OH276374   4.024   6.738  15.521  0.1708 -0.1599  0.3352
18320TIP3    H176375   4.119   6.744  15.505 -0.0564 -0.4660 -1.2138
18320TIP3    H276376   4.006   6.644  15.521 -0.0001 -0.1392  1.5549
18321TIP3   OH276377   6.782   6.762   3.276 -0.0501  0.3628  0.7268
18321TIP3    H176378   6.857   6.797   3.228 -3.0074  2.8624 -2.3228
18321TIP3    H276379   6.730   6.716   3.210  0.0104 -3.6150  3.2766
18322TIP3   OH276380   1.430   6.756   0.131  0.5005  0.0047 -0.2314
18322TIP3    H176381   1.353   6.772   0.185  0.1376  0.8681 -0.9920
18322TIP3    H276382   1.470   6.843   0.121  0.6219 -0.1689 -1.2596
18323TIP3   OH276383   6.671   2.959   0.331 -0.6352 -0.1103 -0.2020
18323TIP3    H176384   6.601   2.899   0.308 -1.2645  0.7341 -0.4860
18323TIP3    H276385   6.633   3.018   0.396 -0.0785  0.1070 -0.0657
18324TIP3   OH276386   5.317   5.274  16.944  0.0195 -0.6151 -0.5609
18324TIP3    H176387   5.237   5.249  16.990  0.9928 -1.8835  0.4778
18324TIP3    H276388   5.311   5.230  16.859  0.1429 -1.6587 -0.0405
18325TIP3   OH276389   0.792   6.126  15.889 -0.1512 -0.5664  0.3207
18325TIP3    H176390   0.827   6.196  15.834  0.7640 -0.5082  0.9577
18325TIP3    H276391   0.714   6.095  15.843 -0.0856  0.3057 -0.3837
18326TIP3   OH276392   6.523   4.651  12.424  0.3842 -0.2098  0.2939
18326TIP3    H176393   6.427   4.653  12.421  0.2609 -1.9534  1.8616
18326TIP3    H276394   6.546   4.709  12.496  0.4750 -0.1099  0.1828
18327TIP3   OH276395   1.417   4.884  15.769 -0.0495  0.3777 -0.2034
18327TIP3    H176396   1.333   4.891  15.814 -0.1811  0.5591 -0.4748
18327TIP3    H276397   1.408   4.943  15.694 -0.5994 -1.4672 -1.6255
18328TIP3   OH276398   3.953   0.866   4.090  0.5287  0.1739 -0.7287
18328TIP3    H176399   4.016   0.928   4.127 -0.0086  0.5773 -0.4699
18328TIP3    H276400   3.972   0.783   4.134  0.3374  0.4930 -0.0347
18329TIP3   OH276401   5.023   0.554  16.151  0.1038 -0.5924 -0.0007
18329TIP3    H176402   4.998   0.499  16.077  1.2557 -1.7110  0.4182
18329TIP3    H276403   4.941   0.589  16.184 -0.7120 -2.6266  0.1592
18330TIP3   OH276404   0.808   3.140  11.572 -0.6143 -0.1586 -0.4090
18330TIP3    H176405   0.775   3.220  11.530  0.7181 -0.4019 -1.9396
18330TIP3    H276406   0.741   3.074  11.554 -0.9806  0.2267 -0.4718
18331TIP3   OH276407   4.012   6.004   2.859  0.0388  0.1438  0.1856
18331TIP3    H176408   4.087   5.982   2.804 -0.0569 -0.0989  0.1506
18331TIP3    H276409   3.982   5.920   2.894 -3.0540 -0.3887 -3.4479
18332TIP3   OH276410   4.806   5.940   4.282 -0.1933 -0.5489 -0.4961
18332TIP3    H176411   4.722   5.950   4.237 -0.3528  0.9913  0.1180
18332TIP3    H276412   4.785   5.889   4.361 -0.4357 -0.6728 -0.6383
18333TIP3   OH276413   3.583   5.277   6.120  0.0023  0.0217 -0.6000
18333TIP3    H176414   3.561   5.211   6.186  0.4690 -2.2422 -2.6205
18333TIP3    H276415   3.529   5.352   6.142  1.2205 -0.0977  3.2451
18334TIP3   OH276416   0.541   2.977   4.234 -0.0386 -0.1802  0.3361
18334TIP3    H176417   0.523   3.061   4.276 -1.7963  0.2129 -1.1199
18334TIP3    H276418   0.463   2.924   4.253  0.1668 -0.7718 -0.4673
18335TIP3   OH276419   0.560   5.235   1.093 -0.2715 -0.1445  0.2553
18335TIP3    H176420   0.548   5.306   1.157  0.0014 -1.4382  1.7678
18335TIP3    H276421   0.474   5.193   1.088  0.1487 -1.1185  1.0835
18336TIP3   OH276422   4.582   4.656   2.000 -0.0346  0.0052 -0.0487
18336TIP3    H176423   4.496   4.616   1.984  0.0793 -0.4166  0.3640
18336TIP3    H276424   4.643   4.582   1.993  0.3855  0.4500 -1.1745
18337TIP3   OH276425   5.073   5.166  13.467 -0.1132  0.2779  0.1391
18337TIP3    H176426   5.066   5.087  13.520  1.2604 -1.1466 -1.7313
18337TIP3    H276427   5.037   5.141  13.382  2.3987  0.9248 -1.1710
18338TIP3   OH276428   0.722   1.642  17.003 -0.4820  0.0282  0.4808
18338TIP3    H176429   0.719   1.717  17.063 -2.2287  1.0077 -0.8215
18338TIP3    H276430   0.804   1.653  16.956  0.2867 -0.0453  1.7561
18339TIP3   OH276431   0.661   0.667   5.198  0.2161 -0.0379 -0.1365
18339TIP3    H176432   0.719   0.738   5.167  0.5087  0.4384  1.4867
18339TIP3    H276433   0.719   0.591   5.206 -0.3991 -0.9592 -3.4444
18340TIP3   OH276434   1.103   1.239  14.190 -0.0004  0.0249 -0.2843
18340TIP3    H176435   1.041   1.240  14.117 -1.1697 -0.6244  0.6709
18340TIP3    H276436   1.149   1.156  14.181 -1.4107 -0.8833  0.7357
18341TIP3   OH276437   0.071   0.173  14.217 -0.1310 -0.2467 -0.2919
18341TIP3    H176438  -0.016   0.213  14.214 -0.4187 -0.9260 -1.0535
18341TIP3    H276439   0.098   0.167  14.125  0.2955 -0.9650 -0.1240
18342TIP3   OH276440   3.762   4.934  16.260  0.5777  0.1629  0.1474
18342TIP3    H176441   3.730   4.935  16.170 -0.1164  1.4230  0.3907
18342TIP3    H276442   3.772   4.842  16.281 -1.5511 -0.2409 -0.4302
18343TIP3   OH276443   2.640   5.970  11.589 -0.0305 -1.0113 -0.1081
18343TIP3    H176444   2.651   6.044  11.650  0.3066 -0.8511 -0.3654
18343TIP3    H276445   2.705   5.906  11.618  0.1993 -0.8928 -0.3656
18344TIP3   OH276446   4.668   6.245   1.855 -0.4165  0.2162  0.1479
18344TIP3    H176447   4.728   6.255   1.929  0.9918 -0.9328 -0.8101
18344TIP3    H276448   4.689   6.318   1.797 -0.3536  0.1619  0.1020
18345TIP3   OH276449   5.144   4.737   1.645  0.1252 -0.5755 -0.1729
18345TIP3    H176450   5.087   4.810   1.667 -0.0462 -0.3962 -1.2030
18345TIP3    H276451   5.179   4.708   1.729  0.7397  1.1339  0.1691
18346TIP3   OH276452   4.354   2.954   1.988  0.3716 -0.0470  0.0462
18346TIP3    H176453   4.318   2.952   1.900  0.6753 -0.5924 -0.0700
18346TIP3    H276454   4.449   2.944   1.976  0.5583  1.2920  0.3534
18347TIP3   OH276455   6.597   3.911  14.787 -0.1036  0.0315 -0.9054
18347TIP3    H176456   6.638   3.972  14.726 -0.5326  1.0790 -0.1519
18347TIP3    H276457   6.506   3.904  14.759 -0.3692  0.7250 -0.2274
18348TIP3   OH276458   1.889   1.935  16.269  0.0763  0.2859 -0.0737
18348TIP3    H176459   1.827   1.967  16.204 -1.2223  0.5816  1.2684
18348TIP3    H276460   1.862   1.978  16.351 -0.1377 -2.2387  1.2587
18349TIP3   OH276461   1.161   5.063   5.564 -0.8799 -0.0172 -0.1361
18349TIP3    H176462   1.088   5.124   5.579 -0.2363  1.3131 -2.2420
18349TIP3    H276463   1.239   5.115   5.583 -0.3114 -0.0531 -2.3684
18350TIP3   OH276464   5.358   5.222  16.216  0.2205 -0.0158 -0.4866
18350TIP3    H176465   5.390   5.222  16.306 -0.9783  1.4515 -0.0243
18350TIP3    H276466   5.375   5.134  16.184  0.2042 -0.7055  1.3485
18351TIP3   OH276467   5.346   3.575   1.155  0.0641 -0.6582  0.9405
18351TIP3    H176468   5.253   3.553   1.157  0.4580 -2.4672  0.5225
18351TIP3    H276469   5.361   3.624   1.235 -1.1374 -0.8578  1.2933
18352TIP3   OH276470   5.409   0.247  17.170 -0.0165 -0.0926  0.1482
18352TIP3    H176471   5.369   0.160  17.163 -1.5078  0.7553 -2.6033
18352TIP3    H276472   5.342   0.307  17.138  1.6786  1.8782  0.1656
18353TIP3   OH276473   3.526   4.221  14.895 -0.5145  0.1767 -0.6376
18353TIP3    H176474   3.570   4.140  14.869 -0.3152 -0.0254  0.3331
18353TIP3    H276475   3.448   4.192  14.942 -0.7338  0.5501 -0.7680
18354TIP3   OH276476   5.465   5.487   6.165 -0.2744  0.2187 -0.1699
18354TIP3    H176477   5.412   5.417   6.128 -1.0264  0.2365  0.8428
18354TIP3    H276478   5.526   5.442   6.223  0.9128  0.1865 -1.4183
18355TIP3   OH276479   0.674   0.623   3.816  0.4345  0.1718 -0.0827
18355TIP3    H176480   0.763   0.637   3.783 -0.5985  0.5322 -2.7680
18355TIP3    H276481   0.638   0.554   3.761 -0.4722 -1.0518  1.9689
18356TIP3   OH276482   5.750   4.425  17.008  0.5701 -0.0364 -0.1261
18356TIP3    H176483   5.813   4.358  17.034 -0.1101 -0.9768 -0.8545
18356TIP3    H276484   5.789   4.467  16.931  0.4346 -0.4373 -0.4157
18357TIP3   OH276485   1.978   2.253  10.880  0.1194  0.0892 -0.5549
18357TIP3    H176486   2.003   2.340  10.848  2.1625 -0.2052  0.1368
18357TIP3    H276487   1.916   2.220  10.816 -1.1421  2.2990 -0.5204
18358TIP3   OH276488   1.941   0.442   4.397 -0.0120  0.0889 -0.1889
18358TIP3    H176489   1.906   0.399   4.319  0.4177  0.8985 -0.8464
18358TIP3    H276490   2.035   0.421   4.396 -0.5814 -2.6816  1.9673
18359TIP3   OH276491   4.920   1.824  12.040  0.8409 -0.2028 -0.2537
18359TIP3    H176492   4.877   1.889  12.096  0.9051 -1.6477  1.5296
18359TIP3    H276493   5.012   1.828  12.065  1.1925  0.4941 -1.6428
18360TIP3   OH276494   6.269   3.820  13.634  0.2442  0.2306  0.3495
18360TIP3    H176495   6.283   3.733  13.598 -2.5489  0.2287 -0.8968
18360TIP3    H276496   6.356   3.850  13.660  1.4424 -2.3303 -0.5503
18361TIP3   OH276497   2.860   3.838  15.155 -0.3497 -0.0802 -0.1626
18361TIP3    H176498   2.949   3.826  15.122 -0.4433 -1.6267  0.0910
18361TIP3    H276499   2.835   3.751  15.188 -1.2781  0.7611  1.4134
18362TIP3   OH276500   0.646   3.399   1.429 -0.5733 -0.3434 -0.5593
18362TIP3    H176501   0.685   3.370   1.347 -2.1345 -1.8263 -0.8228
18362TIP3    H276502   0.555   3.421   1.406 -0.7605  0.1056  0.5828
18363TIP3   OH276503   5.922   4.310  13.804 -0.4003 -0.3672  0.3053
18363TIP3    H176504   5.871   4.238  13.768  0.5425 -0.6628 -0.4728
18363TIP3    H276505   5.979   4.338  13.732 -0.4651  0.8863  0.7187
18364TIP3   OH276506   6.204   5.668   4.670 -0.5044  0.4950  0.0447
18364TIP3    H176507   6.204   5.625   4.585 -0.8688  0.0899  0.2479
18364TIP3    H276508   6.163   5.605   4.729 -0.7914  1.0141  0.3994
18365TIP3   OH276509   5.993   3.171  16.513 -0.0727 -0.5518 -0.0723
18365TIP3    H176510   5.912   3.205  16.474  0.8423  1.7554 -0.0537
18365TIP3    H276511   6.058   3.240  16.496  1.6812 -2.0002  0.6394
18366TIP3   OH276512   1.359   5.385   4.739 -0.1106 -0.4170  0.0964
18366TIP3    H176513   1.443   5.381   4.785 -0.4532  0.3137  0.7830
18366TIP3    H276514   1.371   5.456   4.675  0.2818 -1.2680 -0.7771
18367TIP3   OH276515   4.833   0.141  11.779  0.2912  0.3857 -0.0192
18367TIP3    H176516   4.744   0.118  11.755  0.1757  1.3936 -0.6140
18367TIP3    H276517   4.823   0.208  11.847  0.6187 -2.0837  2.5571
18368TIP3   OH276518   6.729   1.358   4.759 -0.4456 -0.3831 -0.0583
18368TIP3    H176519   6.737   1.274   4.804  0.2600 -0.2109  0.1451
18368TIP3    H276520   6.804   1.409   4.789 -0.0817 -0.1873 -1.2603
18369TIP3   OH276521   1.637   6.707   4.395 -0.0637  0.1878 -0.1042
18369TIP3    H176522   1.558   6.656   4.377  1.0292 -1.6404  0.0771
18369TIP3    H276523   1.632   6.727   4.488  0.0978 -0.6683  0.0930
18370TIP3   OH276524   6.195   5.117  12.301  0.2792  0.8004  0.0263
18370TIP3    H176525   6.161   5.152  12.219 -1.1399  1.0192  0.6839
18370TIP3    H276526   6.246   5.040  12.276 -2.0707 -0.5200 -0.8687
18371TIP3   OH276527   6.424   0.875   3.921 -0.3371 -0.2417 -0.4025
18371TIP3    H176528   6.449   0.951   3.868 -0.6390  0.3014  0.2214
18371TIP3    H276529   6.363   0.911   3.986 -2.1930 -1.3966 -1.4510
18372TIP3   OH276530   1.538   2.675   2.261  0.7704 -0.0929 -0.6119
18372TIP3    H176531   1.619   2.670   2.312  0.4014  1.0261  0.1015
18372TIP3    H276532   1.525   2.769   2.246 -0.7318 -0.2148 -0.1623
18373TIP3   OH276533   5.337   4.428  10.632  0.3934 -0.1215 -0.0724
18373TIP3    H176534   5.259   4.434  10.578  1.3594  0.3419 -1.4438
18373TIP3    H276535   5.410   4.438  10.571  1.5138  0.3789  1.3016
18374TIP3   OH276536   5.392   0.991  15.799 -0.3362  0.2817  0.2645
18374TIP3    H176537   5.306   0.957  15.820  0.0745 -1.0354 -0.1271
18374TIP3    H276538   5.389   1.084  15.823 -2.3715  0.6288 -1.2495
18375TIP3   OH276539   5.177   5.335   0.850 -0.4621 -0.3728 -0.9264
18375TIP3    H176540   5.258   5.375   0.817 -0.1266  0.5711  0.9888
18375TIP3    H276541   5.107   5.388   0.813 -0.0770  0.9454  0.2309
18376TIP3   OH276542   5.826   1.701  14.870  0.1420 -0.0983  0.1003
18376TIP3    H176543   5.814   1.633  14.803  2.9707 -0.7579  0.1948
18376TIP3    H276544   5.898   1.754  14.837 -0.4027  1.3706  1.2335
18377TIP3   OH276545   3.568   4.284   2.478 -0.2371  0.2110  0.8164
18377TIP3    H176546   3.537   4.250   2.561  1.5523  2.1842  2.3477
18377TIP3    H276547   3.516   4.362   2.463  0.2401  0.5027  0.6679
18378TIP3   OH276548   1.579   1.321  11.615 -0.4680 -0.6519 -0.0043
18378TIP3    H176549   1.631   1.240  11.616  0.8587  0.1879  0.0757
18378TIP3    H276550   1.626   1.379  11.555  0.5987  1.3281  2.6052
18379TIP3   OH276551   3.659   5.623  15.221  0.1143 -0.3881 -0.7140
18379TIP3    H176552   3.661   5.600  15.314 -2.3702 -0.1176 -0.5586
18379TIP3    H276553   3.734   5.680  15.208  0.4773 -0.4289  1.1232
18380TIP3   OH276554   4.988   2.959  15.739  0.0136  0.7310 -0.2384
18380TIP3    H176555   5.015   3.044  15.704 -0.2016  1.2401  0.8221
18380TIP3    H276556   4.910   2.936  15.688 -0.8798  1.9401  0.5806
18381TIP3   OH276557   2.611   4.317   1.898 -0.4953  0.0118 -0.5296
18381TIP3    H176558   2.556   4.389   1.928 -0.1023 -0.0323  0.3046
18381TIP3    H276559   2.606   4.252   1.968  0.2899 -0.1696 -0.6439
18382TIP3   OH276560   6.749   4.621  12.995  0.7750 -0.6989 -0.4779
18382TIP3    H176561   6.776   4.701  13.040  0.7680 -1.0512  0.1536
18382TIP3    H276562   6.827   4.593  12.947  0.5697  0.0767 -1.2786
18383TIP3   OH276563   2.979   2.384  16.885 -0.2243 -0.5287  0.3708
18383TIP3    H176564   3.001   2.477  16.886  0.9557 -0.7917  0.1120
18383TIP3    H276565   2.905   2.376  16.945 -0.4557  0.6021  0.2424
18384TIP3   OH276566   3.486   3.064   6.018 -0.5436 -0.4923  0.4991
18384TIP3    H176567   3.473   2.977   6.056  1.2078 -0.6167  0.8510
18384TIP3    H276568   3.440   3.123   6.078 -1.2751 -1.1211  0.5621
18385TIP3   OH276569   2.198   5.840  15.737 -0.4874 -0.4402 -0.1473
18385TIP3    H176570   2.165   5.757  15.704  0.0433  0.1602 -2.2607
18385TIP3    H276571   2.240   5.881  15.662 -0.1429  1.4446  1.0337
18386TIP3   OH276572   5.219   2.912  11.377 -0.1995 -0.2880  0.0739
18386TIP3    H176573   5.240   2.986  11.320 -0.2049  0.4324  0.9950
18386TIP3    H276574   5.265   2.838  11.338  2.4680  0.8422  0.9359
18387TIP3   OH276575   5.245   1.063  16.249  0.1605  0.4332  0.1814
18387TIP3    H176576   5.339   1.062  16.234  0.2397  0.2398  0.6936
18387TIP3    H276577   5.219   0.971  16.250  0.0132  0.4755  0.3412
18388TIP3   OH276578   6.205   1.987  13.526 -0.0035 -0.3994 -0.7975
18388TIP3    H176579   6.268   2.053  13.494 -0.9699  0.7600 -0.3497
18388TIP3    H276580   6.119   2.028  13.512 -0.5679 -1.1212  0.5051
18389TIP3   OH276581   1.204   3.686  12.847  0.0160  0.2050  0.2507
18389TIP3    H176582   1.281   3.665  12.900  0.0694 -0.6177 -0.1454
18389TIP3    H276583   1.222   3.648  12.762 -0.1261  1.4265 -0.3255
18390TIP3   OH276584   5.238   5.006  13.799  0.1388  0.8147  0.2797
18390TIP3    H176585   5.234   5.078  13.862 -1.8051  0.6372  0.3940
18390TIP3    H276586   5.317   4.958  13.823 -0.0756  1.2769  2.0057
18391TIP3   OH276587   4.353   0.356   0.145 -0.0515 -0.1184  0.1085
18391TIP3    H176588   4.384   0.267   0.128 -0.1370  0.0568 -1.0213
18391TIP3    H276589   4.376   0.404   0.066 -0.5671  0.7204  0.4648
18392TIP3   OH276590   3.321   5.637   3.246 -0.0762 -0.0025  0.4506
18392TIP3    H176591   3.248   5.592   3.203  1.5254 -3.1246  0.8713
18392TIP3    H276592   3.392   5.573   3.245  2.8001  3.0674 -0.2452
18393TIP3   OH276593   1.152   0.299  13.623  0.6197  0.3028 -0.1311
18393TIP3    H176594   1.191   0.292  13.710  1.1245 -1.2313 -0.4564
18393TIP3    H276595   1.058   0.293  13.638  0.5005  3.4187  0.6065
18394TIP3   OH276596   0.956   3.981  15.469 -0.2493 -0.2497 -0.0916
18394TIP3    H176597   0.869   4.020  15.468  0.5130  1.5369  0.4236
18394TIP3    H276598   0.947   3.898  15.422 -2.5758 -0.8652  1.3526
18395TIP3   OH276599   2.136   4.526   4.647  0.1942 -0.0547  0.4201
18395TIP3    H176600   2.077   4.523   4.721  1.1535 -0.3009  1.1888
18395TIP3    H276601   2.084   4.497   4.572  0.3017 -3.7771  1.7211
18396TIP3   OH276602   0.777   1.106   1.647 -0.0626 -0.7774  0.3256
18396TIP3    H176603   0.715   1.174   1.622 -0.0946 -1.1610 -0.6905
18396TIP3    H276604   0.850   1.117   1.586  0.8569 -0.3522  1.4936
18397TIP3   OH276605   2.168   4.086   1.544  0.0287 -0.3758  0.0173
18397TIP3    H176606   2.100   4.032   1.583 -0.3712  1.3363  1.8237
18397TIP3    H276607   2.203   4.034   1.472 -1.6007 -2.2239  0.5264
18398TIP3   OH276608   1.003   5.758   1.385 -0.4575 -0.6205  0.3923
18398TIP3    H176609   0.959   5.838   1.356 -0.2759 -0.4702  0.5361
18398TIP3    H276610   1.092   5.785   1.406 -0.4552 -0.8204  0.6406
18399TIP3   OH276611   4.733   4.303  15.994 -0.5308 -0.2638  0.1106
18399TIP3    H176612   4.675   4.315  15.919  0.2129 -1.3306 -0.6482
18399TIP3    H276613   4.820   4.325  15.961 -0.3864  0.6194  1.0465
18400TIP3   OH276614   4.480   6.752   1.291 -1.0210  0.7249 -0.0304
18400TIP3    H176615   4.443   6.731   1.376 -1.0182  0.2834 -0.1371
18400TIP3    H276616   4.572   6.774   1.308 -0.2380 -2.2086 -0.2753
18401TIP3   OH276617   2.536   0.265  11.957  0.3040 -0.4420  0.2009
18401TIP3    H176618   2.554   0.204  12.029 -1.2755 -1.3271 -0.1225
18401TIP3    H276619   2.525   0.350  12.000  0.4616 -0.7644  0.8911
18402TIP3   OH276620   2.343   5.173   3.630  0.5415  0.4948  0.3919
18402TIP3    H176621   2.348   5.204   3.721 -3.4935 -1.4030  1.3628
18402TIP3    H276622   2.299   5.244   3.583 -0.2095  0.1922  0.6244
18403TIP3   OH276623   5.844   6.599  13.926  0.1332  0.2023  0.4889
18403TIP3    H176624   5.923   6.647  13.948 -0.2741  0.4864  1.3560
18403TIP3    H276625   5.868   6.507  13.933  0.9736  0.2598 -1.3800
18404TIP3   OH276626   5.405   5.786  16.056 -0.1556 -0.8913  0.4362
18404TIP3    H176627   5.395   5.815  15.965 -3.0180 -0.3007  0.9000
18404TIP3    H276628   5.433   5.865  16.103  0.0628 -0.8838  0.2953
18405TIP3   OH276629   6.154   2.320   2.348 -0.0844 -0.4785  0.1113
18405TIP3    H176630   6.194   2.401   2.320  1.5191 -1.2119  0.2440
18405TIP3    H276631   6.207   2.290   2.422 -0.7872 -1.5243  0.2157
18406TIP3   OH276632   4.568   4.664   1.369 -0.6003  0.8460 -0.3464
18406TIP3    H176633   4.593   4.575   1.396  1.7326  2.1188  1.9639
18406TIP3    H276634   4.475   4.670   1.390 -1.1139 -1.4409 -1.7129
18407TIP3   OH276635   2.351   4.213   5.862  0.8947  0.2962  0.5332
18407TIP3    H176636   2.438   4.195   5.827  0.3127 -0.7103 -0.4341
18407TIP3    H276637   2.293   4.208   5.785 -0.3876 -1.7427  1.5879
18408TIP3   OH276638   0.081   6.108   4.194 -0.6777 -0.1180 -0.3209
18408TIP3    H176639   0.047   6.143   4.276 -0.5215  0.7142 -0.6066
18408TIP3    H276640   0.074   6.013   4.204  0.1183 -0.0563  0.9921
18409TIP3   OH276641   3.084   0.698  17.004  0.2503  0.4477 -0.1327
18409TIP3    H176642   3.096   0.604  17.019 -0.7561  0.5624  1.6032
18409TIP3    H276643   3.137   0.740  17.072 -1.0494  1.0761  0.5286
18410TIP3   OH276644   2.505   0.520  12.088  0.1266 -0.5446  0.4960
18410TIP3    H176645   2.501   0.611  12.059 -1.9090 -0.7278  0.1336
18410TIP3    H276646   2.437   0.513  12.156  1.3800 -1.3922  1.6984
18411TIP3   OH276647   1.000   4.217  12.003 -0.4959 -0.3365 -0.3666
18411TIP3    H176648   1.078   4.184  11.957 -0.5431  1.4354 -1.7532
18411TIP3    H276649   1.033   4.244  12.088  0.4683  0.5914 -1.0118
18412TIP3   OH276650   6.586   1.061  16.121  0.2445 -0.1764 -0.0501
18412TIP3    H176651   6.636   1.066  16.040  1.8189 -0.3621  0.8873
18412TIP3    H276652   6.628   0.990  16.170 -0.0429  0.6002  1.3481
18413TIP3   OH276653   4.005   0.249   1.489  0.0579 -0.3471  0.2040
18413TIP3    H176654   3.930   0.285   1.441 -0.0774  1.1260  1.4869
18413TIP3    H276655   4.039   0.181   1.431 -0.9556  0.4342 -1.3653
18414TIP3   OH276656   2.252   3.064   4.836  0.2890  0.5910  0.1410
18414TIP3    H176657   2.277   3.023   4.754  3.3165 -1.2157  1.8947
18414TIP3    H276658   2.256   3.158   4.818  0.9542  0.2260 -1.7401
18415TIP3   OH276659   3.142   2.457  14.253 -0.2111  0.6631 -0.4360
18415TIP3    H176660   3.149   2.366  14.223  0.8558  0.9479 -1.0832
18415TIP3    H276661   3.118   2.506  14.174  1.0498  1.2029 -0.4827
18416TIP3   OH276662   5.169   5.831   5.943 -0.0279  0.4598 -0.1869
18416TIP3    H176663   5.234   5.810   6.010 -0.7004  0.0760  0.3448
18416TIP3    H276664   5.143   5.746   5.908  0.5009  0.6695 -1.1132
18417TIP3   OH276665   5.123   5.438  16.685 -0.4006  0.8428 -0.5105
18417TIP3    H176666   5.036   5.473  16.667 -0.6551  1.6762  2.1051
18417TIP3    H276667   5.111   5.344  16.692 -1.1007  0.9463 -0.2584
18418TIP3   OH276668   5.566   2.518  15.425  0.4232  0.5362  0.3569
18418TIP3    H176669   5.597   2.549  15.511  1.1310  0.5671  0.0984
18418TIP3    H276670   5.510   2.588  15.393  0.6378  0.7912  0.5351
18419TIP3   OH276671   1.988   4.694  16.784 -0.6124  0.6050 -0.5060
18419TIP3    H176672   2.010   4.623  16.844 -0.4565 -0.1370 -1.4248
18419TIP3    H276673   1.952   4.763  16.840 -0.7251 -0.1820  0.3986
18420TIP3   OH276674   2.745   0.406  16.363  0.6024  0.2758 -0.0436
18420TIP3    H176675   2.722   0.412  16.270 -0.5523  0.1665  0.2317
18420TIP3    H276676   2.835   0.374  16.363  0.8318  0.8924 -1.1411
18421TIP3   OH276677   5.072   0.259  10.684  0.0003  0.4383 -0.4690
18421TIP3    H176678   4.996   0.317  10.689  0.7099  1.1995  3.6975
18421TIP3    H276679   5.147   0.318  10.678  0.4768 -0.1750 -0.5526
18422TIP3   OH276680   6.053   6.652  12.336 -0.3223  0.3445  0.4559
18422TIP3    H176681   6.094   6.565  12.328  1.0564  1.2222 -2.7403
18422TIP3    H276682   6.112   6.701  12.393 -0.0587 -0.2037  0.6607
18423TIP3   OH276683   0.666   3.631  11.611 -0.3172  0.1937  0.3234
18423TIP3    H176684   0.602   3.619  11.540  1.0110 -0.8690 -0.7179
18423TIP3    H276685   0.622   3.599  11.689 -1.7301  1.1808 -0.0465
18424TIP3   OH276686   5.924   6.408   5.983  0.0217  0.2179 -0.0297
18424TIP3    H176687   5.834   6.420   6.014 -0.3147  1.2206 -1.3737
18424TIP3    H276688   5.977   6.464   6.040 -0.0634 -1.1515  1.4214
18425TIP3   OH276689   5.247   5.983   2.612 -0.0319  0.0725 -0.8017
18425TIP3    H176690   5.242   5.932   2.531 -1.8954 -0.9473 -0.0658
18425TIP3    H276691   5.156   5.997   2.637  0.5333  0.1839  1.2405
18426TIP3   OH276692   5.852   1.504   1.315  0.0433 -0.3842 -0.0702
18426TIP3    H176693   5.800   1.568   1.265  3.0040  1.8730 -0.4046
18426TIP3    H276694   5.822   1.419   1.284 -0.6701  0.9160 -3.1438
18427TIP3   OH276695   1.106   0.106   0.841 -0.0242  0.1040  0.4746
18427TIP3    H176696   1.188   0.108   0.791  0.6466 -0.2215  1.5420
18427TIP3    H276697   1.057   0.182   0.810 -0.6228 -1.3485 -2.3304
18428TIP3   OH276698   3.646   1.352   4.727 -0.2577  0.1245 -0.4814
18428TIP3    H176699   3.592   1.356   4.806  1.6768 -0.9256  0.9345
18428TIP3    H276700   3.622   1.430   4.678 -1.0842  1.1166  1.4402
18429TIP3   OH276701   6.421   2.459  12.898 -0.6756 -0.0070  0.3145
18429TIP3    H176702   6.509   2.477  12.863 -1.3487  0.0980 -1.3832
18429TIP3    H276703   6.362   2.474  12.824 -2.1982  0.5121  1.6015
18430TIP3   OH276704   5.046   5.896   2.289 -0.2359 -0.0179  0.3510
18430TIP3    H176705   4.970   5.934   2.333 -0.7694  0.4040 -0.9270
18430TIP3    H276706   5.012   5.822   2.240  0.3358 -0.3953  0.5098
18431TIP3   OH276707   5.838   6.719  13.334  0.6362 -0.8762  0.2698
18431TIP3    H176708   5.803   6.705  13.422  2.0742 -1.9690  0.7090
18431TIP3    H276709   5.872   6.633  13.308  2.2232 -0.0591 -0.4386
18432TIP3   OH276710   2.715   2.934   1.227  0.0888  0.5500  0.2413
18432TIP3    H176711   2.623   2.911   1.242  0.1182 -0.8772 -1.5808
18432TIP3    H276712   2.716   2.980   1.144  1.3571 -2.0467 -1.2457
18433TIP3   OH276713   5.627   2.935  14.661  0.0379 -0.0963  0.2639
18433TIP3    H176714   5.566   2.872  14.698 -0.4358  1.0790  1.5027
18433TIP3    H276715   5.689   2.954  14.731 -1.7787  3.3183  1.0785
18434TIP3   OH276716   0.375   6.478  12.825 -0.1894 -0.5326  0.5287
18434TIP3    H176717   0.301   6.417  12.832 -0.1405 -0.5729  0.7343
18434TIP3    H276718   0.419   6.454  12.744 -1.4864  0.7290 -0.5756
18435TIP3   OH276719   0.259   2.796  12.172  0.3124 -0.0527  0.2722
18435TIP3    H176720   0.261   2.791  12.077 -0.3189  1.6044  0.1578
18435TIP3    H276721   0.337   2.846  12.196 -0.0930  0.4458  0.5612
18436TIP3   OH276722   1.040   0.989   1.034  0.8032 -0.0420 -0.2647
18436TIP3    H176723   1.062   1.041   1.112 -0.8896 -0.3522  0.4488
18436TIP3    H276724   0.982   0.920   1.067 -0.8891  0.5180 -1.9843
18437TIP3   OH276725   3.440   4.116   2.062 -0.4105 -0.3685 -0.1198
18437TIP3    H176726   3.488   4.057   2.003  1.5349 -0.4763  1.5060
18437TIP3    H276727   3.487   4.199   2.056  1.6508 -1.1675  3.4122
18438TIP3   OH276728   2.995   6.183   4.242 -0.1577  0.1673  0.0145
18438TIP3    H176729   3.062   6.144   4.298 -1.5132 -0.9799  0.8459
18438TIP3    H276730   3.041   6.253   4.196  1.0649  0.9355  2.3137
18439TIP3   OH276731   5.569   4.874  12.557  0.0237 -0.5288  0.3737
18439TIP3    H176732   5.645   4.933  12.551  0.3978 -1.1330 -1.0140
18439TIP3    H276733   5.571   4.824  12.476 -0.1073 -2.7011  1.6648
18440TIP3   OH276734   2.037   4.717   0.053  0.0986 -0.3101 -0.2286
18440TIP3    H176735   2.028   4.752   0.142  3.5734  1.9130 -0.6713
18440TIP3    H276736   1.973   4.766   0.001 -3.3476 -2.9714  1.2835
18441TIP3   OH276737   5.885   3.026   3.259  0.0210 -0.7532 -0.5765
18441TIP3    H176738   5.943   2.953   3.279 -0.3943 -0.6049  1.2753
18441TIP3    H276739   5.798   2.987   3.248 -0.5454 -0.4236  2.1465
18442TIP3   OH276740   1.477   5.994   5.826  0.1565 -0.0537  0.5659
18442TIP3    H176741   1.543   6.056   5.793  0.1689  0.0373  0.7604
18442TIP3    H276742   1.480   5.921   5.764 -0.3439  0.4461 -0.0597
18443TIP3   OH276743   1.668   6.448  15.162  0.3038 -0.1888  0.3756
18443TIP3    H176744   1.747   6.469  15.211  1.1400 -1.1420 -0.5364
18443TIP3    H276745   1.654   6.523  15.104  0.7171 -0.1429  0.3340
18444TIP3   OH276746   1.137   5.684  16.440  0.3816 -0.4619  0.6524
18444TIP3    H176747   1.135   5.772  16.478  0.5346  0.0766 -0.5377
18444TIP3    H276748   1.097   5.628  16.506 -1.6788  0.8544  0.5677
18445TIP3   OH276749   5.559   5.102   4.319 -0.2378 -0.0461 -0.0916
18445TIP3    H176750   5.465   5.111   4.333  0.0946  2.8030  0.7140
18445TIP3    H276751   5.594   5.190   4.335  2.4627 -0.8676 -1.1486
18446TIP3   OH276752   3.427   2.324  13.130 -0.3450  0.2987 -0.2161
18446TIP3    H176753   3.399   2.412  13.105  0.7950  0.4781 -0.8677
18446TIP3    H276754   3.503   2.306  13.075 -0.3537 -0.9548  0.1666
18447TIP3   OH276755   0.566   0.490  14.188  0.4590 -0.5507 -0.0300
18447TIP3    H176756   0.535   0.580  14.185 -1.5217 -1.2665 -2.4687
18447TIP3    H276757   0.659   0.497  14.210  0.2220  2.0306  0.2575
18448TIP3   OH276758   3.464   3.964  16.703  0.1644  0.4343 -0.1743
18448TIP3    H176759   3.392   3.918  16.661 -0.0562  0.0068  0.6787
18448TIP3    H276760   3.471   4.047  16.654  0.4978 -0.4277 -1.6256
18449TIP3   OH276761   6.526   4.511   5.689  0.2818  0.2112 -0.0655
18449TIP3    H176762   6.563   4.580   5.635 -3.2187  2.4404  0.2374
18449TIP3    H276763   6.537   4.542   5.779  0.1384 -0.3784  0.1619
18450TIP3   OH276764   0.962   5.235   0.108  0.0628 -0.5439  0.2374
18450TIP3    H176765   0.894   5.303   0.101  0.9961  0.4533  0.7127
18450TIP3    H276766   0.921   5.165   0.158 -0.9418 -0.3732 -0.3228
18451TIP3   OH276767   6.519   2.345  15.763 -0.1775 -0.2814 -0.6773
18451TIP3    H176768   6.498   2.409  15.696 -2.1289 -0.3607 -0.1805
18451TIP3    H276769   6.611   2.362  15.786  0.0781  0.6269 -2.3679
18452TIP3   OH276770   3.782   1.018  14.937 -0.1543 -0.2913 -0.0716
18452TIP3    H176771   3.756   0.959  15.008  1.2505  0.3488  0.9846
18452TIP3    H276772   3.849   0.971  14.889 -0.6389 -0.4565 -0.5978
18453TIP3   OH276773   4.026   2.477   6.679 -0.1659 -0.1152 -0.2007
18453TIP3    H176774   4.072   2.557   6.652  1.4613 -0.7708  0.5921
18453TIP3    H276775   4.095   2.413   6.693 -1.3705 -1.2891  0.4779
18454TIP3   OH276776   3.003   5.250  10.940 -0.3741  0.1661  0.3251
18454TIP3    H176777   2.971   5.332  10.903 -3.1402 -0.8669  0.2783
18454TIP3    H276778   3.086   5.234  10.895 -1.8488  0.8232 -2.7708
18455TIP3   OH276779   5.798   3.909   4.214  0.4882 -0.0131  0.6420
18455TIP3    H176780   5.795   3.830   4.160  0.0159  0.2295  0.3113
18455TIP3    H276781   5.815   3.877   4.303  0.3946 -0.4782  0.4940
18456TIP3   OH276782   3.298   2.714   0.743 -0.1768 -0.3454 -0.3160
18456TIP3    H176783   3.300   2.621   0.718 -1.3687 -0.2537 -0.7999
18456TIP3    H276784   3.234   2.718   0.814 -0.5284  0.1896 -0.6606
18457TIP3   OH276785   3.305   5.511   2.563 -0.4273  0.2481 -0.1008
18457TIP3    H176786   3.337   5.425   2.587  1.0153  1.4090  2.2813
18457TIP3    H276787   3.373   5.548   2.506  0.0722  0.7073  0.7824
18458TIP3   OH276788   2.863   4.022  14.964  0.1207  0.2279  0.0790
18458TIP3    H176789   2.862   3.979  15.049 -0.5544  0.8450  0.3903
18458TIP3    H276790   2.777   4.004  14.926  0.4694 -0.1665 -0.5418
18459TIP3   OH276791   4.959   1.646  14.060  0.5308  0.0338  0.1019
18459TIP3    H176792   4.967   1.741  14.069 -1.5455  0.4445 -2.0683
18459TIP3    H276793   4.904   1.620  14.134  0.6873  0.5690  0.4120
18460TIP3   OH276794   2.718   6.679  11.182  0.3134  0.0369  0.2516
18460TIP3    H176795   2.712   6.775  11.181  1.8043  0.1501 -0.7972
18460TIP3    H276796   2.799   6.661  11.134  0.5308 -1.7160  1.2702
18461TIP3   OH276797   1.672   0.735  10.700  0.3164 -0.1118  0.2323
18461TIP3    H176798   1.731   0.697  10.765  1.3832  1.3735  0.1611
18461TIP3    H276799   1.606   0.668  10.686  0.7904 -0.9694  1.8998
18462TIP3   OH276800   2.644   0.158  16.381  0.2549 -0.3533 -0.3497
18462TIP3    H176801   2.652   0.252  16.398  1.9509 -0.9471  2.2204
18462TIP3    H276802   2.605   0.154  16.293 -0.0893  2.7346 -0.4071
18463TIP3   OH276803   0.919   3.316  13.450  0.5615  0.6113  0.5739
18463TIP3    H176804   0.920   3.409  13.431 -2.0293  0.3907 -1.0162
18463TIP3    H276805   0.934   3.274  13.365 -3.4507 -0.3813  0.2341
18464TIP3   OH276806   4.800   6.557  14.197 -0.3725 -0.3973 -0.3532
18464TIP3    H176807   4.774   6.593  14.112 -1.5171 -0.4139 -0.0165
18464TIP3    H276808   4.894   6.571  14.201 -0.4296  0.3148 -1.2973
18465TIP3   OH276809   2.379   0.253  13.279  0.6936 -0.2196  0.1831
18465TIP3    H176810   2.376   0.347  13.293 -0.7245  0.1237 -2.1271
18465TIP3    H276811   2.466   0.238  13.241  0.4040  0.3714 -0.7313
18466TIP3   OH276812   6.300   5.592  13.465  0.4456 -0.1994  0.4876
18466TIP3    H176813   6.242   5.651  13.513  0.4365  0.1854  0.0092
18466TIP3    H276814   6.322   5.523  13.528 -0.0579 -0.0316  0.8529
18467TIP3   OH276815   4.249   4.220  16.739  0.2067 -0.3884 -0.1429
18467TIP3    H176816   4.296   4.171  16.672 -0.0603  0.2810 -0.8202
18467TIP3    H276817   4.299   4.203  16.819  1.5343  0.1815 -0.8225
18468TIP3   OH276818   1.842   3.048  14.974  0.3758  0.2743 -0.5197
18468TIP3    H176819   1.909   3.008  14.919  1.5652  0.8062  0.5358
18468TIP3    H276820   1.795   2.974  15.013  0.5511 -0.0924 -0.9986
18469TIP3   OH276821   0.026   6.618  13.352  0.0909  0.4597  0.3030
18469TIP3    H176822  -0.062   6.654  13.361 -1.0146 -1.6954 -1.4766
18469TIP3    H276823   0.077   6.663  13.419 -2.6298  0.9079  2.1677
18470TIP3   OH276824   5.637   5.690   6.042 -0.1597  0.4753  0.2855
18470TIP3    H176825   5.616   5.601   6.072 -1.8214  0.5440 -0.6448
18470TIP3    H276826   5.666   5.735   6.122  1.2056 -1.0400  0.6717
18471TIP3   OH276827   1.443   0.505   5.261  0.2687 -0.2983  0.2886
18471TIP3    H176828   1.458   0.578   5.321  0.8451 -0.1226 -0.0592
18471TIP3    H276829   1.474   0.538   5.176  0.6412 -0.9849  0.1568
18472TIP3   OH276830   4.117   4.231   6.419 -0.4193 -0.3479  0.4683
18472TIP3    H176831   4.207   4.206   6.441 -0.0701  0.0651 -0.4702
18472TIP3    H276832   4.117   4.326   6.423 -0.5352 -0.3031 -0.6091
18473TIP3   OH276833   4.406   2.926   4.168 -1.0465  0.1541  0.7903
18473TIP3    H176834   4.323   2.889   4.198 -2.6461  3.3153  0.4992
18473TIP3    H276835   4.386   2.961   4.080  1.4769 -1.9595 -0.6903
18474TIP3   OH276836   3.876   4.531  14.149 -0.6652  0.3001  0.1592
18474TIP3    H176837   3.924   4.592  14.206  0.8724 -1.3004  0.6466
18474TIP3    H276838   3.944   4.492  14.094 -1.2935 -2.4100  1.2027
18475TIP3   OH276839   2.463   0.137  10.863 -0.1550  0.1510  0.1997
18475TIP3    H176840   2.474   0.217  10.812 -0.4908  0.7103  1.0103
18475TIP3    H276841   2.549   0.094  10.859 -0.6667 -0.7039 -2.3306
18476TIP3   OH276842   2.192   1.127  12.071 -0.6277  0.2864  0.3786
18476TIP3    H176843   2.111   1.087  12.102 -0.6035 -1.7102 -2.0007
18476TIP3    H276844   2.254   1.054  12.067  1.2527  1.7421  1.9500
18477TIP3   OH276845   2.521   3.895   5.066 -0.1066  0.3244 -0.0914
18477TIP3    H176846   2.535   3.803   5.088 -0.9574  0.4499  1.0252
18477TIP3    H276847   2.453   3.894   4.998 -0.7530  0.1617  0.5487
18478TIP3   OH276848   5.492   4.570  15.940  0.1324 -0.3509  0.7767
18478TIP3    H176849   5.573   4.618  15.957 -0.1437  0.7330 -0.8736
18478TIP3    H276850   5.506   4.527  15.856 -0.7454 -0.7119  0.8070
18479TIP3   OH276851   6.331   5.023  14.864 -0.0690  0.3317  0.4969
18479TIP3    H176852   6.381   4.962  14.811  0.1365  2.1686 -1.5173
18479TIP3    H276853   6.256   5.046  14.809 -0.2894  1.6655  1.3300
18480TIP3   OH276854   3.099   2.151   2.762  0.3743  0.3571  0.0946
18480TIP3    H176855   3.111   2.196   2.678 -1.8493  2.4866  0.8483
18480TIP3    H276856   3.032   2.084   2.744 -1.2550  1.8427  0.4758
18481TIP3   OH276857   1.710   1.288   3.826  0.0079  0.4189  0.1462
18481TIP3    H176858   1.667   1.207   3.798  0.2970 -0.3045  1.7076
18481TIP3    H276859   1.788   1.258   3.873  0.5748  1.6333 -0.0116
18482TIP3   OH276860   1.210   3.467  14.898 -0.0674  0.0863 -0.0802
18482TIP3    H176861   1.195   3.376  14.924  1.7417 -0.4634 -0.8393
18482TIP3    H276862   1.220   3.464  14.803  1.1629  0.8777 -0.0000
18483TIP3   OH276863   3.354   1.589   4.849  0.5722 -0.6564  0.5730
18483TIP3    H176864   3.444   1.609   4.876  0.5507 -0.2268  0.3223
18483TIP3    H276865   3.302   1.600   4.928  0.5092  0.6071  0.3639
18484TIP3   OH276866   0.074   3.357   0.178 -0.6399 -0.3436 -0.7146
18484TIP3    H176867   0.043   3.437   0.137 -0.3579  0.1841  0.0730
18484TIP3    H276868   0.166   3.352   0.154 -0.3320  0.2629  0.2794
18485TIP3   OH276869   0.840   6.477  15.230  0.1261 -0.3799 -0.1075
18485TIP3    H176870   0.777   6.511  15.294  2.8488  0.8514  2.0476
18485TIP3    H276871   0.818   6.522  15.149 -3.1786 -1.6956  0.0032
18486TIP3   OH276872   1.871   0.889   2.617  0.2220 -0.8917 -0.5621
18486TIP3    H176873   1.844   0.924   2.702 -0.0554 -0.7655 -0.7003
18486TIP3    H276874   1.853   0.795   2.624  0.5347 -0.9350 -0.3546
18487TIP3   OH276875   1.748   1.050   2.081  0.1167  0.4700  0.1654
18487TIP3    H176876   1.740   1.096   2.165  0.7335  1.4261 -0.2964
18487TIP3    H276877   1.661   1.013   2.066 -0.1824  0.8582  0.8984
18488TIP3   OH276878   6.092   1.936  16.775  0.5398  0.0769  0.3805
18488TIP3    H176879   6.138   1.967  16.853  1.7982  0.0955 -0.3559
18488TIP3    H276880   6.008   1.983  16.776  1.5214  1.8542  0.4549
18489TIP3   OH276881   3.488   6.731   3.115 -0.3028  0.4350  0.3512
18489TIP3    H176882   3.437   6.677   3.055 -0.9316 -0.6781  1.8590
18489TIP3    H276883   3.575   6.737   3.075 -0.0439 -2.2380  0.4835
18490TIP3   OH276884   6.378   3.837   2.999  0.2737 -0.4056 -0.1814
18490TIP3    H176885   6.320   3.841   3.075  1.1986 -1.8300  0.6137
18490TIP3    H276886   6.348   3.761   2.950  1.5064 -1.2137  0.2927
18491TIP3   OH276887   2.286   1.553   3.346  0.9910  0.8270  0.6421
18491TIP3    H176888   2.300   1.547   3.252  0.4959 -0.4252  0.6394
18491TIP3    H276889   2.244   1.638   3.359 -0.2642  0.3906 -0.4358
18492TIP3   OH276890   0.704   0.259   4.123  0.0251  0.2389 -0.1928
18492TIP3    H176891   0.775   0.294   4.177 -1.0596  2.2203 -0.0314
18492TIP3    H276892   0.730   0.281   4.033 -0.3178  0.8735 -0.1412
18493TIP3   OH276893   4.839   0.982  11.294 -0.0644  0.3092  0.1399
18493TIP3    H176894   4.781   0.911  11.321  0.9502 -0.3731  0.5554
18493TIP3    H276895   4.858   1.030  11.375  0.7188 -0.0509  0.1742
18494TIP3   OH276896   4.202   6.097   0.065 -0.1661 -0.3595  0.1672
18494TIP3    H176897   4.189   6.135   0.151 -2.6416 -0.9591  0.1013
18494TIP3    H276898   4.261   6.023   0.080  1.8778  1.4004  0.8372
18495TIP3   OH276899   3.116   1.419  16.674 -0.2870 -0.1222 -0.4652
18495TIP3    H176900   3.161   1.440  16.592  2.9271 -1.0299  0.9929
18495TIP3    H276901   3.142   1.330  16.694 -2.4047 -0.5100  0.7133
18496TIP3   OH276902   2.146   0.818  11.775 -0.2182 -0.4219 -0.3408
18496TIP3    H176903   2.065   0.767  11.779  0.1500 -0.8784  3.6106
18496TIP3    H276904   2.215   0.752  11.772  0.2047 -0.2374  3.3708
18497TIP3   OH276905   3.698   2.165  16.436  0.1643 -0.2578 -0.2180
18497TIP3    H176906   3.708   2.070  16.443 -1.1491 -0.6684 -3.0499
18497TIP3    H276907   3.604   2.179  16.426  0.1584  1.5237  2.0257
18498TIP3   OH276908   6.398   6.467  17.099  0.4224 -0.2341 -0.2711
18498TIP3    H176909   6.429   6.379  17.118  0.2885  0.1085  1.6480
18498TIP3    H276910   6.464   6.524  17.139 -1.6425  0.5129  2.1823
18499TIP3   OH276911   2.613   3.519   4.476  0.1129  0.4106  0.0490
18499TIP3    H176912   2.689   3.514   4.535  0.4006  0.7240 -0.2947
18499TIP3    H276913   2.540   3.543   4.533  0.4370  0.9428  0.2399
18500TIP3   OH276914   3.811   4.347  12.776 -0.4618 -0.3508  0.6403
18500TIP3    H176915   3.773   4.310  12.856  1.4740 -0.6449  1.4543
18500TIP3    H276916   3.824   4.439  12.797 -2.0834  0.0790 -0.1710
18501TIP3   OH276917   6.440   0.439  16.818 -0.3372 -0.1939  0.3291
18501TIP3    H176918   6.385   0.363  16.834 -2.2708  0.9636 -0.5787
18501TIP3    H276919   6.435   0.490  16.899  1.2062 -1.1502  1.0503
18502TIP3   OH276920   4.620   3.618  13.668 -0.4665  0.4543  0.6984
18502TIP3    H176921   4.632   3.528  13.636 -1.9978  0.4362  0.1214
18502TIP3    H276922   4.548   3.611  13.731  1.3881  0.7795  2.9245
18503TIP3   OH276923   1.424   3.574   1.171 -0.2919 -0.1881  0.3322
18503TIP3    H176924   1.461   3.558   1.258 -0.1272 -0.2325  0.2554
18503TIP3    H276925   1.500   3.595   1.117 -0.3357 -0.6959  0.0747
18504TIP3   OH276926   0.616   1.173   1.940  0.2279 -0.0713  0.0444
18504TIP3    H176927   0.579   1.251   1.982 -2.0766 -1.3840  0.5478
18504TIP3    H276928   0.616   1.195   1.846 -0.0404  0.6828  0.2138
18505TIP3   OH276929   4.077   1.108   0.079  0.2055 -0.1834 -0.0873
18505TIP3    H176930   3.989   1.116   0.114  0.7669 -1.2414  1.6265
18505TIP3    H276931   4.073   1.032   0.020 -0.3884  0.7183 -1.2274
18506TIP3   OH276932   6.292   4.760   0.456  0.1905  0.0365  0.5271
18506TIP3    H176933   6.304   4.816   0.533 -1.5600 -1.0789  1.6481
18506TIP3    H276934   6.351   4.686   0.471  0.0800 -0.0283  0.6383
18507TIP3   OH276935   5.361   1.292  11.588  0.2251  0.2507 -0.1520
18507TIP3    H176936   5.437   1.237  11.607 -0.5609 -0.4282  1.1120
18507TIP3    H276937   5.396   1.363  11.535  1.8432  0.2185  0.8225
18508TIP3   OH276938   3.569   2.706   5.716 -0.2320  1.0426 -0.1849
18508TIP3    H176939   3.632   2.745   5.776  1.2700 -1.1277 -0.3036
18508TIP3    H276940   3.489   2.695   5.769  0.5915  0.5974  0.9865
18509TIP3   OH276941   5.530   5.282   2.870 -0.2501 -0.1569 -0.3239
18509TIP3    H176942   5.625   5.285   2.876 -0.1190 -1.3077 -1.6322
18509TIP3    H276943   5.512   5.266   2.777 -1.7261  0.1867 -0.1194
18510TIP3   OH276944   3.741   4.887  12.615 -0.6919 -0.4265 -0.4674
18510TIP3    H176945   3.700   4.933  12.542 -0.6465 -1.5793 -1.2166
18510TIP3    H276946   3.801   4.952  12.653 -1.7447  0.6278 -0.5724
18511TIP3   OH276947   4.207   4.102  10.608 -0.1202  0.1018 -0.4829
18511TIP3    H176948   4.183   4.011  10.594 -0.6354  0.2983 -0.8585
18511TIP3    H276949   4.158   4.151  10.542 -2.2779  0.9817  1.6934
18512TIP3   OH276950   5.387   6.348  12.230 -0.7737 -0.7053  0.4551
18512TIP3    H176951   5.463   6.403  12.251 -0.3793 -0.3890 -1.7039
18512TIP3    H276952   5.366   6.370  12.139 -3.3359 -0.9368  0.9570
18513TIP3   OH276953   4.978   6.176   5.511 -0.1034  0.2616 -0.0775
18513TIP3    H176954   5.063   6.133   5.507  0.0362  0.5876 -0.6966
18513TIP3    H276955   4.976   6.217   5.598  0.0823 -0.3255  0.2067
18514TIP3   OH276956   4.175   3.000  13.453 -0.1455 -0.2419 -0.0901
18514TIP3    H176957   4.162   3.008  13.358  2.8791 -1.0049 -0.6241
18514TIP3    H276958   4.153   3.086  13.488 -0.5591  0.2674 -1.5801
18515TIP3   OH276959   0.656   1.729   3.116 -0.2802  0.5544  0.3846
18515TIP3    H176960   0.637   1.819   3.092 -0.4322  0.4951  0.2839
18515TIP3    H276961   0.732   1.705   3.063  0.2412  0.8778  0.9779
18516TIP3   OH276962   4.748   5.090   6.325 -0.0596  0.8677 -0.2203
18516TIP3    H176963   4.831   5.089   6.277  0.4795  2.1656  0.6335
18516TIP3    H276964   4.760   5.158   6.392 -0.9192 -0.6383  1.5122
18517TIP3   OH276965   0.573   4.552   3.804  0.1417 -0.0139  0.0426
18517TIP3    H176966   0.587   4.524   3.894 -0.6663 -1.8159 -0.3585
18517TIP3    H276967   0.612   4.483   3.751 -1.2777 -0.0391 -0.9931
18518TIP3   OH276968   1.940   4.697  12.047  0.2519  0.0283 -0.1722
18518TIP3    H176969   1.956   4.751  11.970  1.5171  0.1462  0.1532
18518TIP3    H276970   2.016   4.638  12.050 -0.6480 -1.1448 -0.0033
18519TIP3   OH276971   0.297   2.044   4.997 -0.1476  0.1487 -0.1297
18519TIP3    H176972   0.390   2.035   5.015 -0.1965 -1.6809 -0.7158
18519TIP3    H276973   0.293   2.102   4.920  0.3929  1.7088  0.9869
18520TIP3   OH276974   6.533   4.274   0.672 -0.1854 -0.1395 -0.7930
18520TIP3    H176975   6.445   4.250   0.701  0.8276 -1.5292  1.1705
18520TIP3    H276976   6.557   4.349   0.726  0.4153 -0.6854 -0.2961
18521TIP3   OH276977   3.031   3.444   3.237  0.2030 -0.3238  0.1366
18521TIP3    H176978   3.105   3.413   3.185 -0.7260 -0.1149 -1.3323
18521TIP3    H276979   3.054   3.534   3.259  1.1830 -0.8220  1.1946
18522TIP3   OH276980   3.578   1.819  12.017  0.2091  0.2561 -0.2191
18522TIP3    H176981   3.620   1.905  12.015  1.3729 -0.2934  0.4971
18522TIP3    H276982   3.633   1.766  12.075 -1.3404 -0.5412  0.5604
18523TIP3   OH276983   6.464   0.769  14.147  0.0181  0.1497 -0.2206
18523TIP3    H176984   6.511   0.850  14.169  1.0489 -0.8342  1.3073
18523TIP3    H276985   6.374   0.786  14.172  0.1309  0.9953 -0.3599
18524TIP3   OH276986   1.100   2.296  15.409  0.4148 -0.3430  0.5565
18524TIP3    H176987   1.031   2.233  15.430  1.8031 -2.8881 -2.2314
18524TIP3    H276988   1.053   2.367  15.363 -0.6727 -0.9772  0.6564
18525TIP3   OH276989   6.044   6.664   4.643  0.5843 -0.8111  0.3274
18525TIP3    H176990   6.075   6.716   4.717  2.0935 -0.6222 -0.4238
18525TIP3    H276991   5.960   6.703   4.621  1.0299  0.3944  0.6942
18526TIP3   OH276992   5.788   2.689   3.304  0.5923  0.0471 -0.0270
18526TIP3    H176993   5.793   2.737   3.221  0.3495 -1.9982 -1.2700
18526TIP3    H276994   5.732   2.614   3.284  0.9434 -0.7453  1.8805
18527TIP3   OH276995   4.951   2.049  10.527  0.0292 -0.4152 -0.4215
18527TIP3    H176996   4.954   2.098  10.445  0.3544  0.0384 -0.1428
18527TIP3    H276997   5.019   1.982  10.517  1.5677  1.0003  0.3231
18528TIP3   OH276998   0.647   3.654  13.276  0.2396  0.5382 -0.3470
18528TIP3    H176999   0.677   3.586  13.216  2.2039  0.2115  0.9627
18528TIP3    H277000   0.552   3.650  13.270  0.3610 -0.8967 -1.8696
18529TIP3   OH277001   6.440   3.004   5.183  0.2817 -0.3381 -0.6826
18529TIP3    H177002   6.441   2.912   5.209  0.2839 -0.3237 -0.6317
18529TIP3    H277003   6.476   3.051   5.258 -1.2371 -0.1352 -0.0599
18530TIP3   OH277004   1.007   2.230  10.861  0.0043 -0.7951  0.1802
18530TIP3    H177005   1.036   2.311  10.818  0.7404 -1.3525 -0.4013
18530TIP3    H277006   1.087   2.194  10.898  0.0858 -2.3665 -1.4511
18531TIP3   OH277007   6.543   0.111   3.945 -0.1144 -0.1270  0.8687
18531TIP3    H177008   6.516   0.020   3.938 -1.1289  0.0830  1.7480
18531TIP3    H277009   6.574   0.134   3.858 -2.7655 -0.4377 -0.2306
18532TIP3   OH277010   6.709   1.556  13.261 -0.3515  0.3687  0.7950
18532TIP3    H177011   6.783   1.575  13.320 -1.9298 -0.4337  3.1383
18532TIP3    H277012   6.732   1.472  13.221  1.3880  1.5991 -0.8449
18533TIP3   OH277013   0.500   3.038  13.059 -0.3422 -0.2318  0.7067
18533TIP3    H177014   0.554   2.988  13.121 -2.0396 -2.0669  0.7502
18533TIP3    H277015   0.447   2.972  13.015 -1.9914  1.4602  0.1081
18534TIP3   OH277016   3.292   1.105   4.678 -0.9767 -0.0765 -0.5234
18534TIP3    H177017   3.379   1.074   4.702 -0.3523  0.8519 -1.5524
18534TIP3    H277018   3.233   1.053   4.732  0.2583  0.0805  1.0170
18535TIP3   OH277019   5.105   6.169  12.700 -0.2514  0.0951 -0.6511
18535TIP3    H177020   5.144   6.143  12.617 -0.1311 -1.5482 -0.1009
18535TIP3    H277021   5.127   6.261  12.710  3.7016 -0.8326 -0.2290
18536TIP3   OH277022   5.907   3.851  14.365  0.1008 -0.3715 -0.1169
18536TIP3    H177023   5.991   3.890  14.388  0.0757  0.7626 -1.8693
18536TIP3    H277024   5.844   3.899  14.420  0.2008  1.3366 -1.4442
18537TIP3   OH277025   2.536   3.527   5.795  0.0179  0.4282 -0.4195
18537TIP3    H177026   2.479   3.526   5.873  0.6653 -0.2575  0.0464
18537TIP3    H277027   2.505   3.453   5.743 -0.9250  1.3478 -1.1977
18538TIP3   OH277028   5.268   1.153   6.030 -0.0111  0.1534  0.0922
18538TIP3    H177029   5.361   1.160   6.048 -0.2611 -0.5212  1.7650
18538TIP3    H277030   5.228   1.143   6.117 -1.4628 -1.3312 -0.7207
18539TIP3   OH277031   5.533   1.251  11.285 -0.0854  0.5976  0.0151
18539TIP3    H177032   5.551   1.161  11.259  0.7659 -0.5753  4.2380
18539TIP3    H277033   5.438   1.257  11.287 -0.1731  0.5924 -2.6579
18540TIP3   OH277034   2.393   6.640   4.357 -0.1521 -0.5071 -0.6396
18540TIP3    H177035   2.412   6.697   4.432 -0.7952 -1.0443 -0.0617
18540TIP3    H277036   2.468   6.652   4.299 -0.6569  1.5226 -0.8980
18541TIP3   OH277037   0.085   0.569  16.038  0.3125  0.3848 -0.2484
18541TIP3    H177038   0.137   0.489  16.048  0.3618  0.5217  0.6158
18541TIP3    H277039   0.098   0.594  15.947  1.6572  0.3384 -0.0878
18542TIP3   OH277040   0.695   2.048  16.586  0.5846 -0.1533  0.1519
18542TIP3    H177041   0.699   2.060  16.681 -2.4032  0.3934  0.2323
18542TIP3    H277042   0.751   1.971  16.570  1.0900 -0.2738  2.3483
18543TIP3   OH277043   3.947   3.679   2.922  0.1254  0.6058  0.0245
18543TIP3    H177044   3.862   3.675   2.877  0.2010  1.6775 -0.2408
18543TIP3    H277045   3.954   3.596   2.968 -0.4111 -0.0987 -1.1395
18544TIP3   OH277046   2.456   5.224  11.532  0.0000  0.3262 -0.5525
18544TIP3    H177047   2.361   5.218  11.539  0.1232 -1.1427  0.0918
18544TIP3    H277048   2.485   5.247  11.620  0.0861  3.2154 -1.3067
18545TIP3   OH277049   0.444   3.562   6.361 -0.1308 -0.2377  0.1347
18545TIP3    H177050   0.382   3.490   6.356  0.9343 -1.0682 -2.5551
18545TIP3    H277051   0.477   3.571   6.271  3.4269  0.2972  1.3822
18546TIP3   OH277052   1.803   3.754  12.497  0.4806 -0.6906  0.2983
18546TIP3    H177053   1.785   3.848  12.502  0.1380 -0.7479  0.1760
18546TIP3    H277054   1.783   3.730  12.407  1.6382 -0.6699  0.0278
18547TIP3   OH277055   6.292   2.974  10.820 -0.1900 -0.0496 -0.0342
18547TIP3    H177056   6.285   2.898  10.761  2.4956  0.0372 -0.5335
18547TIP3    H277057   6.354   2.946  10.888  2.0464  2.1469 -1.0592
18548TIP3   OH277058   1.440   0.814   3.595  0.0196 -0.0891 -0.2375
18548TIP3    H177059   1.358   0.861   3.613  0.1581 -0.2503  0.8521
18548TIP3    H277060   1.429   0.781   3.506 -0.2452  1.6355 -0.8592
18549TIP3   OH277061   3.250   2.742  12.538  0.2621 -0.1726  0.1879
18549TIP3    H177062   3.157   2.735  12.559  0.1209  0.7599 -0.1261
18549TIP3    H277063   3.263   2.678  12.468  0.1424 -1.2466  1.1205
18550TIP3   OH277064   1.792   4.597  11.187 -0.8551  0.6067  0.0490
18550TIP3    H177065   1.843   4.673  11.162 -1.0146  0.6100 -0.2594
18550TIP3    H277066   1.788   4.543  11.108 -2.7126  1.3744 -0.3770
18551TIP3   OH277067   5.851   1.635   1.008 -0.3275 -0.1080 -0.0367
18551TIP3    H177068   5.830   1.679   1.090  0.6297  0.6188 -0.1724
18551TIP3    H277069   5.810   1.549   1.015  0.2437 -0.2566  1.4320
18552TIP3   OH277070   6.565   3.111  16.821  0.2425  0.0514 -0.0927
18552TIP3    H177071   6.472   3.115  16.801  0.3486  1.2835 -0.3686
18552TIP3    H277072   6.570   3.074  16.909 -0.5769  1.1895  0.4454
18553TIP3   OH277073   5.163   2.689  10.618 -0.0109 -0.5337  0.3791
18553TIP3    H177074   5.186   2.718  10.706 -1.8612 -3.0661  1.7560
18553TIP3    H277075   5.218   2.612  10.602 -0.5013 -0.7615 -0.2378
18554TIP3   OH277076   1.764   0.391  15.974 -0.5266  0.4256  0.0256
18554TIP3    H177077   1.742   0.406  16.066 -1.4016 -0.6781  0.0152
18554TIP3    H277078   1.683   0.357  15.936  0.0670  0.1016 -0.9584
18555TIP3   OH277079   3.777   0.357  16.874 -0.5269 -0.0089  0.0303
18555TIP3    H177080   3.794   0.263  16.872  2.0781  0.4503 -2.3124
18555TIP3    H277081   3.810   0.385  16.960 -1.1560 -1.2004  0.6647
18556TIP3   OH277082   4.425   0.431   4.144 -0.6251 -0.0499  0.5355
18556TIP3    H177083   4.497   0.420   4.207  0.5781 -0.3167 -0.8524
18556TIP3    H277084   4.395   0.521   4.157  0.5608  0.3601  0.5273
18557TIP3   OH277085   5.778   3.347  13.618 -0.2302 -0.0320  0.1358
18557TIP3    H177086   5.817   3.367  13.703  0.3348  1.3748 -0.4414
18557TIP3    H277087   5.692   3.389  13.621  0.5976  1.7999 -0.7318
18558TIP3   OH277088   3.938   4.411  16.243 -0.0743 -0.2326  0.4330
18558TIP3    H177089   3.919   4.353  16.169  1.3843 -1.8248  1.2776
18558TIP3    H277090   3.919   4.357  16.320 -0.6405  1.0896  1.2233
18559TIP3   OH277091   3.978   2.521   0.897 -0.1520 -0.2751 -0.4917
18559TIP3    H177092   4.014   2.436   0.870 -0.3235 -0.2759 -0.7215
18559TIP3    H277093   4.041   2.556   0.959  0.9172  0.3225 -1.8872
18560TIP3   OH277094   4.578   3.979  13.728  0.7793  0.5993  0.0895
18560TIP3    H177095   4.533   4.032  13.663  0.1324  0.2365  0.2418
18560TIP3    H277096   4.511   3.956  13.792  0.7797 -1.3616 -0.5674
18561TIP3   OH277097   3.278   5.610  14.799 -0.0780  0.1745  0.7312
18561TIP3    H177098   3.229   5.539  14.839  0.4470 -0.2968  0.5509
18561TIP3    H277099   3.303   5.577  14.713  1.5440 -0.0431  1.2561
18562TIP3   OH277100   1.235   6.048  12.276  0.0553 -0.1197 -0.1000
18562TIP3    H177101   1.233   6.008  12.363  0.4224  2.8757  1.3485
18562TIP3    H277102   1.302   6.116  12.283 -0.6157  0.8184 -2.4370
18563TIP3   OH277103   5.651   3.541  14.880  0.4188 -0.0574  0.0026
18563TIP3    H177104   5.586   3.608  14.903  0.5918 -0.3864  1.5053
18563TIP3    H277105   5.721   3.552  14.944  1.3757 -0.3789 -0.9730
18564TIP3   OH277106   4.621   4.413  15.388  0.0695 -0.3576 -0.5387
18564TIP3    H177107   4.546   4.430  15.332  0.3503  1.3728 -0.4023
18564TIP3    H277108   4.696   4.415  15.329  0.4120  1.9246 -0.0431
18565TIP3   OH277109   1.664   1.681  15.871 -0.2477  0.0488 -0.4113
18565TIP3    H177110   1.711   1.755  15.834  1.6510 -0.0558  1.6395
18565TIP3    H277111   1.635   1.711  15.957 -0.1356 -1.3310  0.1270
18566TIP3   OH277112   1.016   5.630  17.098 -0.1419  0.6724 -0.3927
18566TIP3    H177113   1.109   5.645  17.086  0.1874 -2.4413 -2.2545
18566TIP3    H277114   0.999   5.653  17.189  2.1400  2.5561 -0.4016
18567TIP3   OH277115   0.451   0.304   3.114  0.1648  0.3616 -0.4717
18567TIP3    H177116   0.461   0.307   3.019 -0.2937 -0.8269 -0.5632
18567TIP3    H277117   0.492   0.384   3.145  0.0311  0.9125 -1.7018
18568TIP3   OH277118   1.253   1.800   5.667 -0.2626 -0.5476  0.0097
18568TIP3    H177119   1.227   1.777   5.756  0.2152  0.3841  0.3877
18568TIP3    H277120   1.191   1.868   5.641  0.3738  0.0620  0.0848
18569TIP3   OH277121   1.452   0.953  12.631 -0.1104 -0.0660 -0.5780
18569TIP3    H177122   1.532   1.002  12.615  0.6918 -1.5773 -1.2734
18569TIP3    H277123   1.455   0.932  12.724 -0.7625  1.6939 -0.1359
18570TIP3   OH277124   2.392   5.900   5.602  0.2266 -0.3310  0.1576
18570TIP3    H177125   2.307   5.862   5.625  0.0031  0.3222  0.4027
18570TIP3    H277126   2.383   5.993   5.622  0.5018  0.0001 -1.2475
18571TIP3   OH277127   1.962   3.156   2.988  0.3721  0.4469  0.2007
18571TIP3    H177128   1.917   3.071   2.994 -0.5564  0.9466  0.3837
18571TIP3    H277129   1.995   3.172   3.076  1.9456 -0.4662 -0.1947
18572TIP3   OH277130   2.571   1.215   1.244 -0.1903 -0.0884 -0.1525
18572TIP3    H177131   2.601   1.124   1.241 -2.4574 -0.9857  2.0902
18572TIP3    H277132   2.568   1.236   1.337 -1.4554  1.6442 -0.5628
18573TIP3   OH277133   0.114   0.153   4.341  0.0077  0.2539 -0.0689
18573TIP3    H177134   0.093   0.231   4.392 -0.6714  1.4581 -2.1305
18573TIP3    H277135   0.097   0.178   4.250  1.7678 -1.6494 -0.9656
18574TIP3   OH277136   6.452   6.573   5.431  0.0914  0.0235  0.6615
18574TIP3    H177137   6.360   6.574   5.460 -0.5986  2.3298 -1.4886
18574TIP3    H277138   6.461   6.489   5.385 -0.5809 -0.7596  1.9238
18575TIP3   OH277139   1.276   5.116   4.675  0.2777  0.2190  0.4169
18575TIP3    H177140   1.352   5.174   4.676 -0.0947  0.7636 -1.4623
18575TIP3    H277141   1.202   5.173   4.697  0.2249 -0.0347  0.9106
18576TIP3   OH277142   1.061   3.674  10.775  0.5688  0.1872 -0.1409
18576TIP3    H177143   1.067   3.624  10.693 -0.1036  1.3334 -0.9078
18576TIP3    H277144   1.006   3.748  10.753  0.1032  0.3277  1.4652
18577TIP3   OH277145   5.171   3.811  13.418 -0.3572  0.4819  0.1148
18577TIP3    H177146   5.129   3.746  13.362 -0.3294  0.0511  0.5920
18577TIP3    H277147   5.115   3.816  13.495  0.4111 -0.0248  0.7161
18578TIP3   OH277148   2.967   1.282  11.054 -0.7283  0.1867  0.4176
18578TIP3    H177149   3.013   1.214  11.104 -1.4919 -0.0800  0.7534
18578TIP3    H277150   3.034   1.349  11.039 -0.0619 -0.4769  0.3783
18579TIP3   OH277151   1.058   3.884   4.704  0.1622  0.0946  0.1414
18579TIP3    H177152   0.999   3.823   4.749 -0.4209  0.0429 -0.6826
18579TIP3    H277153   1.001   3.934   4.645  1.0631 -0.6584 -1.4075
18580TIP3   OH277154   4.034   0.687  15.016 -0.2978  0.5213  0.2302
18580TIP3    H177155   4.110   0.635  14.993 -0.8146  0.2015 -0.7725
18580TIP3    H277156   4.025   0.750  14.945 -0.4829  1.0936  0.7525
18581TIP3   OH277157   1.525   0.384   3.175  0.7625  0.2039  0.3076
18581TIP3    H177158   1.499   0.403   3.265  1.8846 -2.6679  1.3084
18581TIP3    H277159   1.447   0.343   3.136  0.6100  0.5006  0.3023
18582TIP3   OH277160   5.141   0.274   5.145 -0.3492  0.1740  0.1218
18582TIP3    H177161   5.140   0.331   5.068  0.0467 -0.1463 -0.1170
18582TIP3    H277162   5.223   0.294   5.190 -0.6497  0.4738  0.5486
18583TIP3   OH277163   5.087   5.178  16.182 -0.2699 -0.3343  0.5299
18583TIP3    H177164   5.046   5.257  16.218 -0.8185  0.1814 -1.1808
18583TIP3    H277165   5.180   5.188  16.201 -0.1886  1.2586 -0.6034
18584TIP3   OH277166   0.622   1.025  10.675  0.3975  0.6516  0.2690
18584TIP3    H177167   0.685   1.090  10.645  0.3834  0.5401 -0.0047
18584TIP3    H277168   0.659   0.990  10.756  0.0982  1.4535  0.7501
18585TIP3   OH277169   3.958   0.990   2.008 -0.4585  0.0993  0.1571
18585TIP3    H177170   3.952   0.920   1.942  2.3633 -0.9662  0.9645
18585TIP3    H277171   3.872   0.990   2.050 -1.4169 -1.0228 -1.7043
18586TIP3   OH277172   5.650   6.308   1.695  0.0537 -0.3232  0.0295
18586TIP3    H177173   5.554   6.311   1.695 -0.0497 -2.6163 -0.5376
18586TIP3    H277174   5.673   6.285   1.785  0.0895  0.4361  0.2173
18587TIP3   OH277175   5.816   0.870   3.446  0.4868 -0.4167 -0.4001
18587TIP3    H177176   5.894   0.860   3.500 -0.3033 -0.4487  0.7405
18587TIP3    H277177   5.838   0.940   3.384  0.9753  0.4287  0.7220
18588TIP3   OH277178   5.551   6.511   4.926  0.0362 -0.5010  0.5776
18588TIP3    H177179   5.567   6.518   4.832  2.3018  2.1873  1.0698
18588TIP3    H277180   5.633   6.478   4.962 -0.5508 -0.7740  1.6756
18589TIP3   OH277181   1.477   6.678  16.498 -0.1692  0.1956 -0.8975
18589TIP3    H177182   1.515   6.656  16.413  0.8259  0.5895 -0.5586
18589TIP3    H277183   1.392   6.633  16.498  0.1366 -0.4007 -1.7949
18590TIP3   OH277184   2.489   1.403  10.968  0.4428 -0.1978 -0.3999
18590TIP3    H177185   2.559   1.376  11.028  0.3376 -4.4614 -1.9922
18590TIP3    H277186   2.439   1.468  11.017  1.9857 -1.4810  3.0685
18591TIP3   OH277187   0.421   5.840  10.460 -0.3366 -0.4149 -0.3625
18591TIP3    H177188   0.494   5.863  10.517 -1.3106 -0.0408  0.7435
18591TIP3    H277189   0.367   5.780  10.512 -0.7064 -0.8660 -1.2442
18592TIP3   OH277190   1.997   0.250   5.129 -0.5577 -0.4799  0.1545
18592TIP3    H177191   2.051   0.326   5.150  2.3968 -2.8605  1.7865
18592TIP3    H277192   1.989   0.251   5.034  2.0547  0.1910 -0.0906
18593TIP3   OH277193   2.370   3.259   5.482  0.3946 -0.6773 -0.3941
18593TIP3    H177194   2.319   3.218   5.412 -0.2472 -0.6577  0.0555
18593TIP3    H277195   2.318   3.244   5.561  0.8042 -0.1398 -0.0209
18594TIP3   OH277196   4.862   2.892   4.759  0.1611  0.5963  0.2907
18594TIP3    H177197   4.807   2.816   4.781  3.0344 -1.2536  1.3987
18594TIP3    H277198   4.913   2.908   4.838  1.4986  1.9818 -0.8289
18595TIP3   OH277199   0.124   4.115   5.884  0.6404 -0.1352 -0.1374
18595TIP3    H177200   0.182   4.046   5.854  1.1372  1.2006 -2.3761
18595TIP3    H277201   0.181   4.176   5.930  0.8984  0.7118 -1.5390
18596TIP3   OH277202   0.550   3.408   6.572  0.0735 -0.1001  0.4870
18596TIP3    H177203   0.549   3.470   6.499  1.2228 -1.2639 -0.5502
18596TIP3    H277204   0.519   3.459   6.647 -2.5690  0.7118 -1.1091
18597TIP3   OH277205   3.415   2.366   1.933 -0.0310 -0.0123  0.0837
18597TIP3    H177206   3.376   2.291   1.889 -2.3474  0.8742  0.5666
18597TIP3    H277207   3.347   2.432   1.933  1.1751  1.2764  1.7773
18598TIP3   OH277208   1.615   0.992   3.071 -0.0220  0.2481 -0.4618
18598TIP3    H177209   1.685   1.001   3.135  0.3065 -0.4868 -0.7182
18598TIP3    H277210   1.535   0.984   3.125  0.3018 -0.8316 -0.1206
18599TIP3   OH277211   1.241   4.156   1.241 -0.3279  0.5437 -0.3227
18599TIP3    H177212   1.266   4.190   1.155 -1.0245  2.9541  0.3761
18599TIP3    H277213   1.146   4.168   1.244 -0.1788  1.3766  1.1628
18600TIP3   OH277214   3.231   6.565  13.782  0.3180 -0.0065 -0.3181
18600TIP3    H177215   3.212   6.609  13.865 -1.6368 -1.5974  0.1216
18600TIP3    H277216   3.282   6.488  13.807  1.3651  0.5045 -0.8181
18601TIP3   OH277217   1.706   6.336  15.516  0.5859 -0.0735 -0.4644
18601TIP3    H177218   1.773   6.314  15.581  0.5789 -0.5898 -0.6304
18601TIP3    H277219   1.646   6.261  15.518 -1.5567  1.5897  1.7231
18602TIP3   OH277220   5.610   2.060  15.659 -0.1575  0.7434  0.1587
18602TIP3    H177221   5.590   1.972  15.692 -3.5144  0.8927 -1.3425
18602TIP3    H277222   5.667   2.098  15.726  0.3637 -2.1219  1.4126
18603TIP3   OH277223   2.145   2.175  14.908  0.1822  0.3920  0.8343
18603TIP3    H177224   2.068   2.131  14.873  1.1489  1.4241 -2.7580
18603TIP3    H277225   2.212   2.107  14.912  0.6954  0.7318 -1.4797
18604TIP3   OH277226   1.136   0.039   4.502 -0.1671  0.4716 -0.1358
18604TIP3    H177227   1.133   0.050   4.597  0.2596 -0.0208 -0.0619
18604TIP3    H277228   1.128  -0.056   4.489  0.8628  0.4384 -0.5400
18605TIP3   OH277229   0.181   0.312   0.841  0.2547  0.0260 -0.1049
18605TIP3    H177230   0.226   0.229   0.833  1.9129  0.8778  0.2054
18605TIP3    H277231   0.101   0.292   0.890  0.5274 -1.4117 -0.2377
18606TIP3   OH277232   4.415   1.365  11.391  0.0857  0.9042  0.2978
18606TIP3    H177233   4.344   1.409  11.345 -0.5361  0.7106  1.0614
18606TIP3    H277234   4.427   1.414  11.472 -0.1509  0.0871  0.8371
18607TIP3   OH277235   0.643   0.326   2.512 -0.2404  0.0301  0.4969
18607TIP3    H177236   0.570   0.264   2.517  1.0031 -1.4749  0.4457
18607TIP3    H277237   0.623   0.381   2.436 -0.8257 -1.0127 -0.1113
18608TIP3   OH277238   2.114   4.084   2.122  0.0704  0.4147 -1.4040
18608TIP3    H177239   2.207   4.100   2.106  0.3001  0.0539 -0.5117
18608TIP3    H277240   2.113   3.999   2.167 -0.7114  0.2757 -1.6912
18609TIP3   OH277241   6.529   5.262  11.552 -0.2556  0.0189 -0.2803
18609TIP3    H177242   6.594   5.317  11.507  0.2022 -0.8299 -0.6705
18609TIP3    H277243   6.448   5.276  11.503  0.6230 -2.1929 -2.4702
18610TIP3   OH277244   4.766   5.509  12.623  0.0514 -0.5224  0.1226
18610TIP3    H177245   4.704   5.456  12.673 -0.6501  0.7797  0.6704
18610TIP3    H277246   4.775   5.589  12.674  0.9057 -0.0166 -0.8147
18611TIP3   OH277247   0.841   2.183   2.774 -0.2878  0.4483  0.1576
18611TIP3    H177248   0.920   2.161   2.725 -0.3758  0.2902  0.0863
18611TIP3    H277249   0.769   2.161   2.715 -0.4227 -0.7380  0.7569
18612TIP3   OH277250   6.429   0.890  15.615  0.1790 -0.0848  0.0847
18612TIP3    H177251   6.432   0.914  15.707  0.1332 -1.2745  0.4032
18612TIP3    H277252   6.348   0.840  15.605  2.0791 -3.3724  0.2721
18613TIP3   OH277253   3.205   1.522  12.283 -0.2286 -0.1880 -0.0122
18613TIP3    H177254   3.269   1.555  12.220  0.5073  0.1225  0.8906
18613TIP3    H277255   3.164   1.447  12.238  1.4161 -0.9586 -0.2378
18614TIP3   OH277256   1.681   2.194  11.515  0.1302 -0.3492  0.2577
18614TIP3    H177257   1.734   2.115  11.518  0.0430 -0.4153  0.0495
18614TIP3    H277258   1.690   2.232  11.602 -0.0616 -0.7394  0.4485
18615TIP3   OH277259   1.509   0.113  11.504 -0.4015 -0.4600 -0.1133
18615TIP3    H177260   1.514   0.018  11.497  0.2326 -0.2553 -3.6910
18615TIP3    H277261   1.567   0.135  11.577  3.4117 -2.5371 -2.3363
18616TIP3   OH277262   3.195   3.649   6.236 -0.4131 -0.2739  0.2196
18616TIP3    H177263   3.105   3.631   6.261 -0.2012  0.8450  1.9503
18616TIP3    H277264   3.189   3.722   6.174 -0.7466 -0.6943 -0.2385
18617TIP3   OH277265   3.519   0.756   1.029 -0.3474  0.4037  0.1426
18617TIP3    H177266   3.523   0.841   0.985  1.7246 -0.2176 -0.9322
18617TIP3    H277267   3.610   0.730   1.040 -0.9495 -1.6039  0.6257
18618TIP3   OH277268   2.199   0.996  12.442  0.1722 -0.6577 -0.6077
18618TIP3    H177269   2.115   0.970  12.481 -0.6360  0.2823 -1.6758
18618TIP3    H277270   2.239   0.914  12.413 -0.3336 -1.1212 -0.0028
18619TIP3   OH277271   3.537   1.848  15.141 -1.0056  0.4769 -0.0835
18619TIP3    H177272   3.599   1.900  15.092 -0.2140 -1.9479 -1.7316
18619TIP3    H277273   3.543   1.881  15.231 -0.1367  2.7978 -0.9785
18620TIP3   OH277274   3.667   3.388   6.644  0.1363  0.3476 -0.2217
18620TIP3    H177275   3.712   3.329   6.705  1.3293 -0.5277 -1.9075
18620TIP3    H277276   3.682   3.476   6.680  3.2277  0.0807 -0.7114
18621TIP3   OH277277   4.739   5.597  14.504 -0.6231 -0.1110 -0.2361
18621TIP3    H177278   4.831   5.619  14.490 -0.1512 -0.4093  2.2852
18621TIP3    H277279   4.740   5.527  14.569 -2.6920  0.6832  0.7004
18622TIP3   OH277280   6.049   3.738  13.077  0.2541 -1.1948  0.0658
18622TIP3    H177281   6.001   3.818  13.096  1.2342 -0.0160 -2.2535
18622TIP3    H277282   6.103   3.724  13.155 -0.1746  0.2111  0.6348
18623TIP3   OH277283   2.159   2.734  13.531 -0.0424  0.0794 -0.0734
18623TIP3    H177284   2.143   2.753  13.439  0.8230  1.1197 -0.0196
18623TIP3    H277285   2.225   2.665  13.530 -0.0482  0.0748 -0.2358
18624TIP3   OH277286   2.934   5.945  11.508  0.1978 -0.4085 -0.2253
18624TIP3    H177287   3.008   5.883  11.511 -0.7368 -1.4942  0.9298
18624TIP3    H277288   2.976   6.031  11.509  1.5205 -0.9930 -1.7038
18625TIP3   OH277289   5.366   6.337  15.576  0.0430 -0.2734 -0.0662
18625TIP3    H177290   5.439   6.329  15.514  0.2827 -2.5391  0.4674
18625TIP3    H277291   5.372   6.427  15.608  2.4954 -0.3598 -0.1621
18626TIP3   OH277292   6.052   4.640  13.072  0.1993  0.7778  0.1889
18626TIP3    H177293   5.966   4.638  13.030  0.4315  0.9902 -0.3037
18626TIP3    H277294   6.096   4.715  13.032 -0.1208  1.9040  1.8850
18627TIP3   OH277295   3.961   5.296   2.493  0.0637  0.2992  0.0473
18627TIP3    H177296   3.953   5.202   2.508  0.5927 -0.0813 -1.9373
18627TIP3    H277297   3.872   5.329   2.496 -0.1506 -0.3083  0.4198
18628TIP3   OH277298   5.635   6.586   1.858 -0.0142  0.3159 -0.0086
18628TIP3    H177299   5.718   6.621   1.892 -0.9384  1.6610  0.8723
18628TIP3    H277300   5.615   6.512   1.915  0.2200  0.4354  0.2327
18629TIP3   OH277301   1.923   5.482  17.036  0.4080 -0.6704 -0.4532
18629TIP3    H177302   1.845   5.495  17.090  1.0875 -2.5231  1.0104
18629TIP3    H277303   1.927   5.561  16.982 -3.2099 -1.1294 -1.5057
18630TIP3   OH277304   4.525   3.857  16.016 -0.1023  0.1043  0.1579
18630TIP3    H177305   4.468   3.892  15.948  0.4642  1.3426  0.2928
18630TIP3    H277306   4.590   3.927  16.031  1.8174 -1.4915 -0.4398
18631TIP3   OH277307   1.913   0.357  14.689 -0.1724  0.0600  0.5328
18631TIP3    H177308   1.841   0.307  14.651 -0.8643  1.1629  0.3691
18631TIP3    H277309   1.949   0.407  14.616 -0.5453  1.0420  1.0070
18632TIP3   OH277310   1.498   1.784   5.804  0.2629 -0.2357 -0.2928
18632TIP3    H177311   1.449   1.726   5.863 -1.5758  1.8305  0.2861
18632TIP3    H277312   1.439   1.797   5.729  0.7304  0.7521 -0.4906
18633TIP3   OH277313   0.011   0.390   4.411  0.1884  0.2727  0.6477
18633TIP3    H177314  -0.071   0.419   4.371  1.0306 -1.0681 -2.1758
18633TIP3    H277315   0.073   0.461   4.394  0.0809  0.4907  1.1679
18634TIP3   OH277316   6.664   0.665   4.382  0.2816 -0.0307  0.1028
18634TIP3    H177317   6.667   0.666   4.477  0.9457 -1.0249  0.1056
18634TIP3    H277318   6.580   0.704   4.359 -0.6247 -1.3287  1.1465
18635TIP3   OH277319   2.558   1.529   4.529  0.0391 -0.3223 -0.2174
18635TIP3    H177320   2.482   1.527   4.471  0.4105  0.6016 -0.7473
18635TIP3    H277321   2.590   1.439   4.530  0.6990 -0.1406 -2.3642
18636TIP3   OH277322   1.676   4.499   4.989 -0.6345  0.0826  0.1388
18636TIP3    H177323   1.606   4.552   5.029  0.2233 -0.0097  1.8346
18636TIP3    H277324   1.694   4.430   5.054  0.0585 -0.7333 -0.8997
18637TIP3   OH277325   0.864   2.791   0.110  0.5618 -0.0665  0.2831
18637TIP3    H177326   0.953   2.825   0.108  1.4406 -2.2804  0.8296
18637TIP3    H277327   0.874   2.696   0.104 -1.8327 -0.2655 -1.3887
18638TIP3   OH277328   3.935   5.010   0.477 -0.5164 -0.0368 -0.0421
18638TIP3    H177329   3.854   5.006   0.425  0.1565  0.1702 -1.1172
18638TIP3    H277330   3.979   5.089   0.448 -1.6772  1.8857  3.2100
18639TIP3   OH277331   1.954   4.759  14.755  0.1982  0.4645 -0.2068
18639TIP3    H177332   1.957   4.815  14.832 -0.1039  2.1855 -1.4117
18639TIP3    H277333   2.025   4.696  14.769  0.6024  1.1838  1.1445
18640TIP3   OH277334   2.055   6.397  15.870 -0.2108  0.1884 -0.5041
18640TIP3    H177335   2.130   6.370  15.923 -0.8226 -0.1699  0.1896
18640TIP3    H277336   2.057   6.493  15.873  1.1052  0.2053 -1.7520
18641TIP3   OH277337   1.064   3.133   6.325  0.0815  0.1424  0.0004
18641TIP3    H177338   1.090   3.147   6.234 -1.0512  0.6329 -0.2601
18641TIP3    H277339   1.137   3.169   6.377  0.2329  0.8734 -0.7116
18642TIP3   OH277340   4.485   2.640  14.731  0.0828 -0.2260  0.3938
18642TIP3    H177341   4.419   2.692  14.775  1.9908  1.6799  1.0728
18642TIP3    H277342   4.504   2.687  14.650  0.8998 -0.5365  0.3932
18643TIP3   OH277343   0.152   5.510  11.635 -0.1104  0.3098 -0.1020
18643TIP3    H177344   0.147   5.421  11.601  0.9310  0.0284  0.4917
18643TIP3    H277345   0.067   5.549  11.611  0.7076  0.2378 -3.3332
18644TIP3   OH277346   5.354   4.693  15.503  0.1339 -0.5392 -0.2584
18644TIP3    H177347   5.305   4.690  15.585 -0.7961 -0.4850 -0.8097
18644TIP3    H277348   5.393   4.781  15.502  1.1732 -0.9728  0.7057
18645TIP3   OH277349   1.720   0.709  11.249  0.1778 -0.0392  0.2373
18645TIP3    H177350   1.748   0.623  11.216  2.6608  0.0657  1.9087
18645TIP3    H277351   1.635   0.692  11.289 -0.4138 -1.2521 -1.4996
18646TIP3   OH277352   5.119   3.184   3.451 -0.1714 -0.4387 -0.2339
18646TIP3    H177353   5.128   3.121   3.379  0.8391 -1.1991  0.5470
18646TIP3    H277354   5.197   3.239   3.444  0.0284 -0.6425  0.4003
18647TIP3   OH277355   0.256   4.736  10.826  0.3152 -0.0222  0.1677
18647TIP3    H177356   0.298   4.655  10.798  0.0341 -0.0785 -0.0825
18647TIP3    H277357   0.253   4.729  10.922  1.6805  0.3716  0.2645
18648TIP3   OH277358   1.387   5.075  13.782 -0.2420 -0.1265 -0.4424
18648TIP3    H177359   1.387   5.157  13.832  0.3219  0.3138 -1.1452
18648TIP3    H277360   1.353   5.010  13.842 -1.4790  0.7892 -0.1364
18649TIP3   OH277361   1.568   3.924   1.065  0.3431 -0.3191 -0.7047
18649TIP3    H177362   1.605   4.011   1.052  0.9360 -0.7859 -2.3446
18649TIP3    H277363   1.603   3.894   1.148  1.1172  0.5217 -0.7238
18650TIP3   OH277364   1.484   3.178  11.064 -0.5630  0.8207  0.2532
18650TIP3    H177365   1.475   3.273  11.074 -2.6849  0.5056  1.6816
18650TIP3    H277366   1.569   3.158  11.102  1.0859  2.4566 -2.4427
18651TIP3   OH277367   3.377   5.673  13.081 -0.2628 -0.1793  0.2119
18651TIP3    H177368   3.394   5.610  13.151  1.8546  0.7082  0.5230
18651TIP3    H277369   3.442   5.742  13.094 -1.3355  1.1409 -1.2493
18652TIP3   OH277370   5.232   6.226  14.370 -0.1649 -0.0032 -0.1996
18652TIP3    H177371   5.233   6.280  14.449 -0.2511 -0.9183  0.4396
18652TIP3    H277372   5.318   6.183  14.369 -0.1023  0.1232 -0.6983
18653TIP3   OH277373   3.455   2.805   6.129 -0.8970 -0.0845  0.2028
18653TIP3    H177374   3.378   2.748   6.139 -0.8014 -0.7027 -2.1898
18653TIP3    H277375   3.494   2.807   6.216 -2.6402 -1.1820  1.0562
18654TIP3   OH277376   2.481   0.320  16.741 -0.6664  0.1945 -0.2201
18654TIP3    H177377   2.507   0.237  16.702  0.4175 -0.2104  1.2985
18654TIP3    H277378   2.527   0.386  16.689  1.7334 -0.4025  1.0413
18655TIP3   OH277379   2.674   5.164   0.254 -0.2466 -0.2535  0.1368
18655TIP3    H177380   2.714   5.126   0.332 -0.0958 -0.1117  0.1292
18655TIP3    H277381   2.580   5.164   0.272 -0.1854  0.1192  0.4734
18656TIP3   OH277382   6.214   5.028   1.814 -0.4107 -0.3971  0.2847
18656TIP3    H177383   6.217   4.977   1.733  0.2865  1.2883 -0.7881
18656TIP3    H277384   6.298   5.012   1.856  0.4586  1.0604 -0.8366
18657TIP3   OH277385   2.066   1.798   5.081  0.3093  0.2746 -0.0120
18657TIP3    H177386   1.977   1.812   5.115 -0.8012  2.5732 -3.6308
18657TIP3    H277387   2.062   1.711   5.041  0.3358 -0.4932  1.5856
18658TIP3   OH277388   5.909   5.514   4.545 -0.0277 -0.4465  0.0430
18658TIP3    H177389   5.836   5.488   4.489  0.4873 -1.3976 -0.1946
18658TIP3    H277390   5.986   5.511   4.488 -0.1021  2.8731 -0.3461
18659TIP3   OH277391   3.954   6.339  11.861  0.2193  0.3982 -0.0020
18659TIP3    H177392   3.860   6.343  11.842  0.6794  2.6043 -2.0667
18659TIP3    H277393   3.989   6.281  11.793  0.5848  0.9172 -0.2542
18660TIP3   OH277394   3.471   1.119  13.415 -0.1176  0.1462  0.2113
18660TIP3    H177395   3.418   1.046  13.447  0.9506  0.3344  2.5582
18660TIP3    H277396   3.497   1.165  13.495  1.7517  1.3107 -1.0483
18661TIP3   OH277397   2.398   3.571  16.884 -0.1836  0.6101  0.1375
18661TIP3    H177398   2.353   3.655  16.891 -1.2112  0.0452  0.3912
18661TIP3    H277399   2.448   3.564  16.965 -1.8514 -0.0269  1.1287
18662TIP3   OH277400   0.035   4.700  11.741 -0.0738 -0.0795 -0.0110
18662TIP3    H177401   0.026   4.615  11.783 -0.0631  0.5100  1.1902
18662TIP3    H277402   0.079   4.755  11.806 -0.6396  1.0229 -0.5414
18663TIP3   OH277403   1.863   4.248  12.419 -0.2909 -0.5382  0.5914
18663TIP3    H177404   1.892   4.339  12.428  0.9872 -0.6530 -2.0427
18663TIP3    H277405   1.944   4.197  12.423 -1.0124 -1.5760  2.1049
18664TIP3   OH277406   2.693   5.390   2.206  0.3927  0.3399  0.7218
18664TIP3    H177407   2.762   5.342   2.251 -1.5487 -2.1694  1.1981
18664TIP3    H277408   2.712   5.378   2.113  0.1314 -1.1087  0.8432
18665TIP3   OH277409   1.428   5.729   5.731 -0.1907  0.4640 -0.2466
18665TIP3    H177410   1.381   5.662   5.782  0.8780 -0.0213  0.1178
18665TIP3    H277411   1.517   5.696   5.726  0.4220  2.0325  0.2181
18666TIP3   OH277412   2.034   6.094   4.235  0.1221 -0.3322  0.6174
18666TIP3    H177413   1.947   6.055   4.234  0.9833 -2.4495  2.6839
18666TIP3    H277414   2.037   6.142   4.318  0.8971 -0.2689  0.5529
18667TIP3   OH277415   3.020   2.581   4.806  0.3558  0.5005 -0.6489
18667TIP3    H177416   3.012   2.526   4.883  2.1810  0.1473 -0.6815
18667TIP3    H277417   2.963   2.656   4.823  0.6240  0.3403  0.9661
18668TIP3   OH277418   2.294   5.109   2.458 -0.0082  0.4888  0.3595
18668TIP3    H177419   2.334   5.183   2.414  0.4453  0.4897  0.7646
18668TIP3    H277420   2.202   5.133   2.467 -0.0568  0.5846 -0.3701
18669TIP3   OH277421   3.448   5.919   3.459 -0.1152  0.2013 -0.2711
18669TIP3    H177422   3.468   5.974   3.534 -1.3789  1.0770 -0.5529
18669TIP3    H277423   3.457   5.829   3.491 -0.6971  0.5679  0.9361
18670TIP3   OH277424   6.216   5.572   1.326 -0.0788 -0.5436 -0.2571
18670TIP3    H177425   6.160   5.564   1.404 -0.6706 -1.0036 -0.7274
18670TIP3    H277426   6.158   5.604   1.258  0.1575 -1.3067 -0.8265
18671TIP3   OH277427   0.054   4.329  15.687  0.0143  0.5765  0.1966
18671TIP3    H177428   0.077   4.346  15.595  0.7980 -1.5717 -0.0307
18671TIP3    H277429   0.131   4.359  15.736 -0.6678  2.3369  0.2323
18672TIP3   OH277430   3.982   0.090  14.360 -0.1451 -0.1043  0.0027
18672TIP3    H177431   3.917   0.027  14.329 -0.2910  0.1264 -0.1602
18672TIP3    H277432   4.066   0.045  14.352 -0.3636 -0.6981  0.9650
18673TIP3   OH277433   3.086   5.688   2.939 -0.4483 -0.2122  0.7152
18673TIP3    H177434   3.078   5.594   2.920 -1.6652  0.1980 -1.0128
18673TIP3    H277435   3.110   5.727   2.855 -0.1116  1.0455  1.3837
18674TIP3   OH277436   4.802   2.251   4.462  0.3688 -0.4922 -0.4229
18674TIP3    H177437   4.868   2.234   4.395 -0.0985  0.0049 -1.0188
18674TIP3    H277438   4.758   2.167   4.474  0.2583 -0.5096 -0.9541
18675TIP3   OH277439   3.792   1.283   1.409 -0.3124  0.0851  0.1612
18675TIP3    H177440   3.742   1.279   1.491  1.6252  2.6986  1.5286
18675TIP3    H277441   3.771   1.369   1.372 -1.2599 -1.1007 -2.2174
18676TIP3   OH277442   6.118   3.721  11.395 -0.2030  0.2318  0.1683
18676TIP3    H177443   6.031   3.717  11.357 -0.3325 -0.8608  0.5559
18676TIP3    H277444   6.166   3.649  11.353  0.9831  1.7557 -1.1744
18677TIP3   OH277445   1.437   3.894   2.495 -0.1168 -0.1300  0.0818
18677TIP3    H177446   1.353   3.860   2.525  0.0012 -0.3641  0.1482
18677TIP3    H277447   1.426   3.989   2.496 -0.8686 -0.1814 -1.2985
18678TIP3   OH277448   1.877   2.343  11.121  0.0724 -0.4474  0.6529
18678TIP3    H177449   1.956   2.337  11.175  0.0891  0.0167  0.6813
18678TIP3    H277450   1.903   2.306  11.037 -0.2634 -2.1829  1.2942
18679TIP3   OH277451   1.992   0.347  11.828 -0.3083 -0.1664 -0.2691
18679TIP3    H177452   2.082   0.332  11.856 -0.4049  1.6878  1.1060
18679TIP3    H277453   1.999   0.368  11.735  0.7497  0.6834 -0.0027
18680TIP3   OH277454   6.730   5.824  15.926 -0.0418  0.6155 -0.3536
18680TIP3    H177455   6.816   5.782  15.920  0.3407  0.9763  2.0311
18680TIP3    H277456   6.731   5.889  15.856  1.3246  0.0748 -0.8556
18681TIP3   OH277457   2.213   4.517   4.063 -0.1927  0.4061  0.2614
18681TIP3    H177458   2.150   4.454   4.096  0.3622 -0.9032 -1.1238
18681TIP3    H277459   2.184   4.601   4.100 -1.2740 -0.5425  1.6434
18682TIP3   OH277460   0.263   3.594  15.933  0.4876  0.0950  0.1611
18682TIP3    H177461   0.295   3.505  15.919  2.1139  0.6659  0.0174
18682TIP3    H277462   0.232   3.596  16.023 -1.4019 -1.1351 -0.4424
18683TIP3   OH277463   2.861   3.668  12.708 -0.3758 -0.2903 -0.5446
18683TIP3    H177464   2.895   3.733  12.647 -0.3337  0.2029  0.0116
18683TIP3    H277465   2.766   3.681  12.706 -0.1330  2.1288  2.2129
18684TIP3   OH277466   5.578   4.771   4.091  0.4141 -0.2285 -0.0591
18684TIP3    H177467   5.484   4.751   4.091  0.5204 -0.7207  0.1050
18684TIP3    H277468   5.585   4.850   4.037  0.0556 -0.9040 -1.1009
18685TIP3   OH277469   1.756   1.000  13.981  0.3311  0.6485  0.6232
18685TIP3    H177470   1.758   1.072  13.918  0.6045 -0.7478 -1.0034
18685TIP3    H277471   1.664   0.974  13.986  0.4236  0.2169  0.1501
18686TIP3   OH277472   6.688   0.735   0.486  0.2171 -0.1138  0.4478
18686TIP3    H177473   6.652   0.823   0.496  0.9835  0.1612  0.8259
18686TIP3    H277474   6.745   0.723   0.562  0.8091 -0.5928 -0.0622
18687TIP3   OH277475   2.309   3.291   6.740  0.3313 -0.1566 -0.4009
18687TIP3    H177476   2.224   3.310   6.779  0.6298  0.6533 -0.1269
18687TIP3    H277477   2.290   3.234   6.666 -0.3613 -0.7448  0.2245
18688TIP3   OH277478   4.240   6.704  14.704 -0.3541  0.1564 -0.3283
18688TIP3    H177479   4.190   6.763  14.760  0.5839  0.0352  0.6472
18688TIP3    H277480   4.220   6.616  14.738 -0.9339 -0.0214 -1.1189
18689TIP3   OH277481   5.303   5.650   3.407 -0.0632 -0.3524  0.0138
18689TIP3    H177482   5.313   5.555   3.415 -1.1569 -0.4379  0.4390
18689TIP3    H277483   5.380   5.678   3.358  0.3637 -1.4353  0.0500
18690TIP3   OH277484   3.704   3.169   3.835 -0.5302 -0.4520 -0.0607
18690TIP3    H177485   3.734   3.226   3.764 -0.3168 -0.7782 -0.2295
18690TIP3    H277486   3.685   3.230   3.907 -1.4333 -0.0522 -0.6242
18691TIP3   OH277487   5.749   6.775  14.640  0.1166  0.3320  0.2540
18691TIP3    H177488   5.659   6.807  14.628 -0.2448 -1.1315 -1.1142
18691TIP3    H277489   5.748   6.731  14.725 -0.3742  0.6153  0.3956
18692TIP3   OH277490   4.551   5.902   4.794  0.0174 -0.1595  0.3553
18692TIP3    H177491   4.479   5.904   4.731  1.5271 -0.7682 -1.4192
18692TIP3    H277492   4.538   5.981   4.847 -1.6534 -0.0003 -0.2602
18693TIP3   OH277493   3.973   3.000   3.640 -0.1200  0.2132 -0.8362
18693TIP3    H177494   3.973   2.904   3.644 -0.2246  0.2056 -1.0026
18693TIP3    H277495   3.883   3.025   3.663  0.3837  0.3543  1.0663
18694TIP3   OH277496   0.689   2.646   0.641  0.3704 -0.6356 -0.2019
18694TIP3    H177497   0.707   2.613   0.729  0.2715 -1.5184 -0.5133
18694TIP3    H277498   0.594   2.657   0.639  0.4932  0.6743  0.2474
18695TIP3   OH277499   3.856   0.383  14.041 -0.5784  0.1214 -0.0796
18695TIP3    H177500   3.905   0.424  13.969  2.6159 -0.8256  1.4921
18695TIP3    H277501   3.909   0.400  14.119 -1.6969 -2.7660  1.3631
18696TIP3   OH277502   6.777   2.566  11.493 -0.1770 -0.0833  0.1322
18696TIP3    H177503   6.841   2.495  11.487 -0.3626 -0.1860 -0.7045
18696TIP3    H277504   6.768   2.598  11.403 -0.7239  0.4367  0.3710
18697TIP3   OH277505   4.270   2.300  11.956 -0.5820  0.5912 -0.4409
18697TIP3    H177506   4.361   2.291  11.928 -0.2281 -2.8413  1.4295
18697TIP3    H277507   4.219   2.270  11.881  0.0773 -1.7214 -0.0359
18698TIP3   OH277508   1.330   3.030  12.769 -0.3500  0.1477  0.4001
18698TIP3    H177509   1.313   2.937  12.753  1.4041  0.1365 -1.7108
18698TIP3    H277510   1.284   3.075  12.698  0.8756  0.6859 -0.0785
18699TIP3   OH277511   4.266   0.776  13.730 -0.3453  0.6460  0.2112
18699TIP3    H177512   4.205   0.830  13.780 -0.3743  2.0104 -1.2663
18699TIP3    H277513   4.344   0.831  13.720  1.2219 -1.1288  2.1959
18700TIP3   OH277514   2.029   4.150   4.851 -0.1219 -0.3976  0.0989
18700TIP3    H177515   2.083   4.229   4.853  0.9679 -1.1702  1.7568
18700TIP3    H277516   1.943   4.179   4.881  0.6636 -0.1236  2.1389
18701TIP3   OH277517   6.176   2.015   0.552  0.3414 -0.2192  0.8917
18701TIP3    H177518   6.206   2.056   0.471 -0.4192 -0.9806  0.2223
18701TIP3    H277519   6.188   1.921   0.537 -0.5082 -0.4038  1.3744
18702TIP3   OH277520   1.524   2.188  16.702  0.7231  0.4317 -0.1942
18702TIP3    H177521   1.461   2.243  16.654  2.1306 -0.0780 -2.7136
18702TIP3    H277522   1.527   2.227  16.789 -1.2006  1.9995 -0.7760
18703TIP3   OH277523   4.993   3.084   0.918  0.3560  0.7958 -0.7917
18703TIP3    H177524   5.039   3.086   0.835  1.9680  2.5849  0.1101
18703TIP3    H277525   5.037   3.015   0.968  0.2241  0.5990 -0.9451
18704TIP3   OH277526   0.173   3.756  16.538 -0.4483  0.7166  0.5575
18704TIP3    H177527   0.206   3.736  16.626 -0.3343 -1.4611  0.0686
18704TIP3    H277528   0.113   3.684  16.518 -2.5149  2.5742 -0.1291
18705TIP3   OH277529   6.180   5.807   0.146  0.4605  0.1442  0.3237
18705TIP3    H177530   6.133   5.867   0.087 -1.1775 -0.2215  1.2223
18705TIP3    H277531   6.254   5.859   0.179 -0.2004  1.2548  0.0957
18706TIP3   OH277532   4.341   0.868  15.304  0.2796 -0.3586  0.6938
18706TIP3    H177533   4.308   0.957  15.288 -0.6021 -0.9532 -0.9412
18706TIP3    H277534   4.435   0.879  15.318  0.3566  0.7259 -0.5702
18707TIP3   OH277535   1.544   3.235   1.761  0.2041  0.5787  0.2454
18707TIP3    H177536   1.484   3.194   1.699  1.8300 -1.0309 -0.3146
18707TIP3    H277537   1.501   3.226   1.846 -0.6959  0.1174 -0.2562
18708TIP3   OH277538   0.572   0.779  14.865  0.2074  0.3854 -0.3544
18708TIP3    H177539   0.615   0.694  14.874 -0.4110 -0.0162 -1.1489
18708TIP3    H277540   0.595   0.809  14.777 -0.0257  0.7824 -0.2824
18709TIP3   OH277541   0.844   1.727   3.935  0.1028  0.2083 -0.2926
18709TIP3    H177542   0.859   1.815   3.970  0.8250 -0.3729  0.8769
18709TIP3    H277543   0.762   1.699   3.975  0.0981  0.1743 -0.3263
18710TIP3   OH277544   6.505   2.347   1.723  0.6466 -0.3693 -0.6255
18710TIP3    H177545   6.457   2.362   1.805 -1.8766  0.6689 -2.2311
18710TIP3    H277546   6.477   2.261   1.694  1.0109 -0.4460 -0.7515
18711TIP3   OH277547   0.299   0.924  11.882 -0.1023 -0.8701  0.3725
18711TIP3    H177548   0.246   1.004  11.879  0.5641 -0.4822 -2.0248
18711TIP3    H277549   0.243   0.856  11.845  1.0980 -0.4048 -2.4217
18712TIP3   OH277550   2.955   2.033   3.698  0.0782  0.1648 -0.2652
18712TIP3    H177551   2.991   1.993   3.618 -1.9013 -0.0594 -1.0772
18712TIP3    H277552   3.026   2.028   3.761  0.8750 -1.9007 -1.2780
18713TIP3   OH277553   5.649   5.445   2.555  0.6906 -0.2344 -0.2703
18713TIP3    H177554   5.597   5.462   2.477 -0.2136  0.5781  0.5018
18713TIP3    H277555   5.608   5.367   2.594  0.7116 -0.2237 -0.2270
18714TIP3   OH277556   5.693   4.198  13.249 -0.3126  0.4457  0.1453
18714TIP3    H177557   5.643   4.146  13.186  0.2314  0.6362 -0.4391
18714TIP3    H277558   5.732   4.133  13.308 -0.4420  0.2488  0.0138
18715TIP3   OH277559   2.193   2.050   1.020 -0.1935 -0.1757  0.5011
18715TIP3    H177560   2.112   2.035   1.067 -1.0349 -1.2548 -1.2404
18715TIP3    H277561   2.256   1.990   1.060 -0.6372 -0.3618  0.9144
18716TIP3   OH277562   6.042   1.856  14.784  0.0970 -0.1192  0.3589
18716TIP3    H177563   5.987   1.874  14.707 -1.8970 -0.9642  1.5231
18716TIP3    H277564   6.131   1.877  14.756 -0.9467  2.3788 -1.2565
18717TIP3   OH277565   5.268   3.245  10.777 -0.3174  0.4645 -0.4783
18717TIP3    H177566   5.223   3.302  10.839 -0.4265 -0.7318  0.5650
18717TIP3    H277567   5.201   3.185  10.745  0.4264 -1.1500  0.8814
18718TIP3   OH277568   0.307   0.341  16.052 -0.2566  0.1194  0.7937
18718TIP3    H177569   0.294   0.363  16.144  1.1833 -1.3974  1.3943
18718TIP3    H277570   0.325   0.247  16.052  0.5270  0.2389 -0.9484
18719TIP3   OH277571   1.073   2.143   0.812 -0.4810 -0.2017  0.6167
18719TIP3    H177572   1.162   2.146   0.845 -0.7180  0.3757  1.2290
18719TIP3    H277573   1.027   2.083   0.871 -0.5384 -0.3646  0.4072
18720TIP3   OH277574   4.550   1.972  11.675  0.3655  0.7831 -0.5870
18720TIP3    H177575   4.578   1.887  11.709 -2.8244  0.2272  0.7949
18720TIP3    H277576   4.626   2.029  11.689  0.6541 -0.4696  3.6084
18721TIP3   OH277577   1.765   5.861   3.133 -0.2276  0.0275  0.3365
18721TIP3    H177578   1.687   5.809   3.153  1.6475 -2.8074  0.4780
18721TIP3    H277579   1.773   5.857   3.038  0.3249 -0.5538  0.4057
18722TIP3   OH277580   0.009   0.504  11.344 -0.2672  0.1891  0.1541
18722TIP3    H177581  -0.022   0.544  11.263 -2.0098 -1.2543  0.0592
18722TIP3    H277582   0.101   0.485  11.328 -0.5314  0.1609 -1.3985
18723TIP3   OH277583   0.383   3.843  15.844 -0.3875 -0.1774  0.2535
18723TIP3    H177584   0.343   3.761  15.872 -0.4586 -1.2054 -2.7229
18723TIP3    H277585   0.475   3.835  15.871 -0.4686 -1.0981  0.2780
18724TIP3   OH277586   3.252   3.784   5.868  0.5096 -0.3977  0.1905
18724TIP3    H177587   3.185   3.819   5.810  0.2694 -0.7952  0.2237
18724TIP3    H277588   3.229   3.817   5.955  2.0815  1.9372 -0.2677
18725TIP3   OH277589   4.722   6.094   2.782 -0.2931 -0.3247 -0.3552
18725TIP3    H177590   4.764   6.171   2.743 -0.8216  1.9486  3.3234
18725TIP3    H277591   4.656   6.068   2.718  1.4177  0.8589 -2.6929
18726TIP3   OH277592   5.669   3.028   0.220  0.0565 -0.1512 -0.0510
18726TIP3    H177593   5.758   3.059   0.202  0.9008 -0.6272  3.0611
18726TIP3    H277594   5.623   3.104   0.254 -0.7119  0.0537 -1.5142
18727TIP3   OH277595   6.098   2.634  10.223  0.1208 -0.5009  0.9694
18727TIP3    H177596   6.023   2.673  10.266  0.9614  0.1674  1.8513
18727TIP3    H277597   6.171   2.647  10.284  1.3089  0.3811 -0.5978
18728TIP3   OH277598   5.795   2.833   1.261  0.1670 -0.1551  0.1699
18728TIP3    H177599   5.777   2.754   1.312  0.3390 -0.3637 -0.0874
18728TIP3    H277600   5.822   2.800   1.175  1.4036  0.1469  0.4352
18729TIP3   OH277601   1.505   5.809   4.002 -0.1674  0.0482 -0.1075
18729TIP3    H177602   1.508   5.765   3.917 -0.1420 -0.5561  0.2042
18729TIP3    H277603   1.437   5.763   4.051 -0.6521  0.8295 -0.0340
18730TIP3   OH277604   4.164   6.534  14.967 -0.2213  0.1379 -0.3224
18730TIP3    H177605   4.252   6.518  14.999 -0.3212 -0.3153 -0.2625
18730TIP3    H277606   4.122   6.588  15.034 -0.2019 -0.2072 -0.0299
18731TIP3   OH277607   4.810   3.199   1.149  0.1627  0.2136 -0.3758
18731TIP3    H177608   4.811   3.107   1.177  1.2228  0.5608  0.7868
18731TIP3    H277609   4.869   3.201   1.073  1.1106  0.1433  0.3440
18732TIP3   OH277610   4.920   5.498   1.314 -0.6664 -0.2975 -0.3240
18732TIP3    H177611   4.912   5.582   1.268 -0.0090 -0.1228 -0.1164
18732TIP3    H277612   4.871   5.511   1.396  0.4151  0.2633  0.2382
18733TIP3   OH277613   4.040   2.688  16.420  0.6158 -0.0621 -0.0400
18733TIP3    H177614   4.001   2.750  16.358  1.9144  1.8415  0.9641
18733TIP3    H277615   4.126   2.726  16.440  1.6481 -2.4722  0.2397
18734TIP3   OH277616   0.324   5.112   3.343 -0.0132 -0.2986 -0.2555
18734TIP3    H177617   0.362   5.152   3.421 -0.4920 -0.8018  0.2417
18734TIP3    H277618   0.305   5.022   3.369  1.8738 -1.1514 -1.6198
18735TIP3   OH277619   0.686   0.322   0.406 -0.1328  0.1275  0.2308
18735TIP3    H177620   0.662   0.347   0.317  0.4420 -0.0238  0.0290
18735TIP3    H277621   0.667   0.399   0.459 -1.2007 -0.0479  0.0995
18736TIP3   OH277622   0.256   2.589   2.002 -0.4772 -0.1149  0.8850
18736TIP3    H177623   0.273   2.502   2.037 -0.8136 -0.3351  0.5022
18736TIP3    H277624   0.180   2.620   2.052 -1.3495 -0.6820 -0.0798
18737TIP3   OH277625   5.088   6.541  13.869  0.4890 -0.1167  0.5408
18737TIP3    H177626   5.102   6.635  13.874  2.2404 -0.3358  0.0495
18737TIP3    H277627   5.176   6.503  13.874 -0.0261 -1.6265 -1.3297
18738TIP3   OH277628   6.441   1.087   1.634  0.2040  0.8182 -0.2459
18738TIP3    H177629   6.522   1.042   1.657  0.0411 -0.2447 -1.6478
18738TIP3    H277630   6.378   1.059   1.699  0.1404 -0.9149 -1.0348
18739TIP3   OH277631   0.081   4.483  13.864  0.1391 -0.0070 -0.1160
18739TIP3    H177632   0.053   4.554  13.922 -0.4610 -0.4672  0.1652
18739TIP3    H277633   0.136   4.526  13.798  0.9447  0.4970  0.8701
18740TIP3   OH277634   6.059   6.542   3.795 -0.2416 -0.2843 -0.1337
18740TIP3    H177635   6.066   6.544   3.890 -1.5791 -0.3229 -0.0180
18740TIP3    H277636   6.130   6.598   3.764  0.5496 -0.7321  0.8692
18741TIP3   OH277637   5.011   2.501  15.115 -0.1120  0.6774  0.0225
18741TIP3    H177638   5.095   2.477  15.077  0.1214 -0.0602  0.9747
18741TIP3    H277639   4.960   2.537  15.042  1.9920  3.7248 -0.0366
18742TIP3   OH277640   1.094   6.604  11.389  0.1119  0.1437  0.2092
18742TIP3    H177641   1.072   6.601  11.482  1.0750 -1.8147  0.3916
18742TIP3    H277642   1.013   6.577  11.345  0.8220 -2.9747  0.6953
18743TIP3   OH277643   5.712   6.424   4.692 -0.6337  0.4736 -0.4948
18743TIP3    H177644   5.785   6.431   4.630 -0.4967 -0.4679 -0.4429
18743TIP3    H277645   5.754   6.424   4.778 -0.7731  1.0318 -0.4235
18744TIP3   OH277646   1.404   2.392  15.793 -0.8655  0.0142 -0.1465
18744TIP3    H177647   1.329   2.415  15.738  1.0467  0.9055 -2.4946
18744TIP3    H277648   1.439   2.477  15.821 -0.8221 -0.4014  1.0792
18745TIP3   OH277649   5.977   0.742  13.620 -0.2240 -0.6052  0.1772
18745TIP3    H177650   6.059   0.698  13.598  0.6289  1.3841 -0.7865
18745TIP3    H277651   5.971   0.814  13.557 -1.3196  0.9628  2.0157
18746TIP3   OH277652   4.505   4.140  11.929  1.2953  0.3954 -0.0415
18746TIP3    H177653   4.495   4.123  11.836 -0.0144 -2.7994  0.6454
18746TIP3    H277654   4.573   4.079  11.958  0.8747  0.5682  1.3405
18747TIP3   OH277655   0.820   2.754  16.218  0.9853  0.3433  0.3816
18747TIP3    H177656   0.851   2.820  16.280 -0.7656 -0.7289  2.4655
18747TIP3    H277657   0.886   2.684  16.223  1.3532  0.6797  0.2947
18748TIP3   OH277658   1.288   2.568   3.553 -0.3591 -0.1619 -0.5530
18748TIP3    H177659   1.323   2.496   3.501 -1.8670 -1.5825  0.3689
18748TIP3    H277660   1.316   2.550   3.642 -1.9683 -0.4296 -0.0793
18749TIP3   OH277661   2.423   4.971   0.157  0.1715 -0.0480  0.4832
18749TIP3    H177662   2.375   4.933   0.084  0.1655  0.4973  0.2002
18749TIP3    H277663   2.510   4.932   0.151 -0.4918 -1.7442  1.5475
18750TIP3   OH277664   0.176   5.278  15.814 -0.4074 -0.0631  0.2134
18750TIP3    H177665   0.230   5.317  15.744 -0.0051  0.7291  0.9589
18750TIP3    H277666   0.161   5.188  15.784  2.2250 -0.6388  0.4762
18751TIP3   OH277667   2.548   0.485   5.735 -0.7834  0.7479  0.4805
18751TIP3    H177668   2.632   0.530   5.725 -0.3733 -0.6690 -3.1603
18751TIP3    H277669   2.484   0.555   5.741  0.2054  1.8410 -1.4245
18752TIP3   OH277670   1.793   1.546  12.763  0.3636  0.3273 -0.5139
18752TIP3    H177671   1.740   1.551  12.843 -0.4671 -0.1225 -1.0295
18752TIP3    H277672   1.818   1.454  12.757 -0.2922  0.1898 -1.2235
18753TIP3   OH277673   4.718   4.895   2.626  0.4806 -0.2295  0.4376
18753TIP3    H177674   4.768   4.890   2.708 -0.0459  2.2389  0.9599
18753TIP3    H277675   4.728   4.809   2.586  0.4569 -1.6054  3.2818
18754TIP3   OH277676   2.452   4.094  16.605 -0.1584  0.5405 -0.1520
18754TIP3    H177677   2.451   4.137  16.690  0.7597 -0.7816  0.5488
18754TIP3    H277678   2.545   4.082  16.585 -0.3864 -0.8073 -0.4723
18755TIP3   OH277679   4.097   2.619  15.080 -0.4521 -0.1414 -0.0676
18755TIP3    H177680   4.042   2.696  15.072 -0.4844 -0.0977  0.5870
18755TIP3    H277681   4.138   2.610  14.994 -0.4053  0.6356 -0.1285
18756TIP3   OH277682   3.325   6.695   1.444  0.2742  0.3102 -0.1856
18756TIP3    H177683   3.274   6.616   1.425  0.3752  0.2097 -0.0422
18756TIP3    H277684   3.364   6.678   1.529  0.0834  0.6263 -0.0338
18757TIP3   OH277685   4.590   5.890   5.925 -0.1485 -0.7600  0.1316
18757TIP3    H177686   4.594   5.912   6.018  0.0568  0.8363 -0.2415
18757TIP3    H277687   4.668   5.836   5.910 -0.5151 -1.5524  1.0016
18758TIP3   OH277688   2.937   0.233   1.486  1.1241 -0.1390  0.3981
18758TIP3    H177689   2.984   0.293   1.543 -0.0284  2.7119 -1.5428
18758TIP3    H277690   2.949   0.269   1.398 -1.3300 -1.5901 -0.5765
18759TIP3   OH277691   6.695   1.871   1.514  0.7566  0.0764 -0.3255
18759TIP3    H177692   6.739   1.872   1.599 -2.3187  0.8824  1.3308
18759TIP3    H277693   6.688   1.778   1.491  0.6162 -0.2183  0.8726
18760TIP3   OH277694   1.042   2.944  15.019 -0.1464 -0.0967  0.0815
18760TIP3    H177695   0.963   2.894  14.997 -0.2133 -0.1889  0.5262
18760TIP3    H277696   1.114   2.891  14.983 -0.2288 -0.4417  0.4115
18761TIP3   OH277697   0.213   1.452  12.037 -0.6287  0.0497  0.5273
18761TIP3    H177698   0.131   1.410  12.010 -0.3517  0.2105 -0.6043
18761TIP3    H277699   0.210   1.539  11.996  0.1399  0.0306  0.4289
18762TIP3   OH277700   3.778   2.496   1.827  0.2348 -0.3720  0.3977
18762TIP3    H177701   3.808   2.443   1.753  2.5624  0.5357  0.6376
18762TIP3    H277702   3.822   2.580   1.816 -0.9293  0.4335  1.7477
18763TIP3   OH277703   6.511   2.575   1.995 -0.6898 -0.2043  0.2138
18763TIP3    H177704   6.477   2.660   2.024 -1.3790 -1.0889  2.0778
18763TIP3    H277705   6.434   2.518   1.992 -0.2017 -0.8196 -0.8331
18764TIP3   OH277706   5.927   6.412  16.226  0.4996 -0.1673  0.1851
18764TIP3    H177707   5.941   6.492  16.176  0.2826 -1.0815 -1.3796
18764TIP3    H277708   6.009   6.363  16.216 -0.3952 -1.3969 -1.2436
18765TIP3   OH277709   4.708   1.332   5.524 -0.1993 -0.2000 -0.2979
18765TIP3    H177710   4.632   1.275   5.528  0.6038 -1.1682  2.1301
18765TIP3    H277711   4.783   1.273   5.514  0.3329  0.6558 -1.4511
18766TIP3   OH277712   2.210   5.315   2.015  0.2276 -0.2495  0.0500
18766TIP3    H177713   2.243   5.344   1.930 -0.3751 -1.1663 -0.5121
18766TIP3    H277714   2.160   5.236   1.995 -0.7777  0.0957  1.1182
18767TIP3   OH277715   3.033   1.196   5.251  0.1093  0.3990 -0.0280
18767TIP3    H177716   3.039   1.128   5.183 -1.4764  1.3722 -1.1619
18767TIP3    H277717   3.039   1.147   5.333  1.4306 -0.8613 -0.8312
18768TIP3   OH277718   4.669   6.567  15.339 -0.0944  0.2080 -0.3494
18768TIP3    H177719   4.707   6.610  15.263  2.5674  0.1039  0.8380
18768TIP3    H277720   4.714   6.607  15.414 -1.9212 -0.3867  1.0929
18769TIP3   OH277721   0.393   4.288   5.895  0.0374 -0.2355  0.2778
18769TIP3    H177722   0.314   4.342   5.896 -0.2331 -0.6190  0.0713
18769TIP3    H277723   0.445   4.323   5.823  0.6992  0.9188  1.3021
18770TIP3   OH277724   2.549   0.877   5.315  0.4087  0.3222 -0.1621
18770TIP3    H177725   2.584   0.788   5.315  1.2171  0.6215 -2.2171
18770TIP3    H277726   2.608   0.927   5.258 -0.9754  1.7996 -0.3532
18771TIP3   OH277727   5.381   4.461  14.458 -0.0892 -0.4516  0.6982
18771TIP3    H177728   5.396   4.549  14.424 -0.9599 -0.3326  0.6004
18771TIP3    H277729   5.468   4.424  14.469  0.2526  0.0441 -0.2679
18772TIP3   OH277730   2.443   1.173  14.040 -0.1826  0.1012 -0.3280
18772TIP3    H177731   2.524   1.224  14.035 -0.2921  0.3066 -0.0146
18772TIP3    H277732   2.469   1.091  14.083  0.3936 -0.9282 -2.5293
18773TIP3   OH277733   3.661   3.877   5.626  0.3535  0.4106  0.0815
18773TIP3    H177734   3.599   3.806   5.610  1.5178 -0.7794  0.8166
18773TIP3    H277735   3.630   3.948   5.569 -0.8680 -0.6316 -0.5935
18774TIP3   OH277736   0.042   6.445  12.287  0.5018  0.3106 -0.0332
18774TIP3    H177737   0.102   6.506  12.332  0.6538 -0.3011  0.6008
18774TIP3    H277738   0.009   6.495  12.213  0.9546  1.0316  0.2407
18775TIP3   OH277739   3.481   0.182  11.226  0.1936  0.3221  0.8786
18775TIP3    H177740   3.499   0.213  11.314  0.5426  2.8603 -0.0488
18775TIP3    H277741   3.386   0.187  11.217  0.1949  0.4718  0.9579
18776TIP3   OH277742   6.596   4.624  15.017 -0.3680  0.1259 -0.4005
18776TIP3    H177743   6.518   4.569  15.011  0.6143 -1.1683 -1.7563
18776TIP3    H277744   6.565   4.712  15.001 -1.7130 -0.2510  0.1016
18777TIP3   OH277745   0.359   2.420   5.157 -0.0065 -1.0797 -1.0660
18777TIP3    H177746   0.277   2.382   5.126  0.0067 -0.3982 -1.9527
18777TIP3    H277747   0.348   2.514   5.144  0.7495 -0.9475 -0.7709
18778TIP3   OH277748   0.318   1.375   1.724 -0.0867 -0.0822 -0.3238
18778TIP3    H177749   0.409   1.399   1.739 -0.3652  0.9710 -0.2233
18778TIP3    H277750   0.283   1.446   1.670 -0.7965 -0.5663 -0.5076
18779TIP3   OH277751   0.970   2.364  15.137 -0.3533  0.3479 -0.0436
18779TIP3    H177752   0.946   2.275  15.111  0.6937  0.6866 -2.2554
18779TIP3    H277753   1.062   2.372  15.114 -0.2113  1.7479  0.9317
18780TIP3   OH277754   6.781   5.703   2.372  0.1956  0.3684 -0.1774
18780TIP3    H177755   6.756   5.772   2.311 -0.6063 -0.5314 -0.8949
18780TIP3    H277756   6.804   5.629   2.315 -0.2431 -0.3710  0.6026
18781TIP3   OH277757   5.138   1.128  11.638 -0.2086 -0.0345 -0.6205
18781TIP3    H177758   5.184   1.058  11.685 -1.0071 -0.0095  0.2092
18781TIP3    H277759   5.203   1.197  11.627  0.3490 -0.5678 -0.7075
18782TIP3   OH277760   2.412   4.871  13.160  0.3772 -0.2148 -0.6968
18782TIP3    H177761   2.426   4.797  13.218  1.6983  0.9543  0.5066
18782TIP3    H277762   2.346   4.924  13.205  2.3556  1.3646  0.4430
18783TIP3   OH277763   3.715   6.747   3.306 -0.3891 -0.2973 -0.2862
18783TIP3    H177764   3.641   6.784   3.257 -1.5069 -0.2471  1.4123
18783TIP3    H277765   3.715   6.654   3.283 -0.9853 -0.3011 -0.2780
18784TIP3   OH277766   2.980   0.340   5.642 -0.0649  0.2921 -0.7424
18784TIP3    H177767   3.071   0.350   5.670 -0.3864 -0.2529  0.5660
18784TIP3    H277768   2.932   0.407   5.691 -0.7085 -0.9757  0.4093
18785TIP3   OH277769   3.150   3.985   5.028  0.0637  0.6529  0.8710
18785TIP3    H177770   3.241   3.978   4.999  0.2718 -0.0102  1.6700
18785TIP3    H277771   3.144   4.072   5.067  0.5149  0.4661  1.3593
18786TIP3   OH277772   3.999   0.540   1.233  0.6740 -0.3937 -0.2190
18786TIP3    H177773   3.992   0.455   1.276  1.5017  0.7257  2.2080
18786TIP3    H277774   3.913   0.580   1.245  0.8603 -0.1398  0.2764
18787TIP3   OH277775   1.784   4.502   4.027  0.1917 -0.0441 -0.5404
18787TIP3    H177776   1.720   4.447   3.981 -0.0431  1.5656 -2.1797
18787TIP3    H277777   1.857   4.509   3.966  0.0558  1.7856 -0.5007
18788TIP3   OH277778   3.493   6.681  13.607 -0.1380 -0.4041 -0.1460
18788TIP3    H177779   3.541   6.683  13.690 -0.0023  0.5861 -0.2493
18788TIP3    H277780   3.560   6.669  13.540 -0.3380 -2.2188 -0.0489
18789TIP3   OH277781   0.110   4.738  17.104 -0.1356 -0.5363  0.0024
18789TIP3    H177782   0.176   4.747  17.172  0.4464 -0.5105 -0.5700
18789TIP3    H277783   0.078   4.648  17.113  0.1538 -0.6268  0.1139
18790TIP3   OH277784   3.829   5.494   1.542  0.1397  0.4291  0.7115
18790TIP3    H177785   3.873   5.565   1.588  0.9555  2.2812 -2.7652
18790TIP3    H277786   3.899   5.433   1.520  0.0001  0.3389  0.5192
18791TIP3   OH277787   3.957   0.406  15.794  0.5862 -0.1511 -0.1285
18791TIP3    H177788   3.927   0.402  15.703 -0.1866 -0.7999  0.1454
18791TIP3    H277789   3.879   0.432  15.843  0.9740  0.0878  0.3589
18792TIP3   OH277790   2.184   1.250   0.137  0.7977 -0.2362 -0.0258
18792TIP3    H177791   2.243   1.290   0.073  0.6743  2.0571  1.2504
18792TIP3    H277792   2.233   1.251   0.219 -0.9067  1.5253  1.0066
18793TIP3   OH277793   0.349   5.201  13.232  0.2755  0.8131 -0.6644
18793TIP3    H177794   0.436   5.226  13.200 -0.3203  0.7277 -2.4167
18793TIP3    H277795   0.344   5.240  13.319  2.3415  0.2120 -0.2411
18794TIP3   OH277796   5.603   1.294  14.611  0.2484 -0.5721  0.3948
18794TIP3    H177797   5.543   1.280  14.538 -0.5772  2.1671  0.4776
18794TIP3    H277798   5.560   1.254  14.686 -0.7638  0.0032  0.1287
18795TIP3   OH277799   0.015   5.299  13.632  0.7749  0.3704 -0.4686
18795TIP3    H177800  -0.020   5.331  13.715 -2.7574 -1.4581 -1.1162
18795TIP3    H277801  -0.004   5.369  13.570  0.7409  0.5404 -0.2653
18796TIP3   OH277802   0.624   6.642  15.889 -0.1199 -0.4509  0.7986
18796TIP3    H177803   0.659   6.728  15.863 -0.1379 -0.8668 -0.6438
18796TIP3    H277804   0.671   6.580  15.834 -1.2205 -1.2475  0.7488
18797TIP3   OH277805   2.300   2.494  11.771  0.0428 -0.0964 -0.4289
18797TIP3    H177806   2.352   2.424  11.730 -1.4139 -0.2060 -2.1120
18797TIP3    H277807   2.296   2.468  11.864  0.3836 -1.7089 -0.8381
18798TIP3   OH277808   1.578   4.480  16.354  0.1933  0.0305  0.2857
18798TIP3    H177809   1.660   4.454  16.398 -0.2639 -0.4133  0.8831
18798TIP3    H277810   1.516   4.493  16.426 -1.0209 -2.2856 -0.2895
18799TIP3   OH277811   3.628   6.413   0.054  0.2414  0.4846  0.2042
18799TIP3    H177812   3.676   6.475  -0.002  0.1385  2.1595  1.8923
18799TIP3    H277813   3.561   6.467   0.097 -0.2365 -0.9264  1.2641
18800TIP3   OH277814   0.449   0.119  15.913  0.2146  0.0090  0.4058
18800TIP3    H177815   0.543   0.130  15.895  0.1405 -0.7337 -0.5099
18800TIP3    H277816   0.418   0.065  15.841 -0.6974 -0.7052  1.3298
18801TIP3   OH277817   4.180   6.328  16.442  0.0022 -0.0286  0.7383
18801TIP3    H177818   4.141   6.414  16.457 -1.0906 -0.2338 -0.8225
18801TIP3    H277819   4.130   6.268  16.497 -2.0569 -0.3168 -1.3707
18802TIP3   OH277820   4.576   1.824  11.126 -0.3113  0.5043 -0.2147
18802TIP3    H177821   4.578   1.779  11.042  1.8766  0.3717 -0.1135
18802TIP3    H277822   4.572   1.753  11.191  0.6012  0.5298 -0.1297
18803TIP3   OH277823   0.346   2.977   5.566  0.2902 -0.1560  0.1230
18803TIP3    H177824   0.310   2.994   5.479 -0.6498 -2.0079  0.1410
18803TIP3    H277825   0.441   2.987   5.554  0.0796  0.9020 -0.7964
18804TIP3   OH277826   2.398   1.821  16.429 -0.2254  0.0738  0.3159
18804TIP3    H177827   2.354   1.781  16.504 -0.9972  0.0193 -0.1589
18804TIP3    H277828   2.483   1.778  16.425 -0.2610 -0.0671  1.0361
18805TIP3   OH277829   1.271   0.764   2.581  0.4792  0.0663  0.4466
18805TIP3    H177830   1.354   0.718   2.597  0.2089 -0.1895  1.0934
18805TIP3    H277831   1.286   0.853   2.611  0.3682 -0.1009  1.0006
18806TIP3   OH277832   6.507   1.508  11.224  0.0257 -0.2042 -0.2890
18806TIP3    H177833   6.582   1.545  11.271 -0.6776  0.2013  0.5130
18806TIP3    H277834   6.486   1.428  11.270  0.1704 -0.4952 -0.7196
18807TIP3   OH277835   2.559   5.085  10.801 -0.3035 -0.1359 -0.1273
18807TIP3    H177836   2.585   5.177  10.804  1.8562 -0.6106 -2.4120
18807TIP3    H277837   2.533   5.064  10.891 -0.7750  2.6714  0.4220
18808TIP3   OH277838   1.291   5.453   3.041  0.2544  0.5413  0.6613
18808TIP3    H177839   1.297   5.380   3.103 -0.1564  0.2668  0.3783
18808TIP3    H277840   1.336   5.422   2.963 -1.9984 -0.3352 -0.3345
18809TIP3   OH277841   1.122   1.556  13.464 -0.0160  0.2204  0.9819
18809TIP3    H177842   1.104   1.628  13.524  0.8119  0.7368  0.6292
18809TIP3    H277843   1.142   1.482  13.520 -2.1706 -0.0850  1.3544
18810TIP3   OH277844   5.477   0.879   0.169 -0.0133 -0.4453 -0.9998
18810TIP3    H177845   5.530   0.946   0.212 -0.1279 -0.3165 -1.0620
18810TIP3    H277846   5.399   0.870   0.223 -0.6392  0.4582 -1.7466
18811TIP3   OH277847   2.146   4.644  14.373 -0.3893 -1.1828 -0.6144
18811TIP3    H177848   2.079   4.705  14.404  2.4248  1.2810  0.8160
18811TIP3    H277849   2.127   4.633  14.280 -1.8922  0.6616 -0.5498
18812TIP3   OH277850   0.341   6.078  11.128  0.1292  0.0926 -1.0349
18812TIP3    H177851   0.261   6.066  11.077 -0.3582  0.7272 -0.4182
18812TIP3    H277852   0.341   6.171  11.151  0.3036 -0.2154  0.2111
18813TIP3   OH277853   1.543   1.177  11.909 -0.1516 -0.0223 -0.1881
18813TIP3    H177854   1.585   1.092  11.922 -0.6126 -0.1489  0.5020
18813TIP3    H277855   1.613   1.235  11.881 -0.0073 -0.8696 -1.6781
18814TIP3   OH277856   3.851   5.691  13.990  0.0068 -0.1725 -0.2485
18814TIP3    H177857   3.854   5.764  14.052 -0.6445 -0.0927 -0.3132
18814TIP3    H277858   3.779   5.636  14.020  0.2958 -0.6263 -0.3846
18815TIP3   OH277859   5.483   4.788  12.804  0.0494  0.3382  0.0504
18815TIP3    H177860   5.483   4.850  12.731  4.1499  0.1308 -0.2277
18815TIP3    H277861   5.468   4.703  12.763 -1.4173  0.6522 -0.0776
18816TIP3   OH277862   1.140   6.483   4.276  0.4275 -0.4006  1.1330
18816TIP3    H177863   1.075   6.413   4.274 -0.6419  0.5642  1.4364
18816TIP3    H277864   1.127   6.530   4.194  2.7876 -1.9860 -0.2228
18817TIP3   OH277865   0.096   2.217   1.435 -0.0167  0.2072  0.3176
18817TIP3    H177866   0.118   2.137   1.387 -0.6464  1.1187 -1.5161
18817TIP3    H277867   0.123   2.198   1.525 -0.3597 -2.1482 -0.0295
18818TIP3   OH277868   0.989   3.582   2.715  0.4008  0.4854  0.2972
18818TIP3    H177869   0.967   3.639   2.641  1.4955  0.2521 -0.2181
18818TIP3    H277870   0.955   3.496   2.690  1.8899  0.1162 -0.5166
18819TIP3   OH277871   2.621   1.255   3.375 -0.0144 -0.7661  0.7662
18819TIP3    H177872   2.637   1.212   3.291 -2.2520 -1.2614  0.5415
18819TIP3    H277873   2.629   1.185   3.440  0.8194 -0.5757  0.8646
18820TIP3   OH277874   0.345   4.599   3.963 -0.1474 -0.0442  0.2434
18820TIP3    H177875   0.367   4.606   4.056 -0.5895  1.2596  0.2590
18820TIP3    H277876   0.428   4.615   3.918 -0.1768  0.4889  0.3846
18821TIP3   OH277877   1.618   0.051   3.347  0.2643 -0.0837  0.1827
18821TIP3    H177878   1.646   0.065   3.257  0.8990 -0.9114  0.2439
18821TIP3    H277879   1.679  -0.014   3.382 -1.5116 -1.6914  0.3965
18822TIP3   OH277880   3.883   0.351  17.147 -0.0078 -0.1115 -0.0472
18822TIP3    H177881   3.870   0.337  17.241  1.3272  1.8891  0.4756
18822TIP3    H277882   3.918   0.440  17.141 -1.6507  0.4109 -2.5840
18823TIP3   OH277883   3.791   3.413   5.215 -0.0156 -0.5055  0.2408
18823TIP3    H177884   3.727   3.384   5.149 -0.9359 -1.2812  1.4402
18823TIP3    H277885   3.758   3.498   5.244 -0.2096 -0.6472  0.4474
18824TIP3   OH277886   4.371   2.930  14.058  0.0021  0.4704 -0.7219
18824TIP3    H177887   4.375   3.025  14.054 -3.4625  0.6821 -0.6722
18824TIP3    H277888   4.437   2.900  13.995 -0.3013  2.8891 -2.2318
18825TIP3   OH277889   2.032   3.268  15.778  0.2349  0.1342  0.0904
18825TIP3    H177890   2.022   3.356  15.814 -1.9352 -0.7057  1.6609
18825TIP3    H277891   2.037   3.211  15.855 -0.2871 -1.2888 -0.9042
18826TIP3   OH277892   0.665   5.671  13.534 -0.3509 -0.0147  0.1707
18826TIP3    H177893   0.748   5.660  13.486 -0.8231  0.9584 -0.9019
18826TIP3    H277894   0.686   5.731  13.605 -0.3369  1.0242 -0.6873
18827TIP3   OH277895   4.264   1.099  15.187 -0.2200  0.4182 -0.4842
18827TIP3    H177896   4.302   1.120  15.102 -0.2491 -0.4086 -0.7045
18827TIP3    H277897   4.181   1.146  15.188 -0.3527  0.1989 -1.0334
18828TIP3   OH277898   5.067   4.097   1.042 -0.5219  0.2141  0.4700
18828TIP3    H177899   4.992   4.103   1.101  1.7633  1.2200  3.4316
18828TIP3    H277900   5.109   4.183   1.048  1.1063 -0.4568 -0.7961
18829TIP3   OH277901   2.856   2.966   0.934 -0.7293  0.1582  0.5823
18829TIP3    H177902   2.884   2.893   0.879  0.3196  0.3365  0.8530
18829TIP3    H277903   2.937   3.013   0.953 -1.5149  1.9122 -0.3255
18830TIP3   OH277904   1.203   0.830  11.060 -0.3930  0.5064 -0.4614
18830TIP3    H177905   1.111   0.832  11.033 -0.9058 -2.7963  0.6922
18830TIP3    H277906   1.237   0.750  11.020  1.5285  0.8382  0.4700
18831TIP3   OH277907   2.625   5.418  16.682 -0.3644  0.0542  0.1069
18831TIP3    H177908   2.611   5.504  16.722 -0.6035  0.0866 -0.0423
18831TIP3    H277909   2.540   5.396  16.644 -0.3962 -0.3955  0.4281
18832TIP3   OH277910   0.495   5.754   5.669  0.2476  0.5977 -0.4503
18832TIP3    H177911   0.537   5.681   5.715 -1.0565  0.9037  1.2861
18832TIP3    H277912   0.412   5.766   5.715 -0.8390  1.2956 -2.5626
18833TIP3   OH277913   5.707   5.118  13.330  1.4355 -0.1976 -0.8001
18833TIP3    H177914   5.774   5.112  13.398  0.4863 -0.7524  0.0890
18833TIP3    H277915   5.755   5.102  13.249  2.4546 -0.1894 -0.2086
18834TIP3   OH277916   0.095   3.330  12.494 -0.4081 -0.3362 -0.1676
18834TIP3    H177917   0.011   3.373  12.507 -0.2789 -0.8476  2.5748
18834TIP3    H277918   0.127   3.365  12.411 -3.7417 -0.8492 -1.7868
18835TIP3   OH277919   1.719   4.446  10.413 -0.0963 -0.3411  0.0391
18835TIP3    H177920   1.687   4.535  10.429 -1.2701 -0.6239 -0.6392
18835TIP3    H277921   1.812   4.448  10.438  0.0193  1.2145 -0.4995
18836TIP3   OH277922   0.479   2.140  11.809 -0.8103  0.4378 -0.0882
18836TIP3    H177923   0.461   2.050  11.783 -0.4642  0.3744 -0.1001
18836TIP3    H277924   0.486   2.137  11.905  0.3272  0.2594 -0.1741
18837TIP3   OH277925   4.399   4.386   3.609  0.2557 -0.0849 -0.1919
18837TIP3    H177926   4.348   4.307   3.597  0.1726 -0.2400  1.0773
18837TIP3    H277927   4.393   4.404   3.703 -0.6028  2.0125 -0.6171
18838TIP3   OH277928   0.382   3.462   1.420  0.0295  0.7129 -0.5664
18838TIP3    H177929   0.389   3.558   1.423 -1.9422  0.8571  1.2577
18838TIP3    H277930   0.378   3.441   1.327 -5.0116  2.9436 -1.0183
18839TIP3   OH277931   5.113   2.641  14.525 -0.2256 -0.5919 -0.1501
18839TIP3    H177932   5.085   2.562  14.479 -0.3616  0.2232 -1.4870
18839TIP3    H277933   5.041   2.703  14.513  1.1238  0.7268 -1.6123
18840TIP3   OH277934   1.340   0.334  15.461  0.5665  0.5142  0.3929
18840TIP3    H177935   1.245   0.337  15.473  0.7898  2.3982  1.8805
18840TIP3    H277936   1.352   0.281  15.382 -1.7275  0.4213  0.0654
18841TIP3   OH277937   1.025   1.373  10.838  0.2665  0.0379  0.0790
18841TIP3    H177938   0.979   1.289  10.845  0.1523  0.0084 -0.9441
18841TIP3    H277939   1.015   1.398  10.746  2.4682 -0.0628 -0.2091
18842TIP3   OH277940   2.529   4.927  14.297  0.0224  0.4213  0.3566
18842TIP3    H177941   2.578   5.009  14.289  0.3966  0.1165 -0.6079
18842TIP3    H277942   2.449   4.951  14.344  0.8845  1.0148  1.5373
18843TIP3   OH277943   3.696   5.416  13.106  0.1921  0.3100  0.5758
18843TIP3    H177944   3.605   5.431  13.131  0.5045 -0.7356  2.3983
18843TIP3    H277945   3.742   5.497  13.127  0.0695  0.1214  1.5532
18844TIP3   OH277946   3.958   2.088   3.539  0.1081 -0.6778 -0.6306
18844TIP3    H177947   3.984   2.022   3.475 -2.3246  0.6434 -3.0527
18844TIP3    H277948   3.868   2.109   3.517  0.0790  1.7668  1.5760
18845TIP3   OH277949   4.790   6.612  11.187 -1.1558 -0.6250  0.4315
18845TIP3    H177950   4.863   6.655  11.230 -0.9941 -1.9253  1.4763
18845TIP3    H277951   4.830   6.566  11.113 -1.1591  0.0348  0.0171
18846TIP3   OH277952   3.424   2.252   1.113  0.0430 -0.2547  0.6857
18846TIP3    H177953   3.415   2.340   1.077  0.2581  0.8163  3.1408
18846TIP3    H277954   3.334   2.223   1.127 -0.0149  0.0080  0.8635
18847TIP3   OH277955   6.733   6.216   4.401  0.0760  0.8640  0.1901
18847TIP3    H177956   6.656   6.161   4.389 -0.7321  2.3672 -1.6660
18847TIP3    H277957   6.733   6.237   4.494 -1.4301  0.3875  0.3100
18848TIP3   OH277958   5.225   4.887  11.630 -0.6799 -0.3989  0.1001
18848TIP3    H177959   5.171   4.959  11.597  0.3086  0.7269  0.9127
18848TIP3    H277960   5.162   4.820  11.658 -1.6485  0.7608  0.7157
18849TIP3   OH277961   4.774   2.702   2.357  0.4982 -0.2744  0.0190
18849TIP3    H177962   4.863   2.669   2.351  0.4600 -0.2772 -0.5587
18849TIP3    H277963   4.776   2.785   2.309  0.5015  0.3671  1.1128
18850TIP3   OH277964   2.107   2.031  12.348  0.0277  0.6618 -0.2530
18850TIP3    H177965   2.141   1.947  12.380 -0.0315  0.4550 -0.7284
18850TIP3    H277966   2.119   2.091  12.421 -0.1819  0.1723  0.1850
18851TIP3   OH277967   2.373   5.891  12.390 -0.0442  0.3591  0.0015
18851TIP3    H177968   2.458   5.898  12.431 -0.3828 -0.3830  0.8521
18851TIP3    H277969   2.391   5.862  12.301  0.5063 -1.6110  0.7248
18852TIP3   OH277970   4.120   3.682  12.388 -0.2176  0.6052  0.2313
18852TIP3    H177971   4.116   3.706  12.481 -0.7027  0.0550  0.3545
18852TIP3    H277972   4.029   3.671  12.362 -0.1646  2.0577 -0.6553
18853TIP3   OH277973   4.580   4.890   4.744 -0.3514  0.3234 -0.8663
18853TIP3    H177974   4.597   4.950   4.817  1.0466  0.2647 -1.1241
18853TIP3    H277975   4.502   4.842   4.770 -1.4270  2.1732 -0.6029
18854TIP3   OH277976   0.079   1.156   3.362  0.8508  0.4822 -0.0188
18854TIP3    H177977  -0.012   1.183   3.371  0.1956 -0.8193 -2.5518
18854TIP3    H277978   0.082   1.068   3.399  0.5613 -0.3990 -2.0552
18855TIP3   OH277979   5.029   1.536   0.696  0.6435  0.1693  0.0892
18855TIP3    H177980   5.054   1.445   0.714  0.2767 -0.0863 -0.6831
18855TIP3    H277981   4.970   1.559   0.767  0.0388 -0.4885 -0.1971
18856TIP3   OH277982   0.934   6.114   5.857  0.5929 -0.3499 -0.1226
18856TIP3    H177983   0.980   6.141   5.777  0.3632 -0.1893 -0.2034
18856TIP3    H277984   0.999   6.064   5.907  1.6799  2.1636  1.0314
18857TIP3   OH277985   2.984   6.199   4.818  0.3094  0.0989  0.2891
18857TIP3    H177986   2.931   6.200   4.739  0.6980  2.5387  0.0395
18857TIP3    H277987   2.936   6.253   4.881 -0.9263 -3.2889  2.4083
18858TIP3   OH277988   5.036   0.306  13.165 -0.1041  0.7006  0.8595
18858TIP3    H177989   5.008   0.394  13.186 -1.9213  0.3879 -0.1733
18858TIP3    H277990   5.037   0.260  13.249  1.2936  1.7953  1.4705
18859TIP3   OH277991   5.453   6.554   2.172 -0.5007 -0.3438  0.6027
18859TIP3    H177992   5.506   6.503   2.111 -0.6903 -1.1429  1.1043
18859TIP3    H277993   5.493   6.642   2.169 -0.6991 -0.2845 -0.8832
18860TIP3   OH277994   0.628   2.268   0.162  0.3746  0.4885  0.0551
18860TIP3    H177995   0.572   2.209   0.213  0.5047 -1.8720 -2.3888
18860TIP3    H277996   0.712   2.265   0.207 -0.3291  0.8792  1.4400
18861TIP3   OH277997   3.053   1.926   1.043  0.5506 -0.5276 -0.0221
18861TIP3    H177998   3.062   1.831   1.048  1.3869 -0.3861  1.4141
18861TIP3    H277999   3.142   1.957   1.022  0.4181 -0.0325  0.1370
18862TIP3   OH278000   5.339   1.598  14.448 -0.6241  0.7119  0.0282
18862TIP3    H178001   5.314   1.627  14.360 -1.4999  2.0146  0.6818
18862TIP3    H278002   5.396   1.669  14.481 -0.7518  0.4961  0.7139
18863TIP3   OH278003   5.396   4.724   6.062 -0.0984 -0.2547  0.3764
18863TIP3    H178004   5.311   4.684   6.046  0.4640 -0.6323 -1.6873
18863TIP3    H278005   5.427   4.753   5.976  0.0447  3.5669  1.6073
18864TIP3   OH278006   5.853   2.885   4.183 -0.1810 -0.2823 -0.5484
18864TIP3    H178007   5.864   2.977   4.206 -0.2894  0.0272 -1.6924
18864TIP3    H278008   5.938   2.859   4.146 -0.9004  0.0613 -2.5258
18865TIP3   OH278009   0.813   0.356   3.283 -0.3039  0.4639 -0.2087
18865TIP3    H178010   0.796   0.264   3.264 -0.0280  0.5261 -0.7624
18865TIP3    H278011   0.788   0.402   3.203 -0.4013  0.8714  0.0510
18866TIP3   OH278012   3.193   5.433  11.204  0.0293 -0.2501 -0.1008
18866TIP3    H178013   3.133   5.382  11.150  2.0295 -0.5192 -2.1278
18866TIP3    H278014   3.188   5.522  11.170  0.3456 -0.1522  0.0983
18867TIP3   OH278015   0.236   0.396   5.923 -0.0314  0.0586 -0.0736
18867TIP3    H178016   0.222   0.304   5.901 -1.2417 -0.1574  1.5458
18867TIP3    H278017   0.261   0.437   5.840  3.0526 -2.1919 -0.3173
18868TIP3   OH278018   1.214   5.144  13.116 -0.3752  0.7851  0.2541
18868TIP3    H178019   1.143   5.084  13.142 -0.1448  1.0308  1.4746
18868TIP3    H278020   1.169   5.218  13.076 -0.6299 -0.5711 -2.0958
18869TIP3   OH278021   0.095   2.857  13.210 -0.1540  0.6799  0.2849
18869TIP3    H178022   0.157   2.785  13.220 -1.7452 -1.0782 -2.0794
18869TIP3    H278023   0.143   2.924  13.161  0.9529  0.7762  1.4732
18870TIP3   OH278024   4.299   2.343   4.017 -0.1536  0.1412  0.6403
18870TIP3    H178025   4.297   2.415   3.955 -0.5132 -1.1939 -0.9391
18870TIP3    H278026   4.391   2.334   4.041  0.2145 -0.3636 -0.9480
18871TIP3   OH278027   5.550   2.281  14.351 -0.0250  0.3692  0.0279
18871TIP3    H178028   5.528   2.196  14.390 -2.0131  1.7093  1.9539
18871TIP3    H278029   5.614   2.318  14.412  1.6007 -0.1485 -1.3434
18872TIP3   OH278030   5.592   5.738   5.288  0.0583 -0.2152 -0.2993
18872TIP3    H178031   5.590   5.792   5.210 -0.5315  0.6375  0.2952
18872TIP3    H278032   5.617   5.651   5.257  1.5902  0.5219 -1.1824
18873TIP3   OH278033   6.343   5.280  11.350 -0.3811 -0.5855 -0.3026
18873TIP3    H178034   6.297   5.313  11.272  1.2160  0.4613 -0.8451
18873TIP3    H278035   6.347   5.185  11.338 -2.6718 -0.7228 -0.0745
18874TIP3   OH278036   1.975   2.593   5.538  0.4210  0.3479  0.8766
18874TIP3    H178037   1.883   2.612   5.524  0.7144  2.3869  1.5201
18874TIP3    H278038   2.016   2.602   5.452  0.2254  0.6768  0.8189
18875TIP3   OH278039   0.187   2.954   5.884  0.6514 -0.6158 -0.4737
18875TIP3    H178040   0.276   2.919   5.878  1.0111  0.5270 -2.1660
18875TIP3    H278041   0.199   3.049   5.891 -0.4097 -0.5550  0.8321
18876TIP3   OH278042   1.010   1.460  15.736 -0.5323 -0.2062 -0.0384
18876TIP3    H178043   1.028   1.385  15.792 -1.9136 -1.3202 -1.0614
18876TIP3    H278044   0.931   1.436  15.687  0.9685  0.4548 -2.9265
18877TIP3   OH278045   4.026   2.706   1.832  0.6866 -0.4709  0.1263
18877TIP3    H178046   4.080   2.674   1.760  0.4160  0.3527 -0.4415
18877TIP3    H278047   4.087   2.718   1.905  0.8245 -2.1120  0.3059
18878TIP3   OH278048   6.779   4.113  11.100  0.5726  0.2040 -0.4290
18878TIP3    H178049   6.866   4.085  11.071  0.0849  0.1052 -1.8715
18878TIP3    H278050   6.720   4.080  11.032 -0.4702  1.1692 -0.0087
18879TIP3   OH278051   4.414   5.900  12.203  0.1152 -0.0905  0.3521
18879TIP3    H178052   4.361   5.960  12.255  0.7259  0.5582  0.2355
18879TIP3    H278053   4.353   5.833  12.174 -0.2798 -0.3510  1.7397
18880TIP3   OH278054   4.127   0.638   1.007 -0.6460 -0.6735 -0.3569
18880TIP3    H178055   4.222   0.646   1.006 -0.7107  0.4154 -2.8299
18880TIP3    H278056   4.104   0.626   1.099  1.6596  1.7888  0.6081
18881TIP3   OH278057   1.616   0.261   3.714 -0.3228 -0.1321 -0.1631
18881TIP3    H178058   1.603   0.235   3.805 -0.6379 -1.3807 -0.5567
18881TIP3    H278059   1.696   0.215   3.687  0.5938  1.3884 -0.0849
18882TIP3   OH278060   0.492   3.201   2.537 -0.1082  0.0375  0.7544
18882TIP3    H178061   0.583   3.174   2.525  0.6583  2.6951  0.4903
18882TIP3    H278062   0.457   3.210   2.448  0.2603  1.9679  0.7985
18883TIP3   OH278063   5.751   5.922  16.332 -0.0860 -0.5499  0.1718
18883TIP3    H178064   5.777   5.933  16.240  2.0410  2.0069  1.0248
18883TIP3    H278065   5.831   5.893  16.376 -0.8864 -0.9586  1.3551
18884TIP3   OH278066   2.811   0.455  15.479  0.1079 -0.0567 -0.4838
18884TIP3    H178067   2.732   0.409  15.449  0.1829  0.1014 -0.9268
18884TIP3    H278068   2.801   0.544  15.447  0.8536 -0.2435 -1.2444
18885TIP3   OH278069   3.725   1.215  17.017 -0.2610 -0.2101  0.4913
18885TIP3    H178070   3.746   1.286  17.078 -1.3723 -0.0969  0.7562
18885TIP3    H278071   3.641   1.182  17.047 -0.7047 -0.3180 -0.8373
18886TIP3   OH278072   6.095   5.088  15.224  0.1001  0.0876 -0.2773
18886TIP3    H178073   6.106   5.072  15.317  2.4585  2.4587 -0.0769
18886TIP3    H278074   6.070   5.181  15.218 -0.2456 -0.0910 -1.9921
18887TIP3   OH278075   2.229   2.317   3.178  0.2219  0.0722 -0.6734
18887TIP3    H178076   2.298   2.250   3.183 -1.2301 -1.3341  1.4899
18887TIP3    H278077   2.186   2.300   3.095  0.4282 -1.1528 -0.5509
18888TIP3   OH278078   0.182   3.640   1.802  0.6185  0.1450  0.2244
18888TIP3    H178079   0.119   3.646   1.730  0.7838 -1.0080 -0.0240
18888TIP3    H278080   0.230   3.559   1.786  0.0306 -0.6175  2.1162
18889TIP3   OH278081   4.359   1.274   0.905 -0.2956 -0.2195  0.2871
18889TIP3    H178082   4.355   1.310   0.994 -0.2327  0.5453 -0.0160
18889TIP3    H278083   4.449   1.290   0.877 -0.1954 -0.8582  0.2529
18890TIP3   OH278084   5.489   4.952   3.405  0.2237 -0.5489 -0.3184
18890TIP3    H178085   5.399   4.919   3.405  0.3569 -0.9560 -1.6850
18890TIP3    H278086   5.542   4.876   3.381  1.1759 -0.8679  2.6220
18891TIP3   OH278087   2.020   4.315  13.845  0.0451  0.2416 -0.0868
18891TIP3    H178088   1.961   4.369  13.793 -0.8608 -1.4730 -0.8566
18891TIP3    H278089   2.015   4.353  13.933 -2.5716 -0.1567 -0.0211
18892TIP3   OH278090   6.309   3.542   5.586  0.3210  0.0991 -0.7752
18892TIP3    H178091   6.313   3.613   5.522 -1.0884  0.2304 -0.7384
18892TIP3    H278092   6.290   3.464   5.533 -0.1085  0.0839 -0.5966
18893TIP3   OH278093   0.695   5.658   0.669 -0.3984  0.2414 -0.3781
18893TIP3    H178094   0.729   5.631   0.754  1.7777  1.4916 -0.8138
18893TIP3    H278095   0.768   5.643   0.609 -0.9384  2.0931 -1.5210
18894TIP3   OH278096   2.697   3.526   6.078  0.2743 -0.4040  0.2601
18894TIP3    H178097   2.639   3.516   6.154 -3.3247 -0.6911 -2.4060
18894TIP3    H278098   2.686   3.445   6.028 -0.0384  1.1311 -2.2516
18895TIP3   OH278099   6.425   0.029   1.110 -0.0716  0.1655 -0.4526
18895TIP3    H178100   6.467   0.109   1.141  0.7072 -0.1471 -0.7063
18895TIP3    H278101   6.373  -0.001   1.185 -0.5209  1.0149 -0.4270
18896TIP3   OH278102   0.492   3.040   3.292  0.1822  0.1220  0.9197
18896TIP3    H178103   0.530   3.021   3.206 -1.1332  1.0984  0.1132
18896TIP3    H278104   0.522   3.128   3.313 -0.8289  0.5108  0.7278
18897TIP3   OH278105   5.470   3.758   2.508 -0.1913  0.4289 -0.3226
18897TIP3    H178106   5.394   3.784   2.559 -0.9883 -0.6469 -0.9553
18897TIP3    H278107   5.435   3.735   2.422  0.3326 -3.5071  0.4295
18898TIP3   OH278108   5.498   1.566  16.827  0.3324  0.2766 -0.2716
18898TIP3    H178109   5.406   1.569  16.851  0.0263  0.1861 -1.4405
18898TIP3    H278110   5.541   1.525  16.903 -1.0987 -3.3536 -1.3117
18899TIP3   OH278111   5.003   2.495  12.279 -0.2498 -0.9886  0.3511
18899TIP3    H178112   4.996   2.574  12.332 -1.3004 -0.4490 -0.5680
18899TIP3    H278113   5.036   2.526  12.195 -0.6913 -1.5157 -0.0215
18900TIP3   OH278114   3.433   2.738   3.277 -0.0896  0.2240 -0.2795
18900TIP3    H178115   3.465   2.707   3.192  1.9595  1.3198  0.0571
18900TIP3    H278116   3.423   2.658   3.328 -0.0309 -0.3340 -1.1225
18901TIP3   OH278117   1.865   4.031  15.886  0.1404 -0.1179 -0.2914
18901TIP3    H178118   1.926   4.102  15.903 -0.2328 -0.0316  0.7713
18901TIP3    H278119   1.787   4.053  15.938 -0.1580 -1.0502 -0.3218
18902TIP3   OH278120   6.090   4.019  12.202  0.6713 -0.0871 -0.1241
18902TIP3    H178121   6.133   4.099  12.172  0.9358  0.3233  1.3311
18902TIP3    H278122   6.105   3.957  12.131  1.5780  0.7718 -0.7052
18903TIP3   OH278123   0.013   0.441   5.303 -0.2763  0.0670  0.3820
18903TIP3    H178124   0.033   0.520   5.352 -1.2321  0.6221 -0.1342
18903TIP3    H278125   0.098   0.413   5.269 -0.5365  3.4834 -3.4011
18904TIP3   OH278126   0.387   4.744   0.477  0.0533  0.2969  0.6530
18904TIP3    H178127   0.306   4.784   0.444 -0.6758  0.8246  2.9755
18904TIP3    H278128   0.444   4.818   0.497  0.5128 -0.0178  0.5184
18905TIP3   OH278129   0.332   2.963  11.502  0.4997  0.1457 -0.2060
18905TIP3    H178130   0.290   2.893  11.551 -0.0810  0.2477 -0.5467
18905TIP3    H278131   0.315   2.942  11.410  2.5387 -0.6441 -0.4214
18906TIP3   OH278132   3.218   2.634   6.165  0.2324  0.4918 -0.0968
18906TIP3    H178133   3.159   2.593   6.228  0.8581 -2.2963 -1.2255
18906TIP3    H278134   3.161   2.662   6.093  0.1014 -1.0296 -0.6047
18907TIP3   OH278135   5.648   5.064   3.638 -0.2016 -0.4855 -0.9848
18907TIP3    H178136   5.639   5.158   3.651  0.5906 -0.4323 -0.7709
18907TIP3    H278137   5.598   5.045   3.559 -2.1062 -0.2271  0.1413
18908TIP3   OH278138   6.494   2.174   3.759 -0.0059  0.1650 -0.2858
18908TIP3    H178139   6.492   2.269   3.767 -0.7618  0.3187 -2.0783
18908TIP3    H278140   6.570   2.156   3.704 -0.3891 -0.1863 -0.7108
18909TIP3   OH278141   4.921   5.394   2.000  0.2046 -0.3338 -0.2971
18909TIP3    H178142   4.849   5.344   1.962 -0.0248 -0.1100 -0.1655
18909TIP3    H278143   4.989   5.395   1.932 -0.4397  0.5865 -0.9484
18910TIP3   OH278144   1.127   3.636  14.237  0.4611  0.2112 -0.4890
18910TIP3    H178145   1.172   3.555  14.214  0.7059 -0.5479  2.4003
18910TIP3    H278146   1.034   3.617  14.225  0.5241 -0.4861  0.0868
18911TIP3   OH278147   4.391   0.864  14.955 -0.6491 -0.6358  0.2224
18911TIP3    H178148   4.377   0.957  14.972 -2.5513 -0.7963 -0.3052
18911TIP3    H278149   4.484   0.849  14.973  0.1358  1.7844 -1.6381
18912TIP3   OH278150   3.547   1.403  11.332  0.1418 -0.0884 -0.8325
18912TIP3    H178151   3.619   1.465  11.341  0.5527 -0.8443  1.2451
18912TIP3    H278152   3.484   1.429  11.399 -1.5336  0.5272 -2.5836
18913TIP3   OH278153   4.501   2.862  17.104 -0.2675 -0.0520 -0.0960
18913TIP3    H178154   4.450   2.914  17.042 -1.3880 -1.3753 -0.2966
18913TIP3    H278155   4.470   2.772  17.092  0.5028 -0.5314  1.3880
18914TIP3   OH278156   2.249   5.885   1.316 -0.4603  0.1728 -0.1655
18914TIP3    H178157   2.254   5.980   1.307 -0.3053  0.3915  2.0496
18914TIP3    H278158   2.157   5.868   1.336 -0.2460 -0.0257  0.6687
18915TIP3   OH278159   5.714   3.034   2.534  0.0273 -0.0613  0.6492
18915TIP3    H178160   5.758   3.110   2.573  0.3882  0.5382 -0.9040
18915TIP3    H278161   5.691   2.979   2.609 -0.6153  1.7760  1.8421
18916TIP3   OH278162   5.258   6.094  13.109  0.6007 -0.1286  0.4119
18916TIP3    H178163   5.241   6.051  13.025 -1.4094  1.9055 -0.2761
18916TIP3    H278164   5.241   6.027  13.175 -0.8129 -0.8721 -0.6944
18917TIP3   OH278165   1.890   5.938  11.841 -0.0972  0.1133 -0.1368
18917TIP3    H178166   1.840   5.984  11.773 -0.1004  0.3462  0.0222
18917TIP3    H278167   1.943   5.875  11.793  2.4408  2.5380 -0.6944
18918TIP3   OH278168   6.654   1.453  14.603 -0.2816  0.3031 -0.2907
18918TIP3    H178169   6.697   1.474  14.520  1.0411  0.3755  0.4077
18918TIP3    H278170   6.718   1.400  14.650 -1.8383 -1.5409 -0.1858
18919TIP3   OH278171   0.012   4.823  10.752  0.4111  0.2333  0.2375
18919TIP3    H178172  -0.038   4.749  10.786 -1.5964  1.6917  0.5294
18919TIP3    H278173   0.103   4.801  10.771 -0.3131 -1.1997  2.1661
18920TIP3   OH278174   1.836   4.699   2.179 -0.1934  0.3336  0.0602
18920TIP3    H178175   1.854   4.624   2.236  1.3675  0.4892 -0.2169
18920TIP3    H278176   1.828   4.773   2.238 -0.8988  0.0987  0.2646
18921TIP3   OH278177   3.071   1.450   1.868 -0.0716  0.2708 -0.1199
18921TIP3    H178178   3.160   1.415   1.874  0.9141  3.1290  3.5820
18921TIP3    H278179   3.078   1.526   1.811 -0.0269  0.8005  0.5867
18922TIP3   OH278180   0.506   4.997   4.178  0.2678 -0.5151 -0.0544
18922TIP3    H178181   0.425   5.043   4.202  0.7027  0.5747 -0.6531
18922TIP3    H278182   0.483   4.950   4.098  0.5109  0.6470 -0.8258
18923TIP3   OH278183   1.934   4.864   2.382 -0.1936  1.0261 -0.5049
18923TIP3    H178184   1.971   4.952   2.370  0.7817  0.8120  0.8274
18923TIP3    H278185   2.010   4.805   2.374 -0.4949  0.4657  0.7257
18924TIP3   OH278186   0.565   0.525   0.541 -0.6105  0.5499 -0.4024
18924TIP3    H178187   0.496   0.458   0.536 -0.6029  0.4419  0.8383
18924TIP3    H278188   0.530   0.597   0.489 -2.1249  0.8769  1.0025
18925TIP3   OH278189   3.529   3.442  16.927  0.1193 -0.5453  0.8993
18925TIP3    H178190   3.567   3.381  16.863 -1.3183 -1.7957  1.2102
18925TIP3    H278191   3.591   3.515  16.930  0.2863 -0.5206 -1.8157
18926TIP3   OH278192   3.148   2.149   4.221 -0.7272 -0.2775  0.8167
18926TIP3    H178193   3.107   2.092   4.286 -0.5615 -1.4705 -0.1147
18926TIP3    H278194   3.201   2.090   4.167 -0.2234  0.8123  0.1013
18927TIP3   OH278195   6.529   6.012  16.562 -0.1994 -0.2219  0.1536
18927TIP3    H178196   6.549   6.046  16.475  0.5344 -1.4562 -0.1719
18927TIP3    H278197   6.440   5.978  16.555  0.2049 -1.2101 -0.4168
18928TIP3   OH278198   4.635   4.246   2.890 -0.4929 -0.6225  0.5683
18928TIP3    H178199   4.632   4.313   2.821 -0.7216 -1.8955 -0.6947
18928TIP3    H278200   4.554   4.196   2.878 -1.6932  0.5848  3.2729
18929TIP3   OH278201   4.540   0.947  12.864  0.0952 -0.3948 -0.3162
18929TIP3    H178202   4.526   0.872  12.922  0.3305 -1.9666 -2.2410
18929TIP3    H278203   4.476   0.936  12.793  1.0399  0.4754 -1.3410
18930TIP3   OH278204   4.898   4.348  16.824 -0.1099  0.1733 -0.2676
18930TIP3    H178205   4.886   4.403  16.746 -0.4982 -0.2265 -0.4865
18930TIP3    H278206   4.861   4.263  16.799  0.4616 -0.1772  0.0871
18931TIP3   OH278207   4.574   3.918   3.172 -0.3270  0.3533  0.0082
18931TIP3    H178208   4.489   3.909   3.129 -0.9221 -0.3617  1.2945
18931TIP3    H278209   4.553   3.929   3.265  0.9929 -0.0824  0.3697
18932TIP3   OH278210   3.980   0.512   0.200 -0.7890 -0.0595 -0.0203
18932TIP3    H178211   4.017   0.590   0.158  1.1917 -0.5629  0.7116
18932TIP3    H278212   3.960   0.541   0.289 -2.6648  0.3405 -0.5528
18933TIP3   OH278213   1.919   5.462   0.609  0.1621 -0.3384 -0.1213
18933TIP3    H178214   1.933   5.536   0.550 -0.2371  1.7552  2.3309
18933TIP3    H278215   1.825   5.447   0.608  0.0174  0.4756  0.8811
18934TIP3   OH278216   0.647   1.795   1.553 -0.2312  0.1552 -0.5204
18934TIP3    H178217   0.628   1.861   1.620  0.8978  0.1616 -0.2039
18934TIP3    H278218   0.691   1.725   1.600  0.4093  0.0850 -1.2280
18935TIP3   OH278219   3.616   1.284   1.629  0.6547  0.2740  0.2142
18935TIP3    H178220   3.615   1.207   1.685  0.1712  0.9096  1.0909
18935TIP3    H278221   3.525   1.314   1.627  0.4492 -0.4019 -1.8479
18936TIP3   OH278222   5.251   0.185   2.152  0.5193  0.3355 -0.6511
18936TIP3    H178223   5.219   0.097   2.170 -0.6577  0.4627 -2.0368
18936TIP3    H278224   5.325   0.196   2.212  0.5496 -1.5101 -0.3087
18937TIP3   OH278225   1.386   3.281  15.954  0.5380 -0.0993 -0.3027
18937TIP3    H178226   1.378   3.370  15.920  0.7165  0.4155  0.9787
18937TIP3    H278227   1.479   3.260  15.946  0.9721  0.8797  1.9544
18938TIP3   OH278228   1.963   3.998   1.027 -0.2092 -0.3546 -0.1376
18938TIP3    H178229   1.895   3.938   0.998  2.2382 -2.9146 -0.7499
18938TIP3    H278230   1.975   3.977   1.120  0.7257 -0.8680 -0.3772
18939TIP3   OH278231   3.520   1.463  15.663 -0.5115  0.2965  0.3823
18939TIP3    H178232   3.477   1.384  15.694 -1.4622  0.1691 -1.1756
18939TIP3    H278233   3.462   1.535  15.689 -0.6851  0.2908  0.0261
18940TIP3   OH278234   4.509   5.198  12.059 -0.3029 -0.4600 -0.0466
18940TIP3    H178235   4.570   5.183  12.131 -0.9491 -0.9081  0.4230
18940TIP3    H278236   4.473   5.285  12.075 -2.3112 -1.5367  1.6122
18941TIP3   OH278237   2.278   3.479   2.880 -0.6535  0.3297 -1.0162
18941TIP3    H178238   2.315   3.491   2.792  1.3010 -0.3887 -0.3206
18941TIP3    H278239   2.346   3.511   2.939 -1.7332  0.2998  0.2667
18942TIP3   OH278240   3.655   6.429  15.583  0.4103 -0.0052  0.1480
18942TIP3    H178241   3.687   6.485  15.655 -1.2840  0.2097  0.7692
18942TIP3    H278242   3.562   6.450  15.577  0.1506 -1.4013 -0.8782
18943TIP3   OH278243   2.146   3.422   2.633 -0.2108 -0.4355  0.1977
18943TIP3    H178244   2.228   3.426   2.584 -0.2542  0.2281  0.1663
18943TIP3    H278245   2.145   3.335   2.673  0.2095 -0.6764 -0.3125
18944TIP3   OH278246   5.038   4.598  12.608  0.0651 -0.2138 -0.5533
18944TIP3    H178247   5.091   4.665  12.652 -0.0750 -0.8162  0.5461
18944TIP3    H278248   5.047   4.521  12.663  0.5807 -1.2366 -2.0593
18945TIP3   OH278249   2.362   0.638   2.738  0.1678  0.4354 -0.0014
18945TIP3    H178250   2.278   0.648   2.692  0.2652  0.9230 -0.0764
18945TIP3    H278251   2.427   0.629   2.668  0.1427 -0.2655  0.0598
18946TIP3   OH278252   1.496   6.152  15.567 -0.4021 -0.1577 -0.3788
18946TIP3    H178253   1.481   6.093  15.640  0.6798  0.9428  0.7657
18946TIP3    H278254   1.409   6.182  15.542 -0.7264  0.0893  1.0068
18947TIP3   OH278255   3.378   5.254   2.477 -0.2235 -0.5856  0.0373
18947TIP3    H178256   3.354   5.248   2.384 -1.9169  0.5999  0.3700
18947TIP3    H278257   3.461   5.206   2.483 -1.0126 -2.2711 -1.7345
18948TIP3   OH278258   4.123   3.885   3.518  0.5293  0.3348  0.0890
18948TIP3    H178259   4.121   3.794   3.548  1.0317  0.8890  1.8677
18948TIP3    H278260   4.035   3.901   3.484  0.2699 -0.6580  0.2824
18949TIP3   OH278261   5.206   5.937  15.137  0.2382 -0.4286  0.3478
18949TIP3    H178262   5.275   5.875  15.159 -1.3499 -2.2293  0.3180
18949TIP3    H278263   5.174   5.968  15.222  1.1710  0.5431  0.3594
18950TIP3   OH278264   0.307   3.030  17.147 -0.1321  0.2702 -0.2252
18950TIP3    H178265   0.255   3.025  17.067  1.2315  0.0282 -1.1114
18950TIP3    H278266   0.356   3.112  17.139  0.0617  0.2138  0.3467
18951TIP3   OH278267   2.211   1.962  13.356 -0.2358  0.3703  0.1199
18951TIP3    H178268   2.254   1.897  13.300 -0.9980 -0.4263  0.4434
18951TIP3    H278269   2.212   1.923  13.443 -0.1083  1.0893  0.4438
18952TIP3   OH278270   5.446   3.930   3.590  0.7544 -0.6140 -0.0460
18952TIP3    H178271   5.524   3.886   3.557  1.1754  0.7847 -0.9783
18952TIP3    H278272   5.480   4.005   3.640  0.0255  0.3445 -0.9535
18953TIP3   OH278273   1.894   6.122  13.445 -0.2870  0.5243 -0.5838
18953TIP3    H178274   1.850   6.120  13.360 -1.1264 -2.5088 -0.1189
18953TIP3    H278275   1.957   6.050  13.441 -0.0578  0.6026  1.2557
18954TIP3   OH278276   4.301   3.725  13.056 -0.1900  0.2918 -0.5647
18954TIP3    H178277   4.279   3.651  12.999 -0.7923 -1.1211  1.4360
18954TIP3    H278278   4.266   3.700  13.142 -1.0156  3.2117 -0.0011
18955TIP3   OH278279   5.496   2.566  11.602  0.3568  0.1094  0.1931
18955TIP3    H178280   5.585   2.555  11.633  0.2813  0.3372  0.4833
18955TIP3    H278281   5.492   2.512  11.523  1.1708  1.2415 -0.6364
18956TIP3   OH278282   2.318   2.448   3.774  0.0247 -0.6538 -0.5069
18956TIP3    H178283   2.315   2.543   3.785  2.8084 -0.0985 -3.8610
18956TIP3    H278284   2.265   2.431   3.696  0.0418 -1.8240 -0.2770
18957TIP3   OH278285   5.530   6.395   0.472 -0.1253  0.0454 -0.1086
18957TIP3    H178286   5.601   6.354   0.422  0.3645  0.8881 -0.1123
18957TIP3    H278287   5.450   6.360   0.432  0.2776 -0.3796 -0.5551
18958TIP3   OH278288   3.155   5.824   6.348  0.0959 -0.1048 -0.4392
18958TIP3    H178289   3.117   5.851   6.432  0.3847 -1.0748  0.0085
18958TIP3    H278290   3.179   5.732   6.361  0.8131 -0.0522 -1.3520
18959TIP3   OH278291   2.529   0.327  15.922 -0.0612  0.3726 -0.5313
18959TIP3    H178292   2.527   0.392  15.852 -0.9025 -0.7932 -1.6004
18959TIP3    H278293   2.478   0.367  15.993  0.4220  1.3690 -0.7403
18960TIP3   OH278294   6.366   2.095  16.817 -0.4676  0.2563 -0.5841
18960TIP3    H178295   6.352   2.131  16.904  0.6456  0.1529 -0.3426
18960TIP3    H278296   6.342   2.165  16.757 -1.2298  0.3311 -0.1958
18961TIP3   OH278297   5.577   6.128   1.938  0.1804 -0.4946 -0.1313
18961TIP3    H178298   5.516   6.116   1.866  0.2476 -2.2050  0.0810
18961TIP3    H278299   5.569   6.048   1.990 -0.2053  0.9156  2.0136
18962TIP3   OH278300   2.973   1.466  12.979 -0.0937  0.0620 -0.2064
18962TIP3    H178301   2.936   1.431  13.061 -0.3355 -0.5457 -0.5703
18962TIP3    H278302   3.046   1.406  12.959  0.5504  0.7543  0.0572
18963TIP3   OH278303   1.237   6.203  16.411 -0.4627 -0.1046 -0.2555
18963TIP3    H178304   1.289   6.235  16.484  0.2144 -2.3992  0.3064
18963TIP3    H278305   1.182   6.277  16.386 -1.0035  0.5817  2.8362
18964TIP3   OH278306   6.712   2.969   5.358  0.4168 -0.5820 -0.0577
18964TIP3    H178307   6.739   2.938   5.444 -1.3363 -2.2170 -0.0688
18964TIP3    H278308   6.716   2.892   5.302  0.0453  0.1269 -1.0847
18965TIP3   OH278309   3.068   3.212  14.620 -0.4887  0.4096  0.0654
18965TIP3    H178310   3.085   3.301  14.587 -1.2902  0.4820 -0.1625
18965TIP3    H278311   3.154   3.179  14.645  0.0300  0.6689 -1.3303
18966TIP3   OH278312   3.671   4.769  10.593 -0.1469 -0.1258 -0.4673
18966TIP3    H178313   3.660   4.681  10.629 -0.6660 -0.1737 -0.7375
18966TIP3    H278314   3.582   4.798  10.573  0.1574 -0.2704 -2.1038
18967TIP3   OH278315   5.301   1.102   0.453 -0.4147 -0.2797  0.3662
18967TIP3    H178316   5.389   1.132   0.429 -1.1248 -0.4362 -2.5011
18967TIP3    H278317   5.249   1.182   0.457 -0.5282 -0.3575  0.4297
18968TIP3   OH278318   5.630   5.175   0.040 -0.0668  0.1711 -0.0921
18968TIP3    H178319   5.601   5.139   0.124 -0.1817 -1.3398 -0.7779
18968TIP3    H278320   5.581   5.127  -0.026  0.1680  1.2191 -1.0511
18969TIP3   OH278321   2.191   0.512   4.825 -0.3670  0.1911 -0.5868
18969TIP3    H178322   2.278   0.491   4.790  0.1068  0.4842  0.3701
18969TIP3    H278323   2.210   0.563   4.904 -1.3864 -1.2184  0.5796
18970TIP3   OH278324   2.404   1.658   2.938  0.0321 -0.0465 -0.4029
18970TIP3    H178325   2.363   1.719   2.999  0.7114 -0.0675  0.0755
18970TIP3    H278326   2.332   1.623   2.886 -0.7409 -1.2658  1.4654
18971TIP3   OH278327   0.608   1.430  15.430 -0.4556  0.1613 -0.1923
18971TIP3    H178328   0.536   1.393  15.380  0.6344 -1.1209 -0.8250
18971TIP3    H278329   0.664   1.472  15.365  1.5010 -2.3999 -0.2293
18972TIP3   OH278330   3.927   2.055   1.373 -0.1437 -0.3515  1.4084
18972TIP3    H178331   4.011   2.031   1.414  0.2114 -0.6827  0.4971
18972TIP3    H278332   3.943   2.047   1.279 -1.1025 -0.0699  1.2163
18973TIP3   OH278333   6.684   5.907  13.184 -0.7324 -0.5202 -0.2635
18973TIP3    H178334   6.713   5.970  13.250 -0.2616 -0.7204 -0.2768
18973TIP3    H278335   6.753   5.908  13.117  0.7204 -3.1218  1.1100
18974TIP3   OH278336   2.919   6.722   4.527  0.0351 -0.4620 -0.2381
18974TIP3    H178337   2.877   6.744   4.443  1.3035 -0.1054 -0.7835
18974TIP3    H278338   2.983   6.655   4.505  1.1771  0.4529  0.2530
18975TIP3   OH278339   2.651   4.715   6.197  0.1935 -0.1166 -0.5486
18975TIP3    H178340   2.560   4.740   6.179  0.4444  1.6754  0.6168
18975TIP3    H278341   2.643   4.642   6.258 -0.4526  1.1626  0.9310
18976TIP3   OH278342   5.424   4.178  16.424  0.5072 -0.2746 -0.5770
18976TIP3    H178343   5.413   4.225  16.506 -1.7128 -5.0270  2.0364
18976TIP3    H278344   5.364   4.222  16.363 -0.5336  1.0720  1.3556
18977TIP3   OH278345   2.792   5.362  10.355  0.0912 -0.3962 -0.1570
18977TIP3    H178346   2.744   5.436  10.317 -0.5301 -1.6458 -1.8743
18977TIP3    H278347   2.764   5.287  10.303  0.4137 -1.9112  1.8286
18978TIP3   OH278348   4.408   1.101   3.223 -0.2570 -0.0405  0.1685
18978TIP3    H178349   4.492   1.068   3.254 -0.0297 -0.3447 -0.7590
18978TIP3    H278350   4.402   1.190   3.259  0.2873 -0.1655  0.5570
18979TIP3   OH278351   0.119   1.321   5.084  0.3253  0.2212  0.2415
18979TIP3    H178352   0.094   1.276   5.003 -0.3331  0.4113  0.3341
18979TIP3    H278353   0.039   1.367   5.111  0.5317  0.1262  1.0187
18980TIP3   OH278354   5.281   6.333  13.566  0.1445  0.1691  0.6169
18980TIP3    H178355   5.280   6.314  13.472  2.3927  1.6054  0.2578
18980TIP3    H278356   5.190   6.352  13.588 -0.3408  0.2677 -1.3821
18981TIP3   OH278357   6.238   3.223  14.449 -0.0647 -0.3512  0.1382
18981TIP3    H178358   6.257   3.130  14.462  1.8483 -0.0124 -0.1353
18981TIP3    H278359   6.210   3.229  14.358 -0.8894 -0.7659  0.3626
18982TIP3   OH278360   1.044   2.451  11.146  0.4473  0.4362 -0.2775
18982TIP3    H178361   0.974   2.455  11.080  0.3775 -0.1674 -0.2444
18982TIP3    H278362   1.115   2.405  11.103  0.9544  1.3397 -0.4196
18983TIP3   OH278363   2.745   1.421  11.421  0.3968  0.0411  0.4970
18983TIP3    H178364   2.672   1.387  11.473  0.8884  1.1708  1.9926
18983TIP3    H278365   2.809   1.450  11.487  0.8237  1.9765 -0.7196
18984TIP3   OH278366   3.389   0.735   2.536 -0.2911 -0.2190 -0.1949
18984TIP3    H178367   3.401   0.646   2.502 -0.2721 -0.0769 -0.5701
18984TIP3    H278368   3.294   0.745   2.543 -0.4503  0.8350 -3.1954
18985TIP3   OH278369   5.681   3.649   1.816 -1.0113  0.0982  0.0131
18985TIP3    H178370   5.641   3.596   1.885 -0.4470 -0.2361  0.0888
18985TIP3    H278371   5.775   3.627   1.820 -0.4435  2.6177  1.3735
18986TIP3   OH278372   1.431   6.407  15.008 -1.1852  0.7745  0.3133
18986TIP3    H178373   1.440   6.499  14.982 -1.1795  0.9226  0.8371
18986TIP3    H278374   1.502   6.393  15.071 -1.2079  0.4213  0.2587
18987TIP3   OH278375   1.198   1.369   1.486 -0.2999 -0.0805  0.4229
18987TIP3    H178376   1.140   1.392   1.414  0.8956  0.6486 -0.3212
18987TIP3    H278377   1.236   1.453   1.514  0.4999 -0.5658  0.8003
18988TIP3   OH278378   0.789   5.588   0.915  0.5312  0.5650  0.0547
18988TIP3    H178379   0.842   5.509   0.913 -0.6605 -0.2670  0.8625
18988TIP3    H278380   0.813   5.631   0.997  0.8818  0.8429 -0.1909
18989TIP3   OH278381   3.317   4.797  14.274  0.0814  0.2647  0.2678
18989TIP3    H178382   3.276   4.874  14.236 -0.6425  0.0466  0.5930
18989TIP3    H278383   3.261   4.724  14.246  0.7474 -0.1364 -0.0176
18990TIP3   OH278384   2.246   6.658  16.563 -0.7097 -0.5441 -0.3649
18990TIP3    H178385   2.317   6.647  16.499 -0.8553  0.2390 -0.6618
18990TIP3    H278386   2.192   6.580  16.551 -1.0488 -0.1272 -1.5981
18991TIP3   OH278387   5.183   6.648  13.357 -0.1321  0.0049  0.1420
18991TIP3    H178388   5.271   6.632  13.390 -0.5727  0.2627  1.5051
18991TIP3    H278389   5.130   6.659  13.436 -1.3113  0.2241 -0.6669
18992TIP3   OH278390   1.869   6.220  14.918  0.3691  0.0278  0.2502
18992TIP3    H178391   1.841   6.132  14.945  0.0614 -0.5636 -1.8295
18992TIP3    H278392   1.964   6.213  14.907  0.5946  0.4721  1.8539
18993TIP3   OH278393   2.509   1.449   2.460 -0.6012 -0.0478 -0.1146
18993TIP3    H178394   2.518   1.377   2.397  2.0210  0.0185  0.1217
18993TIP3    H278395   2.446   1.417   2.524  2.1623 -3.1376  1.2333
18994TIP3   OH278396   4.895   4.115  16.244 -0.0218  0.7604 -0.5713
18994TIP3    H178397   4.830   4.083  16.181 -0.5413  0.3592  0.1577
18994TIP3    H278398   4.975   4.068  16.221 -0.3806  0.1027 -0.5168
18995TIP3   OH278399   2.675   3.695   2.898  0.2828  0.2357  0.2586
18995TIP3    H178400   2.717   3.651   2.824 -0.3463  0.7916 -0.4420
18995TIP3    H278401   2.604   3.746   2.858 -0.7232 -0.2621  1.3549
18996TIP3   OH278402   3.115   2.698   0.970 -0.4840  0.1564 -0.6760
18996TIP3    H178403   3.020   2.694   0.955 -0.5367 -0.0519 -0.3060
18996TIP3    H278404   3.125   2.762   1.040 -0.4362 -0.5209 -0.0548
18997TIP3   OH278405   1.512   1.959  11.869 -0.3558  0.4210  0.5539
18997TIP3    H178406   1.567   1.895  11.824 -1.9493  0.0589 -0.9109
18997TIP3    H278407   1.567   2.037  11.875  1.0271 -0.5597  0.9235
18998TIP3   OH278408   5.001   5.200  14.655  0.2999  0.0745 -0.2028
18998TIP3    H178409   5.018   5.294  14.650 -0.3271  0.0982 -2.0404
18998TIP3    H278410   5.085   5.160  14.633 -0.1437  0.2154 -2.2554
18999TIP3   OH278411   3.095   3.438   5.249 -0.2229 -0.0338  0.0794
18999TIP3    H178412   3.080   3.405   5.338 -1.4889 -1.7611 -0.7502
18999TIP3    H278413   3.132   3.363   5.202 -1.2462  0.3156 -1.3121
19000TIP3   OH278414   2.086   2.092  15.240 -0.0004 -0.2707 -0.0402
19000TIP3    H178415   2.071   2.001  15.212  1.5443 -1.0403  1.5125
19000TIP3    H278416   1.998   2.130  15.246 -0.9363 -2.6095  2.2500
19001TIP3   OH278417   6.022   3.583   5.983  0.2825 -0.7591 -0.4544
19001TIP3    H178418   6.106   3.588   5.937  1.0934  0.3629  1.1102
19001TIP3    H278419   6.046   3.575   6.075 -1.3392  0.3399  0.0800
19002TIP3   OH278420   4.525   1.385  12.968 -0.1240  0.5295 -0.2556
19002TIP3    H178421   4.591   1.347  12.911 -0.9369 -1.2224 -0.0570
19002TIP3    H278422   4.568   1.461  13.008  1.5666 -0.2519 -0.5587
19003TIP3   OH278423   1.757   3.967  13.654 -0.3166 -0.4473 -0.3396
19003TIP3    H178424   1.687   3.945  13.593  0.2925 -2.2363 -0.4003
19003TIP3    H278425   1.837   3.949  13.605  0.1774 -1.0873  0.7073
19004TIP3   OH278426   2.747   4.349  17.229  0.4330  0.6800  0.2723
19004TIP3    H178427   2.726   4.328  17.138  1.6615 -1.6941  0.4797
19004TIP3    H278428   2.761   4.444  17.230  2.7260  0.4569 -2.5312
19005TIP3   OH278429   2.266   0.048   3.190 -0.2299 -0.3636  0.7532
19005TIP3    H178430   2.259   0.144   3.193 -1.8731 -0.4642  1.0495
19005TIP3    H278431   2.309   0.024   3.271  1.0710  0.1863  0.2350
19006TIP3   OH278432   2.233   1.844   3.072  0.2765  0.2213  0.1168
19006TIP3    H178433   2.177   1.916   3.042  2.0723  1.3559 -0.5602
19006TIP3    H278434   2.171   1.774   3.095 -1.4258  1.4941 -0.4716
19007TIP3   OH278435   6.457   5.683   3.856 -0.0078  0.3388 -0.9659
19007TIP3    H178436   6.379   5.638   3.824  0.2010 -0.2168 -0.7138
19007TIP3    H278437   6.530   5.628   3.827  0.1215 -1.1023  1.8504
19008TIP3   OH278438   2.625   6.236  16.016  0.6106  0.1888  0.1478
19008TIP3    H178439   2.583   6.266  16.096  0.8139  0.8651  0.0011
19008TIP3    H278440   2.552   6.224  15.954  0.3341 -1.3135  0.7237
19009TIP3   OH278441   3.364   6.029  11.448  0.6298 -0.0028 -0.1464
19009TIP3    H178442   3.307   6.090  11.400  0.3125  0.4116  0.7501
19009TIP3    H278443   3.324   6.021  11.534  1.8729  0.2273  0.4684
19010TIP3   OH278444   0.165   3.663   2.874 -0.0794 -0.0326  0.1191
19010TIP3    H178445   0.084   3.664   2.822  0.7623 -3.0870 -1.3689
19010TIP3    H278446   0.136   3.637   2.962 -0.6368 -2.2134 -0.6686
19011TIP3   OH278447   5.175   0.159   1.745 -0.9346 -0.6507 -0.2000
19011TIP3    H178448   5.098   0.163   1.688 -0.0343 -1.2643 -1.4899
19011TIP3    H278449   5.242   0.210   1.699  0.0454 -1.8058 -0.0855
19012TIP3   OH278450   1.328   3.589  12.252 -0.5418  0.3362 -0.0854
19012TIP3    H178451   1.274   3.588  12.330 -0.5233 -2.3658 -0.0824
19012TIP3    H278452   1.266   3.597  12.179 -0.6953  0.6598  0.0776
19013TIP3   OH278453   0.514   3.632  14.454  0.1936  0.1489 -0.1371
19013TIP3    H178454   0.549   3.544  14.460  2.8563  0.9922 -2.2442
19013TIP3    H278455   0.461   3.632  14.374  0.8552  0.6278 -0.5907
19014TIP3   OH278456   1.319   0.435   4.527  0.3506 -0.0614  0.2403
19014TIP3    H178457   1.312   0.433   4.623  1.9854 -0.7091  0.3625
19014TIP3    H278458   1.231   0.416   4.496 -0.3931  0.9833  1.6133
19015TIP3   OH278459   1.334   3.752  10.946 -0.4017 -0.0528  0.3947
19015TIP3    H178460   1.300   3.673  10.904  0.9051  1.6523 -4.1736
19015TIP3    H278461   1.430   3.744  10.939 -0.1495  0.6901  2.4436
19016TIP3   OH278462   6.008   5.973   4.821 -0.3979 -0.3924  0.6110
19016TIP3    H178463   5.932   6.014   4.779  0.1932 -0.1083 -0.1902
19016TIP3    H278464   6.031   5.901   4.762 -0.4094 -0.8502  1.1619
19017TIP3   OH278465   5.669   2.975  12.431 -0.3686 -0.4462  0.8196
19017TIP3    H178466   5.707   3.017  12.508 -0.7618 -0.7535  1.1782
19017TIP3    H278467   5.614   3.044  12.391  0.5587  0.0032  0.2910
19018TIP3   OH278468   3.325   2.241  11.821 -0.4110  0.4290 -0.0188
19018TIP3    H178469   3.326   2.205  11.910  0.7417 -1.7682 -0.8754
19018TIP3    H278470   3.399   2.198  11.777 -0.9187  1.5419 -2.0090
19019TIP3   OH278471   5.421   3.551  16.799  0.3671 -0.0222  0.2060
19019TIP3    H178472   5.514   3.563  16.817  0.1920 -0.5828  1.5649
19019TIP3    H278473   5.380   3.631  16.832  0.0730 -0.9499  2.1885
19020TIP3   OH278474   3.835   1.232   2.074 -0.4817  0.5080  0.1346
19020TIP3    H178475   3.899   1.183   2.023  0.6297  3.4411 -1.4394
19020TIP3    H278476   3.873   1.237   2.162 -0.0530 -0.4673  0.0040
19021TIP3   OH278477   0.594   4.291  12.990  0.1895  0.1123  0.1395
19021TIP3    H178478   0.670   4.234  12.976  0.1660 -0.7192  2.9685
19021TIP3    H278479   0.626   4.379  12.974  1.8555 -0.2080  1.6200
19022TIP3   OH278480   6.776   5.343  11.465  0.3421  0.2191 -0.5544
19022TIP3    H178481   6.764   5.336  11.371  2.6757  1.4700 -1.0079
19022TIP3    H278482   6.845   5.279  11.486 -1.8750 -1.8271  0.7433
19023TIP3   OH278483   6.129   4.142   4.828  0.2506 -0.7307  0.0875
19023TIP3    H178484   6.042   4.181   4.824 -0.6065 -2.4719  1.1362
19023TIP3    H278485   6.117   4.053   4.797  2.1297 -0.3127 -1.9682
19024TIP3   OH278486   4.613   0.399   2.624 -0.5762  0.0582 -0.0498
19024TIP3    H178487   4.620   0.367   2.714 -1.4203  3.2282  1.2089
19024TIP3    H278488   4.532   0.449   2.622 -0.8657 -0.4195 -2.7541
19025TIP3   OH278489   5.904   0.277   4.689  0.5619 -0.3036 -0.2250
19025TIP3    H178490   5.933   0.347   4.632  1.2924  0.7136  1.3681
19025TIP3    H278491   5.982   0.254   4.741 -0.0330 -1.3367  0.2342
19026TIP3   OH278492   3.424   4.635  14.903 -0.0985  0.0814  0.4233
19026TIP3    H178493   3.419   4.581  14.824  0.0558  1.0054 -0.2202
19026TIP3    H278494   3.424   4.571  14.975  1.5862 -0.8569 -0.3654
19027TIP3   OH278495   5.782   2.746   0.166 -0.3619 -0.0519 -0.1771
19027TIP3    H178496   5.760   2.814   0.230 -0.8360  1.7376 -2.1446
19027TIP3    H278497   5.792   2.794   0.083 -2.5429 -2.6015 -2.0243
19028TIP3   OH278498   1.521   0.638  12.370  0.0772 -0.1692 -0.1656
19028TIP3    H178499   1.458   0.568  12.385 -1.6600  1.2586 -0.5416
19028TIP3    H278500   1.555   0.622  12.283  1.0146 -1.5307  0.4367
19029TIP3   OH278501   1.496   6.426   0.411 -0.0413  0.3330 -0.0863
19029TIP3    H178502   1.462   6.400   0.325 -0.7505 -1.5264  0.7581
19029TIP3    H278503   1.570   6.367   0.426 -1.1630 -0.6842  1.4803
19030TIP3   OH278504   6.471   0.306  12.135  0.2273 -0.4005  0.5182
19030TIP3    H178505   6.484   0.380  12.195  0.4135 -0.0392  0.0345
19030TIP3    H278506   6.380   0.280  12.149  0.3463 -0.4939  1.1543
19031TIP3   OH278507   3.762   0.772   2.393 -0.2012  0.0646 -0.0138
19031TIP3    H178508   3.823   0.828   2.345  2.1455 -0.8748  1.7771
19031TIP3    H278509   3.736   0.705   2.330 -0.0370  0.9703 -1.0475
19032TIP3   OH278510   1.014   3.417  11.200  0.2367  0.1664 -0.1436
19032TIP3    H178511   1.108   3.432  11.186 -0.0483  3.5687  1.0870
19032TIP3    H278512   0.971   3.492  11.160 -1.7138  0.4313  2.2881
19033TIP3   OH278513   3.308   3.462  15.260 -0.1817 -0.7710  0.7683
19033TIP3    H178514   3.368   3.402  15.214 -1.8981 -1.5127 -0.5290
19033TIP3    H278515   3.243   3.404  15.301 -0.6634  0.0975  1.2518
19034TIP3   OH278516   5.292   6.464   3.795  0.0304 -0.0231  1.1478
19034TIP3    H178517   5.266   6.556   3.809 -0.6384 -0.1230  0.5781
19034TIP3    H278518   5.257   6.442   3.709  0.2706 -0.7892  1.2451
19035TIP3   OH278519   5.133   4.095  16.539  0.5082 -0.1527 -0.2170
19035TIP3    H178520   5.221   4.059  16.536  1.0500  1.2815 -3.2373
19035TIP3    H278521   5.076   4.018  16.541  1.7916 -1.0946  0.8981
19036TIP3   OH278522   6.540   2.858  13.849 -0.1595 -0.4526 -0.1439
19036TIP3    H178523   6.560   2.922  13.918  0.1314 -1.2691  0.5380
19036TIP3    H278524   6.501   2.784  13.896 -0.1193 -0.9446 -0.8833
19037TIP3   OH278525   2.516   5.283  16.223  0.1904 -0.9238 -0.1563
19037TIP3    H178526   2.565   5.233  16.157 -0.3974 -0.1048 -1.2265
19037TIP3    H278527   2.472   5.352  16.173 -0.3465 -0.3569  1.0854
19038TIP3   OH278528   1.615   2.923   5.932  0.8094  0.5507 -0.0196
19038TIP3    H178529   1.556   2.925   5.857  0.1965  1.9940  0.4873
19038TIP3    H278530   1.700   2.948   5.897  0.9943 -0.8455 -0.6168
19039TIP3   OH278531   4.281   3.233   5.792  0.3192 -0.0828  0.4584
19039TIP3    H178532   4.286   3.326   5.768  1.9795 -0.0458  0.8891
19039TIP3    H278533   4.317   3.187   5.716 -2.9084 -0.5896 -0.8593
19040TIP3   OH278534   2.553   6.422  16.194  0.0690  0.1531  0.2830
19040TIP3    H178535   2.568   6.457  16.282  0.0235  0.1888  0.2742
19040TIP3    H278536   2.505   6.491  16.149  1.0343  0.5897 -0.1008
19041TIP3   OH278537   6.323   4.799   2.322  0.0122  0.0988 -0.2383
19041TIP3    H178538   6.383   4.741   2.276 -0.5634 -1.8788  1.4417
19041TIP3    H278539   6.238   4.784   2.282  0.5691  2.9857 -2.6945
19042TIP3   OH278540   1.797   5.756  15.499  0.4709 -0.1834  0.0850
19042TIP3    H178541   1.793   5.763  15.594 -1.0049 -0.1678  0.0343
19042TIP3    H278542   1.747   5.831  15.467  1.6187  0.2559 -0.7293
19043TIP3   OH278543   4.736   1.532   4.217 -0.1708  0.3031  0.9506
19043TIP3    H178544   4.814   1.509   4.267  0.0792  0.6108  0.7044
19043TIP3    H278545   4.741   1.627   4.205 -0.8024  0.3835  1.2964
19044TIP3   OH278546   6.594   4.374   4.530 -0.3607 -0.3048 -0.3978
19044TIP3    H178547   6.526   4.425   4.485 -1.8641 -0.4830  1.6277
19044TIP3    H278548   6.554   4.347   4.612  2.1706 -0.4639  0.8310
19045TIP3   OH278549   6.093   2.266   4.457  0.3935  0.0847 -0.1414
19045TIP3    H178550   6.050   2.351   4.466 -1.5620 -0.7336 -1.4437
19045TIP3    H278551   6.047   2.210   4.519  0.2601 -0.5713 -0.8418
19046TIP3   OH278552   3.468   5.356   1.058  0.5060 -0.1589  0.0043
19046TIP3    H178553   3.393   5.401   1.097  1.4386  1.5136 -0.1096
19046TIP3    H278554   3.523   5.331   1.132  0.1625 -0.8035  0.0436
19047TIP3   OH278555   5.070   2.240   0.853  0.2027 -0.2983 -0.0143
19047TIP3    H178556   5.011   2.314   0.844  0.6384  0.1224  0.5541
19047TIP3    H278557   5.067   2.197   0.768 -1.7329 -0.9094  0.3445
19048TIP3   OH278558   6.302   5.638   1.940 -0.3437 -0.5841  0.7276
19048TIP3    H178559   6.319   5.548   1.969 -0.1565 -0.3864  1.2393
19048TIP3    H278560   6.244   5.673   2.008  1.0719  0.2767  1.4911
19049TIP3   OH278561   2.348   2.643   5.796  0.5591 -0.6902  0.4981
19049TIP3    H178562   2.372   2.554   5.823  0.7414  0.1336  3.2339
19049TIP3    H278563   2.344   2.693   5.878 -3.8658  0.8377 -0.5431
19050TIP3   OH278564   5.144   4.490   2.125 -0.5919 -0.2620 -0.1065
19050TIP3    H178565   5.074   4.510   2.063 -1.0032 -0.1995  0.3800
19050TIP3    H278566   5.194   4.421   2.082 -1.2045 -0.6104 -0.2644
19051TIP3   OH278567   5.551   5.360  16.048 -0.7036 -0.1396 -0.3465
19051TIP3    H178568   5.513   5.314  15.973 -3.8796 -1.1290  1.7576
19051TIP3    H278569   5.495   5.334  16.122  2.3149  0.8265  2.3558
19052TIP3   OH278570   2.101   6.290  15.632  0.3194  0.0793  0.0056
19052TIP3    H178571   2.054   6.304  15.714  2.3885  0.6805  1.1048
19052TIP3    H278572   2.156   6.367  15.622  0.5850 -0.3036 -1.6255
19053TIP3   OH278573   0.855   6.493   4.430 -0.0744  0.0444  0.4311
19053TIP3    H178574   0.898   6.408   4.428  1.8890  1.0247 -1.2205
19053TIP3    H278575   0.927   6.556   4.437 -1.4533  1.6118  0.9794
19054TIP3   OH278576   6.510   4.999   3.149  0.0250  0.0809  0.6444
19054TIP3    H178577   6.511   5.029   3.240 -1.2622 -0.4559  0.8453
19054TIP3    H278578   6.502   4.904   3.155  1.1783 -0.0699 -0.0271
19055TIP3   OH278579   4.668   5.710   1.290 -0.2349  0.0596 -0.0974
19055TIP3    H178580   4.673   5.694   1.385  1.1507 -0.4942 -0.2476
19055TIP3    H278581   4.751   5.753   1.269  1.0428 -3.0734 -1.6700
19056TIP3   OH278582   2.996   4.850   3.321 -0.2413 -0.3149  0.0216
19056TIP3    H178583   2.913   4.802   3.327  0.3961 -1.7040 -1.8135
19056TIP3    H278584   3.016   4.851   3.228  1.0041  1.4509  0.2841
19057TIP3   OH278585   0.900   1.818  17.202 -0.4700 -0.2140  0.7768
19057TIP3    H178586   0.964   1.747  17.205 -0.7690 -0.4436  3.0334
19057TIP3    H278587   0.898   1.846  17.111  1.9222 -1.0345  0.4480
19058TIP3   OH278588   3.142   4.262  16.699 -0.2235  0.0905  0.7009
19058TIP3    H178589   3.132   4.339  16.755 -1.1806 -0.7736  1.7212
19058TIP3    H278590   3.128   4.187  16.757  0.5156 -0.8694 -0.3200
19059TIP3   OH278591   1.610   0.904  17.038  0.0631  0.4789  0.0248
19059TIP3    H178592   1.679   0.957  17.076  0.5029  0.7701 -1.1668
19059TIP3    H278593   1.648   0.867  16.958 -0.2182 -1.6594  0.8503
19060TIP3   OH278594   4.641   2.775   4.158 -0.0113 -0.7273  0.5924
19060TIP3    H178595   4.665   2.761   4.067 -1.7778  0.2814 -0.0577
19060TIP3    H278596   4.555   2.817   4.154  0.6410  0.8705  2.6946
19061TIP3   OH278597   2.219   3.031  11.797  0.9193  0.5732  0.3560
19061TIP3    H178598   2.264   2.992  11.872 -0.3563  0.2499  0.9581
19061TIP3    H278599   2.228   2.967  11.727 -0.2908 -0.3749  1.0488
19062TIP3   OH278600   6.707   4.850  16.117  0.0056 -0.1574  0.0674
19062TIP3    H178601   6.743   4.774  16.071  0.7910  0.6724 -0.6841
19062TIP3    H278602   6.762   4.923  16.090 -0.9652  0.7493  0.5288
19063TIP3   OH278603   0.953   0.011  12.547  0.4116  0.4270 -0.3503
19063TIP3    H178604   0.894  -0.058  12.518 -0.5011  1.6733 -1.4911
19063TIP3    H278605   1.038  -0.032  12.556  0.2823 -0.4300 -2.9281
19064TIP3   OH278606   3.888   2.501   4.047 -0.0300 -0.4849  0.2156
19064TIP3    H178607   3.927   2.428   4.095 -0.0753 -0.1838  0.7205
19064TIP3    H278608   3.805   2.517   4.093  0.4152  0.4893  0.6755
19065TIP3   OH278609   4.245   3.809  14.832  0.3520 -0.5654 -0.6266
19065TIP3    H178610   4.199   3.882  14.790  1.0388  0.1938 -0.0645
19065TIP3    H278611   4.337   3.824  14.812  0.6819 -0.2679  1.0096
19066TIP3   OH278612   6.585   3.016  12.521  0.3338  0.0632 -0.4679
19066TIP3    H178613   6.581   2.923  12.501  2.1506  0.1067 -1.0752
19066TIP3    H278614   6.537   3.058  12.450  1.9637 -0.2005 -1.7244
19067TIP3   OH278615   1.631   3.074  11.562  0.1034 -0.0684 -0.0519
19067TIP3    H178616   1.606   3.048  11.473  1.7524 -0.8918 -0.3081
19067TIP3    H278617   1.716   3.118  11.551 -0.0937  0.6086  1.0177
19068TIP3   OH278618   4.013   0.951  16.363 -0.0588 -0.0473  0.2061
19068TIP3    H178619   3.978   0.889  16.427  0.3164 -1.3065 -0.7971
19068TIP3    H278620   4.106   0.928  16.356  0.5218  1.8741  1.2435
19069TIP3   OH278621   4.514   0.684  16.034 -0.1158 -0.0440  0.4973
19069TIP3    H178622   4.506   0.725  15.948 -1.0746  0.1220  0.6660
19069TIP3    H278623   4.467   0.602  16.026  1.6566 -1.0630  0.2097
19070TIP3   OH278624   1.846   2.744  11.180  0.1807 -0.6218 -0.4515
19070TIP3    H178625   1.753   2.765  11.189  0.2628 -1.1927  1.9561
19070TIP3    H278626   1.873   2.792  11.102 -1.8267  0.5735 -0.4638
19071TIP3   OH278627   6.452   5.768   4.537  0.1366  0.0972  0.1188
19071TIP3    H178628   6.382   5.749   4.599 -1.4144 -1.7323 -2.0853
19071TIP3    H278629   6.502   5.687   4.531 -0.3295 -0.0859 -1.7186
19072TIP3   OH278630   4.050   5.672   1.484  0.2549 -0.5413 -0.1515
19072TIP3    H178631   3.988   5.705   1.420 -1.4520 -0.1475  1.6351
19072TIP3    H278632   4.022   5.711   1.567  3.1311 -0.0575  0.6576
19073TIP3   OH278633   1.595   5.722   1.164 -0.0891  0.1447 -0.1053
19073TIP3    H178634   1.660   5.656   1.189 -0.3207 -0.2976 -0.6667
19073TIP3    H278635   1.584   5.775   1.242  0.1007 -0.4812  0.3485
19074TIP3   OH278636   1.233   4.019   3.764  0.2606  0.2128 -0.0985
19074TIP3    H178637   1.194   3.969   3.692  0.1824 -1.5921  1.1642
19074TIP3    H278638   1.325   4.028   3.739  0.5186 -1.4992  0.1176
19075TIP3   OH278639   2.374   5.873   0.387  0.5631  0.4886 -0.0151
19075TIP3    H178640   2.330   5.958   0.392  0.1804  0.2815  0.1887
19075TIP3    H278641   2.462   5.889   0.419  0.4646  0.7920  0.1030
19076TIP3   OH278642   2.064   5.183  14.732  0.4256 -0.4167  0.4889
19076TIP3    H178643   1.970   5.170  14.723  0.7071 -2.7971  0.6281
19076TIP3    H278644   2.073   5.238  14.810 -0.8170 -0.7943  0.9146
19077TIP3   OH278645   6.331   4.798  14.270  0.1541 -0.0272  0.2259
19077TIP3    H178646   6.349   4.887  14.239 -2.2060  0.5220  0.3894
19077TIP3    H278647   6.387   4.789  14.348  0.1642  1.4328  0.4036
19078TIP3   OH278648   2.687   5.575  11.952  0.3422 -0.4344 -0.2864
19078TIP3    H178649   2.630   5.499  11.968 -2.1593  1.5097  0.4181
19078TIP3    H278650   2.700   5.614  12.039 -1.3307  1.9117 -1.0324
19079TIP3   OH278651   3.915   5.366   0.170  0.0221  0.6260 -0.2606
19079TIP3    H178652   3.853   5.437   0.187 -0.8645 -0.0076 -0.7790
19079TIP3    H278653   3.901   5.343   0.078 -1.1039 -1.5205  0.3998
19080TIP3   OH278654   3.297   5.494  11.495 -0.3114  0.6966  0.0937
19080TIP3    H178655   3.342   5.424  11.542 -0.9892  1.2969  1.6809
19080TIP3    H278656   3.243   5.449  11.430  0.1215 -0.1796  0.3411
19081TIP3   OH278657   3.893   4.973   1.764 -0.4709  0.3859  0.0527
19081TIP3    H178658   3.935   4.913   1.826 -0.3449  1.9565  1.5673
19081TIP3    H278659   3.802   4.945   1.761 -0.4526  0.2035  0.8927
19082TIP3   OH278660   0.849   6.725  10.593 -0.3120 -0.4137  0.0421
19082TIP3    H178661   0.802   6.741  10.511  0.8729  1.2128 -0.3471
19082TIP3    H278662   0.789   6.672  10.645 -1.4515 -0.7058 -1.5160
19083TIP3   OH278663   5.921   4.207  14.059 -0.3981  0.7282  0.0943
19083TIP3    H178664   5.920   4.215  13.964  0.8842 -2.2692 -0.2214
19083TIP3    H278665   6.013   4.218  14.084 -0.2150 -1.7448  0.6220
19084TIP3   OH278666   4.115   4.507  13.505 -0.1735  0.3150 -0.3230
19084TIP3    H178667   4.133   4.419  13.473  0.5277 -0.1662  1.3896
19084TIP3    H278668   4.025   4.525  13.475 -0.0792 -0.6929 -1.2544
19085TIP3   OH278669   0.255   3.214  15.754  0.1967 -0.4291  0.1618
19085TIP3    H178670   0.310   3.290  15.738  1.0045 -0.9927  0.2193
19085TIP3    H278671   0.192   3.243  15.820 -0.2782  0.5436 -0.7074
19086TIP3   OH278672   3.473   4.043  12.048 -0.4186  0.4663  0.3185
19086TIP3    H178673   3.386   4.076  12.024 -1.0013 -0.5420  1.0308
19086TIP3    H278674   3.525   4.122  12.062 -0.9845  1.0790 -0.9214
19087TIP3   OH278675   1.870   3.303   0.631 -0.2961  0.4544  0.8935
19087TIP3    H178676   1.882   3.239   0.561 -0.8431 -0.8304  1.9377
19087TIP3    H278677   1.790   3.350   0.608 -0.6200 -0.1441  0.7953
19088TIP3   OH278678   5.174   3.821   5.580 -0.1735 -0.7079 -0.2717
19088TIP3    H178679   5.209   3.765   5.512  1.5423 -1.1684  0.9538
19088TIP3    H278680   5.229   3.803   5.657  0.2428  2.4080  0.2367
19089TIP3   OH278681   3.229   2.102   5.204 -0.5090 -0.2437  0.2492
19089TIP3    H178682   3.294   2.170   5.220  0.3894 -0.8283 -0.7916
19089TIP3    H278683   3.275   2.020   5.227 -2.2376 -0.3873  3.4959
19090TIP3   OH278684   1.040   6.110  11.418 -0.0646 -0.7531 -0.3893
19090TIP3    H178685   0.989   6.183  11.454 -0.6870 -1.1284 -0.4967
19090TIP3    H278686   1.014   6.035  11.471  1.1077 -0.7602  0.1767
19091TIP3   OH278687   3.713   1.969   0.700  0.1778  0.0166 -0.2044
19091TIP3    H178688   3.624   2.006   0.696  1.4053  3.0394 -1.1575
19091TIP3    H278689   3.730   1.960   0.794  0.0213  2.5245  0.1085
19092TIP3   OH278690   2.863   2.697  14.278 -0.3221  0.4603 -0.3030
19092TIP3    H178691   2.880   2.729  14.189  1.7623  1.3305  0.3623
19092TIP3    H278692   2.915   2.617  14.285 -1.1398 -0.0530 -0.1463
19093TIP3   OH278693   0.499   4.729  16.817  0.4256  0.1477  0.1721
19093TIP3    H178694   0.511   4.635  16.831 -0.5850  0.1404  1.0559
19093TIP3    H278695   0.488   4.738  16.723  0.7303 -0.5994  0.0604
19094TIP3   OH278696   3.544   4.082   5.181 -0.1024 -0.0587 -0.3070
19094TIP3    H178697   3.490   4.017   5.135  0.2476  0.6540 -1.7481
19094TIP3    H278698   3.558   4.151   5.117 -0.5618  1.5172  1.2483
19095TIP3   OH278699   0.855   1.364   3.146  0.0118 -0.3675 -0.3517
19095TIP3    H178700   0.769   1.345   3.184  0.1054 -0.3438 -0.1286
19095TIP3    H278701   0.880   1.448   3.184  1.1098 -1.4016  1.2774
19096TIP3   OH278702   5.090   3.684   6.126  0.3096 -0.6031 -0.1534
19096TIP3    H178703   5.101   3.613   6.188  0.6839 -1.0494 -0.7158
19096TIP3    H278704   5.111   3.763   6.175 -2.2168 -0.6642  1.0503
19097TIP3   OH278705   0.820   2.601  15.220  0.0294  0.4635 -0.3903
19097TIP3    H178706   0.791   2.540  15.287 -0.0209 -0.6149 -1.3619
19097TIP3    H278707   0.866   2.546  15.156  0.0691  1.4544 -1.2383
19098TIP3   OH278708   5.916   4.827  11.209  0.5230  0.0072 -0.5823
19098TIP3    H178709   5.829   4.834  11.249  1.8765  1.1421  2.3464
19098TIP3    H278710   5.942   4.918  11.194  1.9395 -0.2390  0.3167
19099TIP3   OH278711   2.645   2.832   3.254 -0.1549  0.6086  0.6122
19099TIP3    H178712   2.713   2.858   3.192  0.1929 -0.4378  0.5385
19099TIP3    H278713   2.663   2.884   3.332 -0.4982  1.8132 -0.0992
19100TIP3   OH278714   6.088   0.275   1.822 -0.2489  0.0122 -0.1303
19100TIP3    H178715   6.121   0.196   1.865  1.6070  0.5508 -0.5482
19100TIP3    H278716   6.016   0.304   1.879 -0.9772 -1.9725  0.0118
19101TIP3   OH278717   1.840   5.779  15.812 -0.1224  0.0436  0.2522
19101TIP3    H178718   1.887   5.698  15.833 -0.8145 -0.1710  0.9954
19101TIP3    H278719   1.908   5.839  15.782  0.7536  0.0641  2.2476
19102TIP3   OH278720   1.555   3.511   1.398 -0.0988 -0.1226 -0.2098
19102TIP3    H178721   1.535   3.425   1.434 -0.4024  0.2436  0.5034
19102TIP3    H278722   1.650   3.517   1.401  0.0079 -0.9525 -1.4793
19103TIP3   OH278723   0.670   6.324   3.814 -0.2297 -0.4665  0.0729
19103TIP3    H178724   0.616   6.401   3.831 -0.7777 -0.7393 -0.4152
19103TIP3    H278725   0.731   6.321   3.888  1.2818  1.6946 -1.0308
19104TIP3   OH278726   2.020   0.732   4.231 -0.3200  0.3229  0.2818
19104TIP3    H178727   2.008   0.656   4.289 -3.0185 -0.4129 -1.1991
19104TIP3    H278728   1.991   0.807   4.283 -1.8390 -0.2179  0.2240
19105TIP3   OH278729   0.260   0.572   3.087 -0.5777 -0.2811 -0.0732
19105TIP3    H178730   0.279   0.595   2.996 -0.2046  1.8210  0.5109
19105TIP3    H278731   0.345   0.565   3.128 -0.7774  0.1003  0.4123
19106TIP3   OH278732   2.539   6.443  11.501  0.7119  0.1513  0.3333
19106TIP3    H178733   2.464   6.384  11.489  0.7730  0.1722 -0.1380
19106TIP3    H278734   2.519   6.490  11.582  0.0937  0.3305  0.0816
19107TIP3   OH278735   0.141   1.426   5.506  0.6109 -0.1112  0.8237
19107TIP3    H178736   0.078   1.494   5.532 -0.7140  0.4833 -3.5408
19107TIP3    H278737   0.087   1.350   5.486  1.5905 -0.6800  0.3226
19108TIP3   OH278738   4.198   0.249  13.962 -0.4690  0.5387  0.0113
19108TIP3    H178739   4.287   0.234  13.993 -0.4577 -1.2087 -0.8100
19108TIP3    H278740   4.196   0.342  13.940  1.1060  0.6279  0.1867
19109TIP3   OH278741   5.771   6.014  14.692  0.1135 -0.3232  0.1669
19109TIP3    H178742   5.692   6.067  14.683 -0.8397 -1.8145 -0.5000
19109TIP3    H278743   5.773   5.989  14.784  0.6708  1.0137  0.5250
19110TIP3   OH278744   1.083   0.092  11.631  0.0038 -0.3863 -0.4758
19110TIP3    H178745   1.054   0.002  11.616  0.7978 -0.2188 -3.1420
19110TIP3    H278746   1.008   0.146  11.608 -0.0241 -0.2854 -0.1585
19111TIP3   OH278747   5.357   4.548   1.314 -0.2140  0.0527 -0.6263
19111TIP3    H178748   5.274   4.525   1.357  0.6179 -0.9451  0.4842
19111TIP3    H278749   5.404   4.598   1.381 -0.2572  1.3378 -1.5481
19112TIP3   OH278750   3.449   1.318   5.433  0.4269  0.0662  0.7560
19112TIP3    H178751   3.372   1.310   5.488  0.7933 -1.5899  1.0772
19112TIP3    H278752   3.416   1.302   5.344  0.4898 -1.2668  0.9633
19113TIP3   OH278753   0.798   1.777  12.612 -0.0362 -0.5679 -0.3052
19113TIP3    H178754   0.836   1.751  12.696 -0.0284 -1.9227 -0.7110
19113TIP3    H278755   0.872   1.776  12.552 -0.0134  0.5491 -0.3092
19114TIP3   OH278756   4.056   0.162   2.157 -0.0970 -0.3711 -0.8060
19114TIP3    H178757   4.044   0.095   2.090  1.1705  0.1062 -1.5448
19114TIP3    H278758   4.149   0.157   2.180 -0.3457  0.0026  0.3572
19115TIP3   OH278759   0.573   4.197  16.287 -0.1139 -0.0118  0.9660
19115TIP3    H178760   0.532   4.154  16.213 -0.2217  0.5462  0.6971
19115TIP3    H278761   0.667   4.196  16.266 -0.0724 -0.5047  1.1688
19116TIP3   OH278762   0.937   0.991  15.285  0.5449  0.1249 -0.1103
19116TIP3    H178763   0.933   1.065  15.346 -1.9901  0.5600 -0.7210
19116TIP3    H278764   0.992   1.023  15.213 -1.6962  2.0262 -1.0658
19117TIP3   OH278765   3.929   1.107  15.787  0.1124  0.3025  0.6882
19117TIP3    H178766   4.002   1.092  15.846  0.0569  2.8715  1.4838
19117TIP3    H278767   3.854   1.123  15.844 -0.8587 -1.2511 -0.1166
19118TIP3   OH278768   3.088   3.720   0.424  0.0863  0.7518 -0.5345
19118TIP3    H178769   3.023   3.789   0.432 -0.2047  0.4371 -0.1327
19118TIP3    H278770   3.110   3.697   0.515  0.5920  0.7050 -0.6650
19119TIP3   OH278771   4.951   5.857  16.319  0.2292  0.5943 -0.1875
19119TIP3    H178772   4.864   5.893  16.305 -0.0086  0.0607 -0.0874
19119TIP3    H278773   4.969   5.873  16.412 -0.1487 -0.1391  0.0155
19120TIP3   OH278774   1.683   0.115  16.061  0.0430  0.1652  0.3278
19120TIP3    H178775   1.594   0.135  16.031 -0.1238 -1.6627 -0.4471
19120TIP3    H278776   1.676   0.113  16.157 -1.0536 -1.2986  0.2288
19121TIP3   OH278777   6.646   6.644   4.895 -0.2025 -0.3249 -0.1976
19121TIP3    H178778   6.704   6.720   4.892 -0.8852  0.3277  2.1401
19121TIP3    H278779   6.559   6.680   4.882 -0.2627 -1.1068 -2.0911
19122TIP3   OH278780   5.613   2.868   5.017 -0.2341  0.2520 -0.1807
19122TIP3    H178781   5.531   2.829   5.045  0.1082  0.5743  1.3633
19122TIP3    H278782   5.676   2.844   5.086  1.1627 -0.6911 -1.7537
19123TIP3   OH278783   1.456   0.194  16.971 -0.3336 -0.3963 -0.1417
19123TIP3    H178784   1.386   0.259  16.978 -1.0974 -1.0277 -1.6325
19123TIP3    H278785   1.532   0.237  17.009 -0.9946  1.1280 -0.4942
19124TIP3   OH278786   5.105   3.254  15.152 -0.1988  0.3212 -0.4781
19124TIP3    H178787   5.139   3.203  15.079  0.0783 -2.0159  1.2246
19124TIP3    H278788   5.071   3.334  15.112  0.4140 -0.6785 -3.0775
19125TIP3   OH278789   3.297   4.006   0.374  0.5650 -0.2784 -0.2536
19125TIP3    H178790   3.278   4.072   0.441  0.2998  0.3940 -0.9754
19125TIP3    H278791   3.227   3.942   0.382  1.8072 -1.4255  1.6448
19126TIP3   OH278792   3.591   0.493  15.614  0.0533 -1.1338  0.9484
19126TIP3    H178793   3.569   0.559  15.548  1.0251 -1.5190  0.2235
19126TIP3    H278794   3.671   0.452  15.581  1.3565 -0.3696  3.0598
19127TIP3   OH278795   3.583   3.825  15.717  0.3763  0.0760  0.4571
19127TIP3    H178796   3.575   3.740  15.675  0.2285 -0.8405  2.2993
19127TIP3    H278797   3.493   3.858  15.722  0.3885  0.1648  0.1159
19128TIP3   OH278798   5.133   6.411  12.833  0.1216  0.1597 -0.3603
19128TIP3    H178799   5.106   6.454  12.914 -1.1723  2.9355 -2.1701
19128TIP3    H278800   5.229   6.412  12.836  0.0922  1.1333  0.6814
19129TIP3   OH278801   6.600   1.610   2.681 -0.1835 -0.2474  0.1778
19129TIP3    H178802   6.664   1.661   2.630 -1.2644  0.1828 -0.7904
19129TIP3    H278803   6.614   1.637   2.771  0.5820  0.3118 -0.1004
19130TIP3   OH278804   3.133   1.189   2.545  0.0204 -0.2883  0.5781
19130TIP3    H178805   3.225   1.200   2.566 -0.3817  0.9058  1.8240
19130TIP3    H278806   3.093   1.272   2.570 -0.9702  0.2169 -2.4313
19131TIP3   OH278807   1.056   1.397   1.248 -0.0319 -0.4962  0.1686
19131TIP3    H178808   0.972   1.390   1.203 -0.6929 -0.4453  1.3709
19131TIP3    H278809   1.103   1.464   1.200  0.0915 -1.8960 -1.7074
19132TIP3   OH278810   1.848   5.056  15.306  0.0236 -0.2605 -0.3526
19132TIP3    H178811   1.809   5.049  15.219  0.6253  2.3098 -0.8688
19132TIP3    H278812   1.876   5.147  15.313  1.0544 -0.7111  2.0907
19133TIP3   OH278813   3.170   2.544   4.145 -0.4372  0.0414 -0.2047
19133TIP3    H178814   3.202   2.574   4.060  0.1324  0.6028  0.1905
19133TIP3    H278815   3.161   2.625   4.196  0.2680 -0.3804  0.6069
19134TIP3   OH278816   5.215   5.052   1.420 -0.2061 -0.0822  0.6571
19134TIP3    H178817   5.120   5.053   1.408 -0.0810  0.4897 -0.3550
19134TIP3    H278818   5.249   5.018   1.337  0.5034  0.2301  0.8169
19135TIP3   OH278819   0.691   3.754   1.033  0.0569 -0.0092  0.0434
19135TIP3    H178820   0.695   3.663   1.003  0.7955 -0.0743  0.3178
19135TIP3    H278821   0.756   3.800   0.979 -1.5560  0.7214 -1.3076
19136TIP3   OH278822   2.498   0.416   0.572  0.4544  0.2809  0.3136
19136TIP3    H178823   2.581   0.371   0.586  1.1183  1.6381  0.7845
19136TIP3    H278824   2.522   0.508   0.561 -1.0026  0.7006  0.5634
19137TIP3   OH278825   4.826   0.566   3.717 -0.1648 -0.6481  0.0624
19137TIP3    H178826   4.866   0.558   3.630  0.1069 -0.4097  0.1644
19137TIP3    H278827   4.781   0.482   3.730  0.6851 -1.1044  0.1337
19138TIP3   OH278828   1.975   2.464   3.584 -0.8102  0.0589 -0.2273
19138TIP3    H178829   1.884   2.482   3.561 -1.0422 -0.8537 -0.0390
19138TIP3    H278830   1.977   2.473   3.679 -0.7160  0.0495 -0.2288
19139TIP3   OH278831   0.744   3.617  14.814 -0.0637  0.4039 -0.2967
19139TIP3    H178832   0.794   3.545  14.776 -1.7009 -1.1688  0.4594
19139TIP3    H278833   0.658   3.579  14.834 -1.0232  2.6195 -0.0679
19140TIP3   OH278834   3.450   5.918   2.603 -0.1563  0.4846  0.5744
19140TIP3    H178835   3.445   5.855   2.674 -0.4911 -0.4880 -0.2898
19140TIP3    H278836   3.543   5.940   2.596  0.2677 -1.4861 -0.4354
19141TIP3   OH278837   1.500   0.640   5.983  0.0433 -0.4052  0.2068
19141TIP3    H178838   1.551   0.560   5.970 -2.4025 -2.5700  3.1975
19141TIP3    H278839   1.521   0.668   6.072  0.4990  2.0573 -0.6361
19142TIP3   OH278840   2.642   4.699  16.809 -0.2328  0.4420  0.2505
19142TIP3    H178841   2.632   4.756  16.885 -0.9230  2.4773 -1.3020
19142TIP3    H278842   2.735   4.703  16.787  0.3345 -1.7232  2.1331
19143TIP3   OH278843   5.952   1.122   5.457 -0.2292 -0.5307 -0.1060
19143TIP3    H178844   5.969   1.207   5.415  2.6798 -0.2377  1.5349
19143TIP3    H278845   5.905   1.144   5.537 -2.1838 -0.7621 -1.1560
19144TIP3   OH278846   3.692   3.689  16.847 -0.1816 -0.0830  0.3589
19144TIP3    H178847   3.734   3.728  16.770 -2.1520  0.9453 -0.2302
19144TIP3    H278848   3.752   3.707  16.919  1.4384 -0.5920 -0.8433
19145TIP3   OH278849   4.999   4.072  11.762  0.0736  0.4944  0.0506
19145TIP3    H178850   4.968   4.096  11.849 -0.4837  0.4064 -0.1188
19145TIP3    H278851   4.954   4.132  11.703  0.0067  0.1764 -0.2219
19146TIP3   OH278852   2.206   5.807  14.712  0.5031  0.5557 -0.2332
19146TIP3    H178853   2.150   5.765  14.777  2.3496 -0.8132  0.5168
19146TIP3    H278854   2.151   5.814  14.634  0.0098 -2.9897 -0.2972
19147TIP3   OH278855   5.400   0.198  11.414  0.0014  0.0016 -0.4024
19147TIP3    H178856   5.472   0.237  11.364  0.5274 -0.3726  0.0569
19147TIP3    H278857   5.441   0.163  11.493 -1.1085  2.4183  1.3220
19148TIP3   OH278858   2.981   3.771   3.020 -0.5625  0.1154 -0.6639
19148TIP3    H178859   2.914   3.738   3.079 -1.0354  1.9336 -0.1434
19148TIP3    H278860   2.953   3.860   3.000  2.2810  1.3018  0.4457
19149TIP3   OH278861   0.879   6.263   2.626  0.0044 -0.3105 -0.4309
19149TIP3    H178862   0.953   6.252   2.686 -0.8488  1.4341  0.9915
19149TIP3    H278863   0.838   6.176   2.623  0.9769 -0.8046  0.2970
19150TIP3   OH278864   4.920   1.351  16.683  0.1025  0.4525  0.1079
19150TIP3    H178865   4.888   1.309  16.603 -2.4050  1.0245  0.7542
19150TIP3    H278866   4.886   1.296  16.753 -0.0146  1.4595  0.8468
19151TIP3   OH278867   2.887   2.459   2.487  0.8851 -0.6425  0.2578
19151TIP3    H178868   2.807   2.458   2.540  0.6815 -0.2652 -0.0396
19151TIP3    H278869   2.931   2.376   2.508  0.0977 -1.1425 -0.0600
19152TIP3   OH278870   5.658   2.715   4.292  0.3412 -0.4447 -0.2905
19152TIP3    H178871   5.733   2.721   4.351  0.5956 -0.6196 -0.5895
19152TIP3    H278872   5.637   2.806   4.271 -0.6119 -0.3265  1.1287
19153TIP3   OH278873   1.188   2.466   2.461 -0.3233  0.0172 -0.2488
19153TIP3    H178874   1.111   2.425   2.422 -1.6168  1.1732  1.0203
19153TIP3    H278875   1.182   2.558   2.438  0.3792  0.2203  0.3259
19154TIP3   OH278876   2.648   3.850  14.847 -0.8543  0.1705  0.0159
19154TIP3    H178877   2.591   3.831  14.773 -1.0758  0.7437  0.0394
19154TIP3    H278878   2.590   3.846  14.924 -0.9934  1.3826 -0.0248
19155TIP3   OH278879   4.994   5.659  10.841 -0.0507  0.1720 -0.1781
19155TIP3    H178880   5.078   5.705  10.843 -0.1315  0.2826  1.3833
19155TIP3    H278881   4.945   5.695  10.916 -2.0336  1.1023 -1.8685
19156TIP3   OH278882   2.775   4.812  11.940 -0.6874  0.1778  0.1823
19156TIP3    H178883   2.842   4.776  11.882 -0.5355  1.7508 -0.6522
19156TIP3    H278884   2.695   4.812  11.888 -1.0121 -0.3283  0.6761
19157TIP3   OH278885   1.280   6.407   5.577 -0.2325 -0.0899 -0.0781
19157TIP3    H178886   1.284   6.332   5.636  1.0038 -0.1448 -0.2272
19157TIP3    H278887   1.216   6.382   5.510  1.2450 -1.6221 -0.9644
19158TIP3   OH278888   3.137   4.288   4.618 -0.3403 -0.4736  0.4466
19158TIP3    H178889   3.222   4.309   4.656 -0.4067 -0.6217  0.6791
19158TIP3    H278890   3.125   4.195   4.637 -0.8679 -0.2838  1.0246
19159TIP3   OH278891   3.736   2.342   0.161  0.3865  0.1856  0.3596
19159TIP3    H178892   3.812   2.397   0.180  0.5118  0.5811 -1.2774
19159TIP3    H278893   3.694   2.383   0.086 -0.4216 -1.0569  0.1098
19160TIP3   OH278894   2.532   4.789  11.788 -0.0158 -0.1753  0.0392
19160TIP3    H178895   2.552   4.766  11.698 -0.6497 -0.2315 -0.0839
19160TIP3    H278896   2.448   4.834  11.784 -0.0483 -0.1794  0.6015
19161TIP3   OH278897   0.646   1.938   5.253  0.5395  0.3196 -0.2686
19161TIP3    H178898   0.580   1.969   5.316  0.4739 -0.0085 -0.1777
19161TIP3    H278899   0.686   2.019   5.221  0.4852  0.4989  0.1004
19162TIP3   OH278900   0.895   0.406  11.334  0.0963 -0.1906 -0.5726
19162TIP3    H178901   0.972   0.393  11.278  1.0237  2.3417  0.0855
19162TIP3    H278902   0.916   0.358  11.415  1.6822  1.7900  0.2153
19163TIP3   OH278903   3.254   1.044  16.310  0.4379 -0.1414 -0.0280
19163TIP3    H178904   3.246   0.996  16.228  0.1491  0.5450 -0.4026
19163TIP3    H278905   3.298   0.983  16.369 -3.1875 -2.3023  0.6548
19164TIP3   OH278906   3.077   2.581  11.087 -0.1033  0.3275  0.8703
19164TIP3    H178907   3.069   2.531  11.005  1.4650  1.0317  0.2821
19164TIP3    H278908   2.992   2.625  11.095 -0.4621 -0.1443 -0.1090
19165TIP3   OH278909   4.263   1.651   3.973 -0.2118  0.3201 -0.4066
19165TIP3    H178910   4.245   1.558   3.982 -0.1822  0.4458  1.0961
19165TIP3    H278911   4.212   1.679   3.897 -0.7779 -0.7634 -0.4250
19166TIP3   OH278912   4.647   4.491  12.271  0.1612 -0.1053  0.2816
19166TIP3    H178913   4.716   4.476  12.336  0.1015  0.9753  0.6008
19166TIP3    H278914   4.600   4.568  12.303 -1.8120 -1.4072  0.5729
19167TIP3   OH278915   4.530   3.797  10.382  0.2944  0.3101  0.1303
19167TIP3    H178916   4.590   3.723  10.383  0.6504  0.5791 -0.6501
19167TIP3    H278917   4.460   3.769  10.323  1.8100  1.6363 -2.3959
19168TIP3   OH278918   4.819   4.726   3.575  0.5410 -0.2107 -0.1182
19168TIP3    H178919   4.738   4.686   3.606  0.9278 -0.8032  0.1318
19168TIP3    H278920   4.809   4.819   3.596  0.1827 -0.3802  0.4694
19169TIP3   OH278921   1.462   3.601  10.495 -0.3193 -0.0056 -0.0075
19169TIP3    H178922   1.537   3.636  10.543 -1.3078  1.7623  0.2688
19169TIP3    H278923   1.396   3.670  10.500 -2.1478 -1.7406  0.1675
19170TIP3   OH278924   0.906   5.627  15.239  0.5854 -0.3193 -0.1900
19170TIP3    H178925   0.880   5.615  15.148  0.8314  0.7124 -0.4063
19170TIP3    H278926   0.945   5.714  15.241  0.1264 -0.1346  1.0125
19171TIP3   OH278927   5.895   2.491   6.403  0.3666  0.0630  0.0284
19171TIP3    H178928   5.958   2.439   6.354  0.7611  0.7213 -0.1658
19171TIP3    H278929   5.943   2.569   6.431  0.0557 -0.1365  1.1787
19172TIP3   OH278930   3.141   1.254  15.268  0.8207  0.0426  0.8563
19172TIP3    H178931   3.100   1.182  15.220  0.2319  1.2010 -0.4394
19172TIP3    H278932   3.200   1.294  15.204 -0.2522  1.8480  0.9554
19173TIP3   OH278933   4.041   1.100   5.326 -0.2379 -0.7567 -0.1275
19173TIP3    H178934   4.036   1.031   5.260 -2.3806 -0.4573 -0.3115
19173TIP3    H278935   3.992   1.173   5.288  3.4670  1.5374 -0.6858
19174TIP3   OH278936   4.607   5.062  11.556 -1.1573 -0.6576  0.5472
19174TIP3    H178937   4.627   4.968  11.559 -2.5567 -0.9408  1.9926
19174TIP3    H278938   4.628   5.089  11.467 -0.9242 -2.3917  0.0664
19175TIP3   OH278939   3.898   4.444   3.294 -0.2237 -0.0314 -0.1522
19175TIP3    H178940   3.926   4.486   3.375  0.6974  1.1779 -1.0868
19175TIP3    H278941   3.974   4.449   3.236 -0.9826 -0.5746 -1.2159
19176TIP3   OH278942   4.193   0.333   5.780  0.3104  0.0317 -0.4569
19176TIP3    H178943   4.267   0.354   5.724 -0.8569 -0.9524 -2.4388
19176TIP3    H278944   4.210   0.244   5.811  0.3244  0.0823 -0.3204
19177TIP3   OH278945   5.823   5.343  16.632  0.0752  0.6978  0.1136
19177TIP3    H178946   5.813   5.266  16.688 -1.1461  0.2747 -0.6438
19177TIP3    H278947   5.787   5.415  16.683  0.3785  0.5917  0.4727
19178TIP3   OH278948   4.798   5.852   1.785 -0.4173  0.5735  0.1767
19178TIP3    H178949   4.844   5.914   1.728 -2.9605  1.2074 -1.2350
19178TIP3    H278950   4.771   5.903   1.861  3.0124 -0.2814  2.0876
19179TIP3   OH278951   5.598   3.062  11.429  0.5756  0.1679  0.2553
19179TIP3    H178952   5.622   2.970  11.413 -0.2781 -0.0023 -0.0617
19179TIP3    H278953   5.508   3.058  11.461  0.0220  1.0001 -1.1337
19180TIP3   OH278954   2.864   2.176  13.524  0.0038 -0.0505  0.6436
19180TIP3    H178955   2.925   2.184  13.598 -0.4300  2.9302  0.7543
19180TIP3    H278956   2.814   2.258  13.526 -1.8781 -1.1122 -1.3256
19181TIP3   OH278957   2.583   6.444  13.311 -0.3270 -0.1445 -0.6803
19181TIP3    H178958   2.526   6.429  13.386 -0.6868  2.8441 -0.3076
19181TIP3    H278959   2.554   6.380  13.246 -0.8019 -1.9540  1.2556
19182TIP3   OH278960   2.649   4.434   1.008 -0.3560 -0.4602 -0.5135
19182TIP3    H178961   2.565   4.388   0.998 -1.1172  0.3605  1.8505
19182TIP3    H278962   2.699   4.378   1.067 -0.0058  0.0628 -0.3185
19183TIP3   OH278963   1.756   3.147   3.556 -0.3394  0.5637  0.0960
19183TIP3    H178964   1.719   3.093   3.486 -1.0433 -0.2696  1.1042
19183TIP3    H278965   1.822   3.201   3.512 -0.6944 -0.0301 -1.1897
19184TIP3   OH278966   1.490   1.221   1.833  0.0623 -0.1616  0.1004
19184TIP3    H178967   1.504   1.128   1.815  0.4072 -0.1946  0.5336
19184TIP3    H278968   1.539   1.238   1.913  1.0130  0.6859 -0.6437
19185TIP3   OH278969   0.499   3.457  15.653  0.3324 -0.6651  0.5185
19185TIP3    H178970   0.518   3.398  15.581 -2.8887 -0.3287 -0.7156
19185TIP3    H278971   0.543   3.538  15.631  1.1115 -1.2176  0.0154
19186TIP3   OH278972   2.804   5.388  16.473  0.0785  0.2742 -0.5149
19186TIP3    H178973   2.746   5.412  16.546 -0.1879  0.8782 -0.9231
19186TIP3    H278974   2.784   5.451  16.404 -1.0500 -1.4940 -1.8292
19187TIP3   OH278975   4.235   4.334  13.268 -0.4265  0.1890 -0.1199
19187TIP3    H178976   4.219   4.419  13.227 -1.5564  0.9305  1.7706
19187TIP3    H278977   4.329   4.334  13.288 -0.5243  1.2356  0.3553
19188TIP3   OH278978   3.925   3.308  12.995 -0.1806  0.2230  0.1880
19188TIP3    H178979   3.950   3.258  12.918 -0.5716 -1.1301  0.9261
19188TIP3    H278980   3.844   3.353  12.969 -1.1335 -1.3807  0.2534
19189TIP3   OH278981   0.850   1.011  15.724 -0.5701 -0.6591 -0.6618
19189TIP3    H178982   0.838   0.921  15.696  0.4565 -1.4642  1.3867
19189TIP3    H278983   0.761   1.044  15.737 -0.9304 -1.5889 -0.7159
19190TIP3   OH278984   0.697   5.020   1.719  0.2838  0.0718 -0.1130
19190TIP3    H178985   0.774   5.059   1.759 -0.0054 -0.1977  0.7004
19190TIP3    H278986   0.632   5.091   1.717 -0.3534 -0.4515  1.6680
19191TIP3   OH278987   3.065   2.620   3.654  0.3714  0.1156 -0.1761
19191TIP3    H178988   3.097   2.568   3.580  2.7224  1.0489  0.1622
19191TIP3    H278989   2.970   2.611   3.649  0.6558 -4.2363 -0.0992
19192TIP3   OH278990   0.190   5.233   5.495  0.0416  0.1674  0.5948
19192TIP3    H178991   0.183   5.270   5.406 -0.1265 -1.6924 -0.1848
19192TIP3    H278992   0.235   5.301   5.545 -1.7624  2.1640 -0.3644
19193TIP3   OH278993   1.542   4.118  11.607  0.0617  0.1808  0.2571
19193TIP3    H178994   1.617   4.127  11.548  0.8326  0.3686  1.2590
19193TIP3    H278995   1.560   4.037  11.656 -0.3126  0.3101  0.6086
19194TIP3   OH278996   2.280   3.941   5.407  0.1309 -0.5267 -0.3825
19194TIP3    H178997   2.373   3.932   5.385  0.6243 -0.8778  1.6806
19194TIP3    H278998   2.237   3.871   5.359  1.0436 -0.8503 -0.7427
19195TIP3   OH278999   2.785   5.733  12.598  0.2137  0.3178  0.1015
19195TIP3    H179000   2.832   5.722  12.680  2.2763 -0.7982 -1.1780
19195TIP3    H279001   2.748   5.647  12.580 -0.2762  0.5728 -0.1081
19196TIP3   OH279002   2.139   3.808   3.067 -0.0746 -0.0439 -0.3768
19196TIP3    H179003   2.141   3.831   2.974 -0.2685  0.2649 -0.3061
19196TIP3    H279004   2.061   3.852   3.101 -0.2471 -0.5052 -0.1576
19197TIP3   OH279005   0.877   6.739   4.779  0.3882  0.1255 -0.5332
19197TIP3    H179006   0.947   6.681   4.811  0.7910  0.5321 -0.6689
19197TIP3    H279007   0.922   6.820   4.757 -0.0307  0.1511 -1.2925
19198TIP3   OH279008   3.876   1.262  15.044 -0.0052 -0.5664 -0.1402
19198TIP3    H179009   3.953   1.235  15.094 -1.7404 -1.4392  2.1055
19198TIP3    H279010   3.851   1.184  14.994 -0.5225 -0.8479  0.5521
19199TIP3   OH279011   0.720   6.364   1.584 -0.4014  0.4423  0.1203
19199TIP3    H179012   0.778   6.393   1.654  0.9996 -0.0356 -0.8119
19199TIP3    H279013   0.633   6.362   1.623  0.2016  1.2574  1.5210
19200TIP3   OH279014   0.880   2.155   5.510 -0.1164 -0.0829 -0.2986
19200TIP3    H179015   0.913   2.187   5.426 -1.0590 -0.8132 -0.9668
19200TIP3    H279016   0.955   2.113   5.552  0.0095 -1.0088 -1.4303
19201TIP3   OH279017   2.627   0.846  14.808 -0.1344  0.3104  0.3131
19201TIP3    H179018   2.669   0.761  14.798  1.2815  0.9832  0.4835
19201TIP3    H279019   2.535   0.825  14.825  0.2644 -1.1895  0.6871
19202TIP3   OH279020   6.044   0.530  12.911 -0.1265  0.6049 -0.0997
19202TIP3    H179021   6.032   0.464  12.843 -0.9560 -0.9134  1.4912
19202TIP3    H279022   6.072   0.481  12.988 -1.9381  1.9281  1.4669
19203TIP3   OH279023   6.146   1.463   3.333  0.3984 -0.0527 -0.3689
19203TIP3    H179024   6.175   1.544   3.291 -0.3700 -0.0192 -0.8422
19203TIP3    H279025   6.197   1.394   3.292  1.2556  0.2142  0.2284
19204TIP3   OH279026   4.100   5.736  11.695  0.6291 -0.2895  0.2242
19204TIP3    H179027   4.008   5.732  11.670  0.8858 -0.1823 -0.7529
19204TIP3    H279028   4.147   5.753  11.613  1.5409 -0.6410  0.6615
19205TIP3   OH279029   5.366   3.077   1.176  0.5898 -0.2203 -0.2296
19205TIP3    H179030   5.332   2.991   1.201  0.4989 -0.6048 -1.6057
19205TIP3    H279031   5.333   3.136   1.243 -0.1097 -1.1131  0.2362
19206TIP3   OH279032   5.629   4.533  11.741  0.1816  0.1584 -0.0897
19206TIP3    H179033   5.546   4.566  11.708  0.8217  1.8211 -0.0743
19206TIP3    H279034   5.664   4.479  11.670 -1.7493 -2.0836  0.5954
19207TIP3   OH279035   5.197   6.282  12.426 -0.1959 -0.0856  0.6540
19207TIP3    H179036   5.149   6.231  12.361 -0.4751  1.3221 -0.2650
19207TIP3    H279037   5.272   6.318  12.379  0.8474 -0.8938  1.6723
19208TIP3   OH279038   4.266   4.427   2.119  0.0399  0.1305  0.1580
19208TIP3    H179039   4.199   4.393   2.179  0.1938  0.2662  0.4119
19208TIP3    H279040   4.348   4.391   2.153  0.1934  0.6814  0.3799
19209TIP3   OH279041   6.781   1.360  12.934 -0.7972  0.1406 -0.0154
19209TIP3    H179042   6.853   1.423  12.932  0.0773 -0.9031 -1.7620
19209TIP3    H279043   6.702   1.415  12.929 -0.1749  1.3056  2.1261
19210TIP3   OH279044   1.870   0.838  10.474  0.2909 -0.0782  0.2698
19210TIP3    H179045   1.845   0.896  10.546  0.9851 -0.2247  0.6285
19210TIP3    H279046   1.829   0.754  10.496  1.8258 -0.5733  1.3274
19211TIP3   OH279047   4.155   1.943   1.487  0.3230 -0.3162  0.4234
19211TIP3    H179048   4.173   1.876   1.422 -1.1873  0.7151 -1.0706
19211TIP3    H279049   4.095   1.902   1.549  0.4981 -0.7874  0.2794
19212TIP3   OH279050   1.357   1.027  13.111 -0.3866  0.1557  0.0722
19212TIP3    H179051   1.404   0.998  13.189 -1.4486  1.2439  1.1366
19212TIP3    H279052   1.416   1.006  13.038  0.4167 -1.2823  1.1207
19213TIP3   OH279053   1.421   4.718  13.216  0.1101 -0.0484  0.0237
19213TIP3    H179054   1.476   4.741  13.291 -0.1175 -0.8965  0.4477
19213TIP3    H279055   1.476   4.738  13.140  0.5886  0.1728  0.4226
19214TIP3   OH279056   4.060   6.785   2.765 -0.2644  0.2749 -0.0829
19214TIP3    H179057   4.035   6.873   2.793 -3.3452 -0.8749  1.0043
19214TIP3    H279058   4.061   6.734   2.846  0.2929 -0.9658 -0.8572
19215TIP3   OH279059   0.080   4.828   2.106  0.5068  0.3142  0.7659
19215TIP3    H179060   0.131   4.780   2.171  3.2826  1.2775 -0.6332
19215TIP3    H279061   0.035   4.896   2.156 -0.7047 -1.5304  2.2521
19216TIP3   OH279062   0.971   0.055   4.168  0.0052  0.0824  0.3292
19216TIP3    H179063   0.968   0.007   4.086  0.6802 -0.4864  0.6370
19216TIP3    H279064   1.060   0.091   4.172 -0.4169  1.1873  0.2019
19217TIP3   OH279065   6.690   1.879   2.326  0.1118 -0.3561  0.4432
19217TIP3    H179066   6.769   1.888   2.272  1.0367 -0.6651  1.7044
19217TIP3    H279067   6.618   1.884   2.264  1.1321 -0.2942 -0.7708
19218TIP3   OH279068   5.809   3.832   0.078  0.0745  0.3444 -0.4509
19218TIP3    H179069   5.874   3.793   0.019 -0.5958 -0.3772 -0.7233
19218TIP3    H279070   5.771   3.904   0.027 -0.5234 -0.2948 -0.9233
19219TIP3   OH279071   6.019   4.881  16.844  0.1345  0.5852  0.1761
19219TIP3    H179072   6.010   4.938  16.920 -0.1839  1.7050 -0.6881
19219TIP3    H279073   6.072   4.931  16.782 -0.4847  0.1131 -0.7483
19220TIP3   OH279074   4.730   5.724   0.183  0.1887  0.2293 -0.6297
19220TIP3    H179075   4.685   5.721   0.267  2.8489 -0.2908  0.8267
19220TIP3    H279076   4.722   5.815   0.154 -1.2325  0.2788 -0.1001
19221TIP3   OH279077   4.009   0.930   6.522  0.2096  0.0460 -0.5486
19221TIP3    H179078   4.053   0.994   6.578  0.3717 -0.0214 -0.5983
19221TIP3    H279079   4.026   0.846   6.564 -2.3325  0.2735  1.0522
19222TIP3   OH279080   4.463   3.269   4.374 -0.5643  0.2521 -0.6140
19222TIP3    H179081   4.497   3.341   4.428  1.5023 -1.0316 -0.1478
19222TIP3    H279082   4.522   3.264   4.299 -1.1946 -0.4137 -1.0780
19223TIP3   OH279083   4.758   5.378   2.430  0.1905  0.5487  0.0175
19223TIP3    H179084   4.752   5.290   2.468  0.2886 -0.1323 -1.4946
19223TIP3    H279085   4.826   5.370   2.363  0.3257  1.8300 -0.0125
19224TIP3   OH279086   2.099   2.417  15.037  0.1315 -0.0606  0.1328
19224TIP3    H179087   2.149   2.480  14.986 -0.2266  0.5222  0.4938
19224TIP3    H279088   2.112   2.334  14.992  1.0562  0.1678 -0.0321
19225TIP3   OH279089   2.409   3.709   4.612  0.0328  0.4710 -0.3873
19225TIP3    H179090   2.478   3.775   4.609  1.2561 -0.8334 -2.5094
19225TIP3    H279091   2.346   3.737   4.545 -1.3180  1.4173  1.2333
19226TIP3   OH279092   2.340   1.219   3.322  0.6984  0.1362  0.0846
19226TIP3    H179093   2.429   1.247   3.343  0.4213  1.1956 -0.1722
19226TIP3    H279094   2.284   1.271   3.380  0.1678  0.3444 -0.6103
19227TIP3   OH279095   3.255   4.034   2.291  0.8393 -0.3106  0.0982
19227TIP3    H179096   3.329   4.061   2.236  0.5400  1.8255  0.7019
19227TIP3    H279097   3.235   4.111   2.344 -1.7329 -0.9140  0.0515
19228TIP3   OH279098   4.265   4.227  14.583  0.1384 -0.7559 -0.3169
19228TIP3    H179099   4.346   4.257  14.624  1.1063 -3.7030  0.0246
19228TIP3    H279100   4.223   4.307  14.550  1.6007  1.1445  2.3117
19229TIP3   OH279101   5.636   1.208  12.885 -0.7906 -0.0844  0.0168
19229TIP3    H179102   5.643   1.303  12.893  0.3094 -0.1805  0.3934
19229TIP3    H279103   5.593   1.180  12.966  0.0053 -0.0102  0.4751
19230TIP3   OH279104   6.603   5.689  14.580  0.1169 -0.1104 -0.1624
19230TIP3    H179105   6.573   5.708  14.669 -0.0607 -1.3277  0.0417
19230TIP3    H279106   6.527   5.707  14.525  0.1417  0.3729 -0.0410
19231TIP3   OH279107   4.881   1.239  16.446 -0.0916  0.4454 -0.1507
19231TIP3    H179108   4.920   1.310  16.396  0.8364 -0.1427 -0.2804
19231TIP3    H279109   4.800   1.218  16.400 -0.4494  1.5234 -0.0205
19232TIP3   OH279110   3.185   2.303   1.273  0.0832 -0.1234 -0.1679
19232TIP3    H179111   3.224   2.387   1.249 -1.7748  0.9629  0.4886
19232TIP3    H279112   3.127   2.324   1.346  0.3930 -2.1769  0.6930
19233TIP3   OH279113   2.305   6.171  15.324  0.8013  0.0803  0.1265
19233TIP3    H179114   2.292   6.251  15.375  1.4917  0.6275 -0.5541
19233TIP3    H279115   2.247   6.180  15.249  2.0718  0.7101 -0.8135
19234TIP3   OH279116   0.707   0.040   2.299  0.0283  0.5897 -0.0320
19234TIP3    H179117   0.719   0.126   2.339  0.9163  0.2492  0.4449
19234TIP3    H279118   0.737   0.051   2.208  1.6307  0.3893  0.4600
19235TIP3   OH279119   3.236   1.079   1.957  0.3338  0.2370 -0.4485
19235TIP3    H179120   3.267   1.161   1.994  0.3794  1.4790 -3.1096
19235TIP3    H279121   3.309   1.018   1.970  0.2646  0.5460  1.6344
19236TIP3   OH279122   1.433   5.221  17.152 -0.2043  0.6944  0.1731
19236TIP3    H179123   1.357   5.180  17.195  1.0839 -0.4782  1.4086
19236TIP3    H279124   1.468   5.281  17.218  0.4878  0.5246 -0.0399
19237TIP3   OH279125   6.462   0.018   2.180 -0.3928  0.3561 -0.4169
19237TIP3    H179126   6.410   0.000   2.259  0.1723 -0.1125 -0.1482
19237TIP3    H279127   6.402   0.065   2.123 -0.0699  2.8769  1.2341
19238TIP3   OH279128   1.299   0.710   1.626  0.8336 -0.1606  0.0859
19238TIP3    H179129   1.244   0.729   1.551  0.1223  0.0381  0.6483
19238TIP3    H279130   1.252   0.642   1.674  0.7198  0.5028  0.9445
19239TIP3   OH279131   3.096   1.748   1.736  0.4078  0.3787 -1.1509
19239TIP3    H179132   3.055   1.817   1.789 -0.5449 -1.0636  0.0433
19239TIP3    H279133   3.025   1.715   1.681  0.1726 -1.3944  0.1486
19240TIP3   OH279134   3.024   3.298  15.780  0.3697  0.4752  0.4097
19240TIP3    H179135   2.945   3.345  15.805 -0.2309 -0.2470 -0.0878
19240TIP3    H279136   3.096   3.351  15.814 -0.3022  1.5374  0.1928
19241TIP3   OH279137   6.053   2.075   2.204  0.4528  0.3251 -0.6216
19241TIP3    H179138   6.104   2.128   2.265 -1.8354  1.2461  0.5874
19241TIP3    H279139   5.983   2.133   2.174 -2.2599 -1.9635  0.9017
19242TIP3   OH279140   5.616   0.942   5.499  0.0933  0.0593  0.2569
19242TIP3    H179141   5.662   0.949   5.583  1.9958 -0.1351 -0.7411
19242TIP3    H279142   5.635   1.025   5.455 -0.7848  0.1041 -0.0418
19243TIP3   OH279143   4.872   6.363  10.483  0.1130  0.7447 -0.2006
19243TIP3    H179144   4.790   6.315  10.475  0.8687 -0.6354  0.1831
19243TIP3    H279145   4.880   6.382  10.576  0.7402 -0.0649 -0.0801
19244TIP3   OH279146   0.320   3.898   5.244  0.1829 -0.5639 -0.6418
19244TIP3    H179147   0.390   3.944   5.198  1.3881 -1.6523  0.0553
19244TIP3    H279148   0.335   3.806   5.224  0.1589 -0.9663  1.1114
19245TIP3   OH279149   5.008   5.691  12.546 -0.6436 -0.1275 -0.3670
19245TIP3    H179150   4.922   5.733  12.541  0.3678  1.9443 -0.4991
19245TIP3    H279151   5.038   5.709  12.635 -0.3041 -0.7620 -0.3515
19246TIP3   OH279152   3.397   2.851  15.705  0.2962  0.0334 -0.2939
19246TIP3    H179153   3.306   2.822  15.714  1.1207 -2.0282  1.8755
19246TIP3    H279154   3.447   2.770  15.695  1.8268  1.1839 -2.5008
19247TIP3   OH279155   2.243   1.139   4.221 -0.3696 -0.1796  0.4264
19247TIP3    H179156   2.255   1.046   4.203 -1.4696 -0.4433  0.9955
19247TIP3    H279157   2.222   1.143   4.315  0.5616  0.7224  0.5980
19248TIP3   OH279158   2.584   5.290   3.982 -1.2023  0.5254  0.0491
19248TIP3    H179159   2.550   5.234   3.911 -2.5080  0.4564  0.7139
19248TIP3    H279160   2.589   5.232   4.058  0.6629  0.4800 -0.0987
19249TIP3   OH279161   0.902   0.212   4.413  0.1294  0.4789  0.2556
19249TIP3    H179162   0.934   0.142   4.356 -2.5082 -0.3066 -0.3200
19249TIP3    H279163   0.922   0.292   4.365  0.7679 -0.0110 -0.3152
19250TIP3   OH279164   5.570   6.398  17.028 -0.0670 -0.1758  0.3845
19250TIP3    H179165   5.651   6.442  17.054  0.1107 -0.6610  0.6697
19250TIP3    H279166   5.538   6.448  16.953 -0.5887  1.2643  1.5458
19251TIP3   OH279167   0.543   2.221   4.555  0.0314 -0.3826 -0.3422
19251TIP3    H179168   0.591   2.139   4.542  1.9718  0.8630 -1.2329
19251TIP3    H279169   0.477   2.220   4.485  0.5188 -0.8446 -0.8052
19252TIP3   OH279170   0.980   6.621   5.985  0.0300 -0.5948 -0.5814
19252TIP3    H179171   1.036   6.665   5.921  0.5172 -0.5845 -0.1573
19252TIP3    H279172   1.014   6.532   5.989 -0.7882 -0.9440 -1.2482
19253TIP3   OH279173   1.177   0.302   1.989 -0.0851  0.6251 -0.2279
19253TIP3    H179174   1.166   0.222   1.938 -2.3221  0.0337  1.0942
19253TIP3    H279175   1.269   0.301   2.016  0.7126  0.1158 -2.7972
19254TIP3   OH279176   1.189   4.029   2.731  0.0728  0.6540  0.4522
19254TIP3    H179177   1.115   4.080   2.764  0.7759  2.0607 -0.1053
19254TIP3    H279178   1.231   4.087   2.667  1.6259 -0.1478  0.7309
19255TIP3   OH279179   4.016   1.693   0.725 -0.2223 -0.4100 -0.5496
19255TIP3    H179180   4.106   1.663   0.719 -0.5953 -1.3450 -1.8082
19255TIP3    H279181   4.005   1.753   0.652 -0.3382  0.4836  0.1942
19256TIP3   OH279182   3.359   1.007   5.955  0.4068  0.1330  0.5021
19256TIP3    H179183   3.325   0.960   6.031  0.3217  0.7347  0.8297
19256TIP3    H279184   3.431   1.060   5.988  0.9006 -0.2247  0.0189
19257TIP3   OH279185   1.523   3.866  16.590 -0.2438 -0.2182  0.0441
19257TIP3    H179186   1.564   3.817  16.519 -2.9616  0.7852 -2.3308
19257TIP3    H279187   1.586   3.934  16.612  0.6014 -0.4764 -1.5062
19258TIP3   OH279188   1.505   5.733  17.161  0.0007 -0.3610  0.4663
19258TIP3    H179189   1.529   5.738  17.254  3.4310  0.9823 -0.4112
19258TIP3    H279190   1.460   5.816  17.143  0.4874 -0.0591  0.6328
19259TIP3   OH279191   5.265   0.919  14.688  0.0694  0.3725 -0.4537
19259TIP3    H179192   5.207   0.978  14.735  0.6453  0.4918  0.1169
19259TIP3    H279193   5.322   0.883  14.756  0.7192  0.3288 -1.0195
19260TIP3   OH279194   0.418   2.310  14.601 -0.2817  0.2403  0.5670
19260TIP3    H179195   0.389   2.298  14.511 -0.0145 -0.0472  0.5174
19260TIP3    H279196   0.344   2.351  14.645 -0.5115  0.1327  0.2809
19261TIP3   OH279197   1.346   5.374  12.870 -0.1960  0.2696  0.7092
19261TIP3    H179198   1.320   5.444  12.810  2.8698 -0.4724 -1.6416
19261TIP3    H279199   1.299   5.297  12.840 -0.5227  0.4360  0.7927
19262TIP3   OH279200   6.781   2.198   5.303  0.1912  0.6531  0.0227
19262TIP3    H179201   6.778   2.166   5.393 -0.6118  0.5385 -0.0447
19262TIP3    H279202   6.843   2.139   5.259 -0.8178 -0.4398  0.0455
19263TIP3   OH279203   3.764   2.759   4.163 -0.6430 -0.0792 -0.6677
19263TIP3    H179204   3.694   2.697   4.186 -1.2908  1.3539  1.4082
19263TIP3    H279205   3.845   2.712   4.183 -1.1654  0.4771  3.1042
19264TIP3   OH279206   4.271   3.677  15.732 -0.2141  0.1355  0.2692
19264TIP3    H179207   4.251   3.646  15.820 -0.7498 -1.8715 -0.5232
19264TIP3    H279208   4.221   3.758  15.722 -0.9726 -0.1934  1.4334
19265TIP3   OH279209   0.126   4.836  13.766 -0.2941  0.6082 -0.5515
19265TIP3    H179210   0.097   4.924  13.742 -0.3457  1.0886  1.2005
19265TIP3    H279211   0.118   4.785  13.685 -2.0920  1.7457 -1.1201
19266TIP3   OH279212   1.018   2.340  14.450 -0.9122  0.0486 -0.0464
19266TIP3    H179213   1.103   2.378  14.475 -1.5570  0.5413  1.4284
19266TIP3    H279214   0.969   2.413  14.413 -1.2595  0.0965  0.5177
19267TIP3   OH279215   3.071   4.044   4.766  0.2117 -0.7000  0.5087
19267TIP3    H179216   2.994   4.095   4.791  0.0723 -0.2585 -0.7587
19267TIP3    H279217   3.102   4.005   4.847 -1.0025 -0.3961  1.1262
19268TIP3   OH279218   1.176   5.637   3.883 -0.3903  0.0463 -0.4063
19268TIP3    H179219   1.174   5.607   3.792 -0.2811  0.6955 -0.6263
19268TIP3    H279220   1.089   5.675   3.897  0.3842  2.1801 -1.0209
19269TIP3   OH279221   6.135   3.828   0.042  0.2290  0.3513  0.2263
19269TIP3    H179222   6.215   3.776   0.036 -0.9850 -1.4988 -0.3290
19269TIP3    H279223   6.092   3.817  -0.043 -0.0647  2.2692  0.0961
19270TIP3   OH279224   0.468   6.489   0.278  0.4813 -0.4506  0.4042
19270TIP3    H179225   0.497   6.574   0.312 -0.4866  0.1811 -0.3198
19270TIP3    H279226   0.476   6.497   0.183 -0.8639 -0.6964  0.2597
19271TIP3   OH279227   2.276   0.851   4.176  0.3886 -0.8950  0.0618
19271TIP3    H179228   2.203   0.792   4.194 -0.2460 -0.0334  0.3699
19271TIP3    H279229   2.313   0.869   4.262 -0.7717  0.8508  0.2179
19272TIP3   OH279230   5.700   0.264  10.506 -0.3821 -0.0943  0.1621
19272TIP3    H179231   5.773   0.242  10.563 -0.3997 -3.2346 -0.9409
19272TIP3    H279232   5.622   0.243  10.557 -0.5665  2.9984  1.2375
19273TIP3   OH279233   0.515   2.158   4.127  0.2758  0.3350  0.3372
19273TIP3    H179234   0.516   2.172   4.032  1.1408 -0.8373  0.1584
19273TIP3    H279235   0.598   2.196   4.157  1.5634 -2.2699  0.1570
19274TIP3   OH279236   5.191   5.934   5.413 -0.5612 -0.0440  0.5795
19274TIP3    H179237   5.109   5.917   5.368 -0.3864  2.9055 -0.9583
19274TIP3    H279238   5.250   5.864   5.383 -1.7358 -0.6794 -0.2838
19275TIP3   OH279239   5.213   2.000   4.878 -0.2679 -0.1194 -0.2680
19275TIP3    H179240   5.171   2.079   4.846  0.9522  0.5720 -0.1807
19275TIP3    H279241   5.227   1.946   4.799 -3.2163 -1.2912 -0.0330
19276TIP3   OH279242   2.040   4.323   5.093 -0.6214  0.4258  0.0960
19276TIP3    H179243   2.072   4.283   5.174 -0.1001 -1.1865 -0.8816
19276TIP3    H279244   1.945   4.329   5.105 -0.4448  1.1193  1.2232
19277TIP3   OH279245   5.107   1.831  13.118 -0.2780 -0.1147 -0.1507
19277TIP3    H179246   5.152   1.850  13.035 -0.9147  1.3690 -0.1617
19277TIP3    H279247   5.054   1.909  13.135 -0.4698 -0.5857  1.4445
19278TIP3   OH279248   2.741   6.633  16.939  0.1634 -0.2126 -0.5045
19278TIP3    H179249   2.688   6.630  16.859  0.9821 -2.0219 -0.9863
19278TIP3    H279250   2.817   6.578  16.920  1.3380  0.9004  0.8361
19279TIP3   OH279251   1.567   2.319  16.937 -0.2707 -0.0172  0.7757
19279TIP3    H179252   1.533   2.275  17.015  1.2104  0.3360  1.6374
19279TIP3    H279253   1.645   2.365  16.968 -1.6306  3.0828 -0.1229
19280TIP3   OH279254   3.478   4.920   0.188  0.1043  0.0201  0.0141
19280TIP3    H179255   3.450   5.011   0.198 -1.3992 -0.4157 -0.0715
19280TIP3    H279256   3.556   4.912   0.243 -0.8157  0.8818  1.4624
19281TIP3   OH279257   0.735   3.653   4.001  0.3889  0.2750 -0.1200
19281TIP3    H179258   0.709   3.585   4.064 -0.2115 -0.3013 -0.9816
19281TIP3    H279259   0.827   3.671   4.022 -0.6147  2.2941  2.9200
19282TIP3   OH279260   5.073   3.447  14.602  0.0565  0.0617  0.8367
19282TIP3    H179261   5.164   3.428  14.578 -0.5750 -0.5909 -1.1396
19282TIP3    H279262   5.022   3.422  14.525 -1.8075  0.4488  1.9104
19283TIP3   OH279263   5.621   0.551   5.075 -0.1249  0.3739  0.2331
19283TIP3    H179264   5.578   0.623   5.030  0.4828  0.6341  0.0564
19283TIP3    H279265   5.623   0.578   5.167 -1.4651 -0.2084  0.4378
19284TIP3   OH279266   2.907   4.437  11.859  0.0699 -0.1476 -0.1472
19284TIP3    H179267   2.979   4.377  11.875 -0.3528 -0.6340 -0.0690
19284TIP3    H279268   2.852   4.393  11.794 -0.7356 -0.2575  0.6025
19285TIP3   OH279269   1.855   3.519  12.705  0.0079 -0.1602 -0.5997
19285TIP3    H179270   1.947   3.493  12.708  0.5152  1.4998 -1.1091
19285TIP3    H279271   1.807   3.438  12.688  1.3846 -1.0068 -0.5098
19286TIP3   OH279272   4.853   4.551   1.527 -0.1061 -0.1780 -0.4216
19286TIP3    H179273   4.783   4.555   1.593 -0.1542 -0.0553 -0.4793
19286TIP3    H279274   4.858   4.640   1.493  0.8917  0.0936  0.4245
19287TIP3   OH279275   3.925   1.041   1.566 -0.7346  0.4747  0.1612
19287TIP3    H179276   3.898   0.963   1.518 -1.0138 -0.2843  1.5352
19287TIP3    H279277   3.879   1.113   1.523 -0.1919 -0.0626 -1.3428
19288TIP3   OH279278   4.432   4.038  16.511 -0.6142  0.2494 -0.0888
19288TIP3    H179279   4.478   4.119  16.489 -1.1450  1.2004  2.2230
19288TIP3    H279280   4.344   4.049  16.476 -0.7385  0.7640  0.3742
19289TIP3   OH279281   1.481   6.256   4.421  0.0251  0.1991 -0.3214
19289TIP3    H179282   1.572   6.285   4.414  0.7006 -0.9700  2.7330
19289TIP3    H279283   1.487   6.160   4.420 -0.8895  0.0814  2.2488
19290TIP3   OH279284   5.615   1.828  16.101 -1.0735 -0.0227 -0.0407
19290TIP3    H179285   5.560   1.750  16.101  0.5753 -1.2427  2.3924
19290TIP3    H279286   5.597   1.870  16.185  0.5332  0.4059  0.1055
19291TIP3   OH279287   5.830   3.298  12.076  0.0347 -0.0195 -0.0675
19291TIP3    H179288   5.832   3.217  12.127 -0.1062  0.4375  0.6659
19291TIP3    H279289   5.837   3.368  12.141 -2.5217  0.6454 -0.4385
19292TIP3   OH279290   6.177   3.183  15.037 -0.1737 -0.4729  0.4266
19292TIP3    H179291   6.210   3.123  14.970  1.8976 -0.5612  1.4781
19292TIP3    H279292   6.115   3.131  15.087 -1.6484 -0.4457 -1.3337
19293TIP3   OH279293   3.906   5.247   1.001 -0.1681  0.3485  0.4650
19293TIP3    H179294   3.999   5.232   0.986  0.0921  0.8241  1.4782
19293TIP3    H279295   3.878   5.301   0.927  0.2543 -0.1599 -0.0713
19294TIP3   OH279296   0.373   5.554  15.893 -0.5519 -0.0212 -0.5972
19294TIP3    H179297   0.360   5.488  15.961 -0.6762  0.8744  0.2640
19294TIP3    H279298   0.368   5.506  15.811 -0.5078 -1.1020  0.0281
19295TIP3   OH279299   3.386   0.239   5.241 -0.5805  0.2011 -0.6392
19295TIP3    H179300   3.389   0.206   5.331  0.1103 -2.3268 -1.5454
19295TIP3    H279301   3.295   0.227   5.215 -0.2803 -1.3397 -1.0537
19296TIP3   OH279302   2.931   2.358  15.710 -0.3811  0.5835  0.2130
19296TIP3    H179303   2.941   2.275  15.757 -0.1753  0.0026 -0.8392
19296TIP3    H279304   2.858   2.402  15.754  0.1771  0.3141  1.4367
19297TIP3   OH279305   2.864   3.679  14.822 -0.2741  0.3469  0.0846
19297TIP3    H179306   2.787   3.734  14.836  1.4241  2.3695  1.7512
19297TIP3    H279307   2.892   3.654  14.910  1.1752 -0.0755 -0.4845
19298TIP3   OH279308   6.002   4.731   3.701  0.1270 -0.4473 -0.1657
19298TIP3    H179309   5.971   4.724   3.611  0.3134 -1.4562 -0.1584
19298TIP3    H279310   5.978   4.648   3.741 -0.2242  0.1144  0.8056
19299TIP3   OH279311   5.475   0.099   5.703 -0.0338  0.5362  0.3836
19299TIP3    H179312   5.508   0.019   5.661  0.7706 -0.1998  2.3310
19299TIP3    H279313   5.420   0.140   5.636  3.0768  0.6765 -2.2062
19300TIP3   OH279314   5.935   0.288   4.033  0.4002 -0.1386  0.0005
19300TIP3    H179315   5.850   0.286   4.078  0.8578 -1.0355  0.8418
19300TIP3    H279316   5.938   0.205   3.986  1.6260 -0.9613  1.5062
19301TIP3   OH279317   3.079   3.164   0.996 -0.0620 -0.6428  0.7489
19301TIP3    H179318   3.151   3.227   0.992  1.6444 -2.6509 -1.6721
19301TIP3    H279319   3.033   3.174   0.913 -1.9820 -0.0964  1.8603
19302TIP3   OH279320   5.445   1.755  15.517  0.4045  0.3923 -0.0442
19302TIP3    H179321   5.396   1.834  15.494  0.2966  0.1178 -0.7606
19302TIP3    H279322   5.444   1.702  15.437  1.1483  0.0184  0.1913
19303TIP3   OH279323   0.868   5.632  13.849 -0.2020 -0.3190 -0.7151
19303TIP3    H179324   0.902   5.555  13.803 -0.0162  0.0258 -1.1560
19303TIP3    H279325   0.825   5.596  13.926  0.1024 -0.8499 -0.7880
19304TIP3   OH279326   6.581   1.903   1.869 -0.6813  0.3806  0.3996
19304TIP3    H179327   6.652   1.867   1.922  0.3271  1.1153 -0.4253
19304TIP3    H279328   6.540   1.827   1.828 -0.6174 -0.0748  1.1669
19305TIP3   OH279329   1.835   0.367  16.449  0.1436  0.2893  0.2766
19305TIP3    H179330   1.786   0.304  16.501  1.2338 -0.2385  0.6829
19305TIP3    H279331   1.776   0.390  16.377 -0.6905 -0.3278  0.7577
19306TIP3   OH279332   0.304   0.996   3.735 -0.0864 -0.7258 -0.1326
19306TIP3    H179333   0.375   1.059   3.723 -0.7389  0.3711  1.6883
19306TIP3    H279334   0.348   0.916   3.763  0.4149  0.0047  1.1674
19307TIP3   OH279335   4.271   5.599  12.857  0.2996 -0.2070 -0.1118
19307TIP3    H179336   4.178   5.597  12.835  0.2359  0.4246  0.0756
19307TIP3    H279337   4.305   5.514  12.829  0.2334  0.6004 -2.7531
19308TIP3   OH279338   3.508   6.245  11.678 -0.1890 -0.3472 -0.2639
19308TIP3    H179339   3.546   6.277  11.760 -2.1707 -1.7951  1.2923
19308TIP3    H279340   3.561   6.168  11.655 -1.1540 -1.4250  1.0398
19309TIP3   OH279341   1.534   3.528   4.087 -0.5907 -0.4416 -0.5536
19309TIP3    H179342   1.455   3.579   4.069 -1.3288 -1.5574 -0.4918
19309TIP3    H279343   1.587   3.538   4.008 -0.0263  1.6823  0.0493
19310TIP3   OH279344   0.380   4.218  17.056  0.5573  0.0086  0.3469
19310TIP3    H179345   0.330   4.141  17.083  0.0645  0.2544  0.1433
19310TIP3    H279346   0.470   4.197  17.079  0.6677 -1.2972 -1.1824
19311TIP3   OH279347   2.306   3.407  15.839  0.0538 -0.4767 -0.4211
19311TIP3    H179348   2.257   3.329  15.813  0.5415 -0.5408 -1.1594
19311TIP3    H279349   2.314   3.400  15.934 -0.6405 -0.8888 -0.3882
19312TIP3   OH279350   3.739   0.343  11.834 -0.3705  0.4539 -0.1990
19312TIP3    H179351   3.828   0.369  11.857 -0.2561  0.1484 -0.2967
19312TIP3    H279352   3.685   0.416  11.863 -0.3881 -0.5388  2.3914
19313TIP3   OH279353   5.120   4.543   0.159 -0.2615 -0.6595 -0.0457
19313TIP3    H179354   5.198   4.487   0.169  0.3467  0.1400 -0.2589
19313TIP3    H279355   5.067   4.524   0.236  0.9872  0.1086  1.0328
19314TIP3   OH279356   1.598   5.364  11.013 -0.8393 -0.3039 -0.3123
19314TIP3    H179357   1.505   5.361  11.034 -1.0508 -0.8829 -1.3028
19314TIP3    H279358   1.601   5.400  10.924 -0.0189  1.2778  0.3280
19315TIP3   OH279359   3.490   6.696   5.161 -0.5099 -0.3922 -0.3383
19315TIP3    H179360   3.461   6.604   5.158  0.2800 -0.6747  0.5355
19315TIP3    H279361   3.431   6.741   5.100 -0.4519 -1.6001 -1.3116
19316TIP3   OH279362   2.713   0.343   3.244 -0.1407  0.0038 -0.4060
19316TIP3    H179363   2.660   0.335   3.164  0.1908  0.9732 -0.7396
19316TIP3    H279364   2.667   0.290   3.309 -1.6554  0.9952 -0.6296
19317TIP3   OH279365   0.294   2.825   3.233 -0.0380  0.3315 -0.0437
19317TIP3    H179366   0.317   2.788   3.148 -0.1050 -0.4986  0.2990
19317TIP3    H279367   0.356   2.897   3.245  0.5649 -0.1268 -0.3869
19318TIP3   OH279368   4.358   3.595  16.368 -0.5470  0.0061 -0.1588
19318TIP3    H179369   4.287   3.596  16.432 -0.0271 -0.6247  0.4311
19318TIP3    H279370   4.429   3.643  16.411 -0.2739 -0.2295 -0.3507
19319TIP3   OH279371   3.574   5.454   0.816  0.3955 -0.3694 -0.0246
19319TIP3    H179372   3.523   5.532   0.796  0.1024  0.1588  2.5357
19319TIP3    H279373   3.542   5.427   0.902  2.5573 -1.6051  0.4116
19320TIP3   OH279374   6.639   4.599  15.290  0.2619 -0.7762 -0.2529
19320TIP3    H179375   6.650   4.581  15.196  0.9915 -0.8956 -0.1454
19320TIP3    H279376   6.574   4.669  15.293 -0.0227 -1.0080 -0.8329
19321TIP3   OH279377   5.113   1.006   3.521 -0.6259  0.6331  0.7478
19321TIP3    H179378   5.117   1.052   3.605  0.5202  1.3185  0.3404
19321TIP3    H279379   5.194   1.032   3.476 -0.2444 -1.3311  0.2681
19322TIP3   OH279380   1.559   5.566   5.082  0.1968  0.1768 -0.0031
19322TIP3    H179381   1.577   5.605   4.996 -1.1884  2.3553  0.6357
19322TIP3    H279382   1.510   5.486   5.062  0.5017  0.2997 -1.2759
19323TIP3   OH279383   5.619   5.400  12.212 -0.2573 -0.3309 -0.7252
19323TIP3    H179384   5.545   5.459  12.227  1.1849  0.6936  2.7638
19323TIP3    H279385   5.592   5.317  12.252  0.2304 -0.1331  0.0199
19324TIP3   OH279386   1.629   5.349   3.747 -0.1894  0.6078 -0.1887
19324TIP3    H179387   1.629   5.339   3.842 -0.9610  1.0375 -0.1391
19324TIP3    H279388   1.693   5.418   3.730 -1.9767  2.3811  0.2262
19325TIP3   OH279389   5.706   5.169   3.366  0.0028  0.0097  0.2722
19325TIP3    H179390   5.649   5.244   3.382  1.5623  1.2274  0.1896
19325TIP3    H279391   5.645   5.097   3.346 -1.4690  1.6269 -1.3431
19326TIP3   OH279392   2.307   0.680   5.024  0.1983  0.2323 -0.0711
19326TIP3    H179393   2.239   0.730   5.069  0.7227  1.5962 -0.7620
19326TIP3    H279394   2.361   0.643   5.094 -0.6942 -0.0675  0.4587
19327TIP3   OH279395   6.032   2.520   5.710 -0.1392 -0.4021 -0.4485
19327TIP3    H179396   5.985   2.451   5.756  0.5583 -1.6871 -1.6105
19327TIP3    H279397   5.999   2.602   5.748 -0.6780 -1.3761  1.2391
19328TIP3   OH279398   2.993   3.144   5.422  0.2934 -0.2429 -0.5854
19328TIP3    H179399   2.989   3.082   5.495  1.8014  0.6606  0.2977
19328TIP3    H279400   3.043   3.217   5.457  0.1975  0.6155 -2.2455
19329TIP3   OH279401   0.300   6.164   3.231  0.7124  0.2586  0.5114
19329TIP3    H179402   0.284   6.258   3.242 -1.0248 -0.0447  0.6411
19329TIP3    H279403   0.320   6.133   3.319 -1.4279  0.0230  0.9429
19330TIP3   OH279404   0.838   4.162  13.361 -0.3029  0.2725  0.4898
19330TIP3    H179405   0.915   4.202  13.401 -0.0138  1.8108 -1.5432
19330TIP3    H279406   0.787   4.236  13.328  0.6293 -0.9770 -4.0496
19331TIP3   OH279407   1.954   0.151  15.961 -0.5538  0.1736 -0.7963
19331TIP3    H179408   1.941   0.081  15.898 -1.1133 -1.2937  0.9191
19331TIP3    H279409   1.866   0.177  15.988 -0.3150  0.5311 -0.3363
19332TIP3   OH279410   5.396   5.226  12.438 -0.4696 -0.1817 -0.1004
19332TIP3    H179411   5.451   5.186  12.371 -0.7433  1.3413 -1.2724
19332TIP3    H279412   5.317   5.253  12.390 -0.9976  0.2407  0.9946
19333TIP3   OH279413   6.097   1.195   2.921  0.4894  0.0698 -0.5597
19333TIP3    H179414   6.060   1.278   2.891  0.0157  0.7532  1.8410
19333TIP3    H279415   6.022   1.135   2.924  0.3334  0.3014  0.2753
19334TIP3   OH279416   3.035   2.568  12.259  0.4049 -0.2365 -0.6479
19334TIP3    H179417   3.105   2.600  12.203  0.3554  1.4165  0.1974
19334TIP3    H279418   2.985   2.646  12.282 -0.7448 -1.1675  0.0815
19335TIP3   OH279419   3.684   1.692  13.761  0.8537  0.0627  0.1558
19335TIP3    H179420   3.764   1.724  13.720  0.0174  1.1084 -0.6834
19335TIP3    H279421   3.614   1.743  13.721 -0.1610 -0.2043  1.5388
19336TIP3   OH279422   3.898   6.693   1.450  0.4283  0.0547  0.0984
19336TIP3    H179423   3.816   6.689   1.400  0.0011  0.6535  0.7533
19336TIP3    H279424   3.950   6.760   1.406 -0.3073  1.2185  0.9862
19337TIP3   OH279425   4.751   2.227   1.846 -0.1987 -0.3787 -0.1830
19337TIP3    H179426   4.728   2.296   1.908 -0.3699 -1.6425  1.1808
19337TIP3    H279427   4.690   2.240   1.772  2.9389  3.9322 -2.2545
19338TIP3   OH279428   1.477   0.953   1.672 -0.5857  0.0259  0.0251
19338TIP3    H179429   1.420   0.877   1.679  1.4482 -1.7751 -2.1898
19338TIP3    H279430   1.426   1.017   1.622 -1.3601 -0.8602 -0.3275
19339TIP3   OH279431   0.941   5.777   0.470 -0.0244 -0.4110 -0.2278
19339TIP3    H179432   0.898   5.853   0.431  0.0866  0.3025  0.9904
19339TIP3    H279433   0.990   5.813   0.544  0.9514 -1.5197 -0.3261
19340TIP3   OH279434   4.394   5.227  16.763  0.1417 -0.4203 -0.4672
19340TIP3    H179435   4.360   5.169  16.831  0.9428 -0.4937 -0.1318
19340TIP3    H279436   4.456   5.172  16.714  0.9833  0.1981 -0.0819
19341TIP3   OH279437   4.057   0.020  16.705  0.1846 -0.3638 -0.4865
19341TIP3    H179438   3.964   0.003  16.685  0.4202 -2.4997  0.1132
19341TIP3    H279439   4.059   0.033  16.799  0.2891  1.3026 -0.7027
19342TIP3   OH279440   0.056   5.755  12.700  0.2964 -0.8145  0.0775
19342TIP3    H179441   0.031   5.754  12.792 -3.9123 -0.8182 -0.9469
19342TIP3    H279442   0.020   5.674  12.664  0.6037 -0.1294 -1.8365
19343TIP3   OH279443   3.714   1.110  15.390  0.2409  0.1337 -0.4729
19343TIP3    H179444   3.747   1.148  15.309 -0.4395  2.3895  0.2658
19343TIP3    H279445   3.619   1.119  15.385  0.2264  0.8748  0.8469
19344TIP3   OH279446   3.093   2.037   0.583 -0.1979 -0.2466  0.1477
19344TIP3    H179447   3.125   1.973   0.647 -0.3259 -1.3170 -0.8407
19344TIP3    H279448   3.009   2.000   0.553 -3.1379  3.1339  3.6948
19345TIP3   OH279449   6.081   2.863  12.131 -0.3560 -0.0460  0.0519
19345TIP3    H179450   6.029   2.791  12.096 -0.4397 -0.0134  0.1063
19345TIP3    H279451   6.016   2.920  12.174 -0.3978  0.4989 -0.7268
19346TIP3   OH279452   2.339   4.049   4.909 -0.1094 -0.0622  0.4883
19346TIP3    H179453   2.252   4.031   4.873 -0.6150  0.7487  1.2895
19346TIP3    H279454   2.367   4.130   4.866  1.0769 -1.3270 -1.1979
19347TIP3   OH279455   3.910   2.409  12.484  0.2357  0.0839 -0.1776
19347TIP3    H179456   4.005   2.401  12.490  0.1686 -2.7679 -2.3431
19347TIP3    H279457   3.877   2.330  12.526 -1.2126  0.9750  0.3979
19348TIP3   OH279458   6.581   5.924   2.540  0.3563  0.6940  0.6039
19348TIP3    H179459   6.667   5.925   2.582 -0.0702  0.1315  1.5044
19348TIP3    H279460   6.593   5.869   2.463  0.7926  0.5628  0.7605
19349TIP3   OH279461   0.053   2.631   3.907  0.4367  0.3782  0.1356
19349TIP3    H179462   0.063   2.697   3.839 -2.1242  1.7827  1.0556
19349TIP3    H279463   0.007   2.559   3.865  1.9039 -0.2214 -0.4779
19350TIP3   OH279464   5.584   6.648   1.522  0.3638 -0.4130  0.1135
19350TIP3    H179465   5.650   6.647   1.592  2.9743 -0.4195 -2.2481
19350TIP3    H279466   5.500   6.646   1.568  1.9934 -0.3905  3.2328
19351TIP3   OH279467   3.459   0.243  15.948  0.1741  0.4269 -0.1512
19351TIP3    H179468   3.508   0.195  16.014  0.1057  1.4627  0.6565
19351TIP3    H279469   3.450   0.332  15.984  0.9694  1.2756 -1.9505
19352TIP3   OH279470   0.835   3.728   3.255  0.0916 -0.0498 -0.1655
19352TIP3    H179471   0.785   3.779   3.319  0.2321 -0.3843  0.2105
19352TIP3    H279472   0.768   3.696   3.194 -0.1186 -0.2162  0.1470
19353TIP3   OH279473   5.885   4.222   2.609 -0.0697 -0.2763  0.3052
19353TIP3    H179474   5.855   4.267   2.688  0.2542  1.5584 -0.5982
19353TIP3    H279475   5.974   4.195   2.629  0.6276  1.7110 -0.0322
19354TIP3   OH279476   6.280   1.968  14.629  0.1256  0.5475  0.2271
19354TIP3    H179477   6.330   2.002  14.555  0.3192 -0.0054  0.0959
19354TIP3    H279478   6.306   2.022  14.704  0.2893  0.7942 -0.0106
19355TIP3   OH279479   6.671   6.269  15.949  0.1313 -0.1170  0.2513
19355TIP3    H179480   6.691   6.256  16.042 -1.3854 -0.0682  0.6029
19355TIP3    H279481   6.702   6.358  15.931 -0.6185  0.3072  1.0121
19356TIP3   OH279482   4.803   1.060   2.254  0.1493 -0.2019  0.7397
19356TIP3    H179483   4.736   1.012   2.206 -0.1373 -0.8565  1.7682
19356TIP3    H279484   4.869   0.993   2.277  0.8101  0.3046  0.3193
19357TIP3   OH279485   4.269   2.050  12.153  0.0522 -0.3687  0.3615
19357TIP3    H179486   4.205   2.104  12.107  1.1713 -0.1090 -0.9094
19357TIP3    H279487   4.336   2.112  12.183  1.0468 -0.9516 -0.6094
19358TIP3   OH279488   0.665   0.006  10.386 -0.1384  0.0279  0.2407
19358TIP3    H179489   0.601  -0.050  10.343  0.2254 -2.7919  3.2038
19358TIP3    H279490   0.614   0.077  10.425 -1.2881 -1.3662  1.2967
19359TIP3   OH279491   4.352   1.793  10.250 -0.2106 -0.3799 -0.7411
19359TIP3    H179492   4.357   1.700  10.230  3.2182 -1.1215  2.7843
19359TIP3    H279493   4.415   1.834  10.191  0.0231 -0.6372 -0.6707
19360TIP3   OH279494   0.131   1.332   0.412 -0.0336 -0.0963  0.0729
19360TIP3    H179495   0.148   1.324   0.318 -0.5391  1.3294 -0.1583
19360TIP3    H279496   0.182   1.261   0.452 -0.2149 -1.0317 -1.3112
19361TIP3   OH279497   5.920   1.544   4.606 -0.1185  0.3936  0.3462
19361TIP3    H179498   5.935   1.596   4.528 -0.1654 -1.0255 -0.6249
19361TIP3    H279499   5.849   1.484   4.582  0.2280 -0.4132  1.2931
19362TIP3   OH279500   2.569   0.774  13.530 -0.1631 -0.4052 -0.3513
19362TIP3    H179501   2.570   0.769  13.434  1.9030  1.7469 -0.5002
19362TIP3    H279502   2.532   0.860  13.549 -0.4965 -0.7983  0.7872
19363TIP3   OH279503   2.919   5.993  13.661 -0.2786  0.1985 -0.9013
19363TIP3    H179504   2.842   5.936  13.654  0.4803 -0.7063 -1.9993
19363TIP3    H279505   2.936   5.999  13.755 -0.8684 -0.6958 -0.7319
19364TIP3   OH279506   4.442   5.292  16.459  0.3280 -0.0530  0.3221
19364TIP3    H179507   4.457   5.374  16.505 -0.6485 -1.5459  3.4122
19364TIP3    H279508   4.410   5.232  16.526 -1.5644 -2.2075 -2.3832
19365TIP3   OH279509   2.260   5.474  15.074 -0.4291  0.3981 -0.2159
19365TIP3    H179510   2.343   5.501  15.112  0.0445 -0.6676 -0.4623
19365TIP3    H279511   2.263   5.504  14.983  0.2409 -0.7458 -0.5857
19366TIP3   OH279512   1.148   3.145  14.294 -0.3658  0.2935  0.2858
19366TIP3    H179513   1.094   3.131  14.372  0.9654  0.8910  1.3307
19366TIP3    H279514   1.234   3.170  14.328  0.9514 -1.8998 -1.3251
19367TIP3   OH279515   3.491   0.075  14.886  0.5492 -0.7587 -0.3823
19367TIP3    H179516   3.452   0.109  14.967  1.3338  1.6165 -0.9423
19367TIP3    H279517   3.553   0.008  14.915  2.4902  1.6235  1.2367
19368TIP3   OH279518   4.474   1.871  14.177  0.5138  0.8628  0.3001
19368TIP3    H179519   4.427   1.795  14.211 -0.0166  1.3408  0.6415
19368TIP3    H279520   4.412   1.915  14.120  0.9261  0.8657 -0.1486
19369TIP3   OH279521   2.844   1.782   3.275 -0.2984  0.0226 -0.3458
19369TIP3    H179522   2.879   1.701   3.236 -1.5622 -1.7138  1.9628
19369TIP3    H279523   2.767   1.803   3.222 -0.7888 -1.1470 -0.1323
19370TIP3   OH279524   5.850   4.644   5.567  0.3579  0.3715  0.1134
19370TIP3    H179525   5.918   4.679   5.510 -0.1094  0.1775 -0.5573
19370TIP3    H279526   5.844   4.552   5.544 -1.5088  0.8050 -1.1940
19371TIP3   OH279527   6.129   1.020  16.881 -0.0022 -0.3939  0.0757
19371TIP3    H179528   6.147   1.079  16.808  0.2558 -1.2581 -0.5734
19371TIP3    H279529   6.149   0.933  16.846 -1.0427 -0.9264  0.8027
19372TIP3   OH279530   3.184   5.034  17.213 -0.2350 -0.1232  1.0466
19372TIP3    H179531   3.210   5.076  17.130  1.8167 -1.1359  1.1628
19372TIP3    H279532   3.211   5.097  17.280  0.9054 -0.6552  1.0999
19373TIP3   OH279533   4.104   0.204   1.747  0.0795 -0.4857  0.1952
19373TIP3    H179534   4.061   0.275   1.795 -3.4478 -1.5528 -1.2986
19373TIP3    H279535   4.069   0.210   1.658  2.5716 -1.8042 -0.9189
19374TIP3   OH279536   5.286   6.778   4.793  0.2081  0.1373  0.0817
19374TIP3    H179537   5.218   6.793   4.859 -0.1057 -0.5237 -0.0882
19374TIP3    H279538   5.368   6.785   4.842 -0.0336 -0.6774  0.6149
19375TIP3   OH279539   1.606   5.709   3.744  0.5843 -0.1552 -0.1227
19375TIP3    H179540   1.657   5.790   3.742 -1.4413  1.1687 -0.5795
19375TIP3    H279541   1.649   5.651   3.681 -0.1959  2.0501 -2.8187
19376TIP3   OH279542   4.122   1.785  16.277 -0.3993 -0.1116  0.5214
19376TIP3    H179543   4.088   1.825  16.357  1.2750  0.5287  0.9480
19376TIP3    H279544   4.213   1.763  16.298 -0.1961 -0.7610 -0.9226
19377TIP3   OH279545   1.609   5.383   3.190 -0.4412  0.5893  0.2752
19377TIP3    H179546   1.557   5.317   3.144  1.9876 -1.4579  0.3913
19377TIP3    H279547   1.550   5.417   3.257 -2.0575 -0.7544 -0.4237
19378TIP3   OH279548   2.395   4.697  11.999  0.2151  0.0863  0.6356
19378TIP3    H179549   2.455   4.750  11.946 -1.8483  0.1524 -1.7307
19378TIP3    H279550   2.449   4.664  12.071  2.1477  3.3409  0.7911
19379TIP3   OH279551   2.915   6.610  12.555  0.5596 -0.1588 -0.1362
19379TIP3    H179552   2.949   6.601  12.644 -1.1419 -1.9477  0.3650
19379TIP3    H279553   2.820   6.611  12.566  0.3443  0.2155 -1.8941
19380TIP3   OH279554   5.689   4.153   0.185 -0.1905  0.4813  0.0622
19380TIP3    H179555   5.725   4.095   0.252 -1.5888 -0.1661  0.2721
19380TIP3    H279556   5.744   4.140   0.109  0.2798 -0.1650  0.5149
19381TIP3   OH279557   0.930   5.922   0.986  0.1868 -0.4510  0.3347
19381TIP3    H179558   0.890   5.876   1.060  1.2984 -0.4502  0.9522
19381TIP3    H279559   1.021   5.936   1.014 -0.4921  3.4518  0.7477
19382TIP3   OH279560   4.517   5.747  14.389  0.1014  0.0514 -0.3599
19382TIP3    H179561   4.596   5.737  14.442  0.5441 -1.0403 -1.1936
19382TIP3    H279562   4.515   5.669  14.334 -1.4797  0.1432 -0.4636
19383TIP3   OH279563   1.438   0.162  16.549 -0.3714 -0.5317  0.2699
19383TIP3    H179564   1.377   0.187  16.479  0.0788  0.0619  0.0925
19383TIP3    H279565   1.458   0.070  16.531  2.6232  0.5785 -2.5526
19384TIP3   OH279566   0.449   4.559   4.236 -0.4597 -0.4377  0.0692
19384TIP3    H179567   0.458   4.644   4.280 -0.7275 -0.2242 -0.2884
19384TIP3    H279568   0.383   4.513   4.287 -1.5792  0.2323 -0.7473
19385TIP3   OH279569   3.013   0.407   4.997 -0.1413  0.2251 -0.0552
19385TIP3    H179570   3.076   0.474   4.971 -0.2541  0.0325 -0.8157
19385TIP3    H279571   2.929   0.437   4.961  0.1030 -1.1687 -1.8677
19386TIP3   OH279572   2.837   2.748   2.511 -0.4327  0.8441  0.1658
19386TIP3    H179573   2.743   2.729   2.506 -0.3828 -0.3839  3.0248
19386TIP3    H279574   2.878   2.662   2.523  1.1434  1.3079 -1.6374
19387TIP3   OH279575   0.352   0.243  13.943 -0.1038  0.1370  0.3068
19387TIP3    H179576   0.391   0.156  13.942 -0.9946 -0.2544 -1.4395
19387TIP3    H279577   0.259   0.229  13.928  0.0229  1.4930 -2.1725
19388TIP3   OH279578   1.633   0.260   5.410 -0.3457 -0.0873 -0.8377
19388TIP3    H179579   1.589   0.320   5.470 -0.2643 -0.4100 -0.4535
19388TIP3    H279580   1.605   0.173   5.439  2.3458 -0.4321  0.8744
19389TIP3   OH279581   2.546   1.907   2.416  0.2723  0.0067 -0.2303
19389TIP3    H179582   2.531   1.998   2.443 -0.0979 -0.3174  0.7139
19389TIP3    H279583   2.619   1.912   2.355  0.2024  0.9523 -0.2555
19390TIP3   OH279584   0.079   5.678   4.381  0.7165 -0.4567 -0.0020
19390TIP3    H179585  -0.010   5.650   4.357  0.4326  0.4854 -0.0869
19390TIP3    H279586   0.067   5.763   4.422  1.6984  0.2706 -1.1716
19391TIP3   OH279587   5.521   1.220   0.853  0.0496  0.4882  0.0076
19391TIP3    H179588   5.544   1.146   0.797 -0.6379  1.1266 -1.1678
19391TIP3    H279589   5.510   1.293   0.791  1.7565  1.8309  1.2379
19392TIP3   OH279590   1.104   0.249   5.256  0.2427  0.6317 -0.3285
19392TIP3    H179591   1.155   0.318   5.298 -0.1843  0.8235 -0.1198
19392TIP3    H279592   1.069   0.197   5.329 -0.0279  0.6262 -0.4602
19393TIP3   OH279593   2.935   0.798   5.092 -0.4837  0.6353  0.0665
19393TIP3    H179594   3.029   0.782   5.082 -1.0462 -2.4504 -1.1227
19393TIP3    H279595   2.918   0.783   5.185  0.0566  0.2751  0.1097
19394TIP3   OH279596   1.119   4.759   4.038  0.1998  0.4505  0.2388
19394TIP3    H179597   1.196   4.734   4.089 -0.7455 -0.5134  1.2034
19394TIP3    H279598   1.083   4.677   4.007 -0.4507  0.9026 -0.2041
19395TIP3   OH279599   2.994   1.253   6.242  0.2139  0.2839  0.0687
19395TIP3    H179600   2.996   1.157   6.249 -2.8539  0.0479 -1.4414
19395TIP3    H279601   3.004   1.284   6.332  2.8736 -1.3779  0.4045
19396TIP3   OH279602   5.845   1.775   5.139  0.5103 -0.1465 -0.3201
19396TIP3    H179603   5.927   1.746   5.097  1.2993  1.4058  0.1110
19396TIP3    H279604   5.861   1.867   5.160 -1.1799  0.0244  0.2287
19397TIP3   OH279605   6.357   0.510  11.199  0.1585  0.1044  0.5399
19397TIP3    H179606   6.440   0.539  11.161 -0.4377  0.8239 -0.2277
19397TIP3    H279607   6.353   0.553  11.285 -1.1379  3.1090 -0.9495
19398TIP3   OH279608   6.457   1.902  13.632  0.3334  0.3956  0.4517
19398TIP3    H179609   6.375   1.863  13.600  1.1573 -1.0334  0.0662
19398TIP3    H279610   6.504   1.927  13.553  1.9234 -2.2252  0.5191
19399TIP3   OH279611   5.955   1.657  11.470 -0.1071  0.2472 -0.1782
19399TIP3    H179612   6.010   1.732  11.493 -0.4880  0.4098  0.2158
19399TIP3    H279613   5.879   1.664  11.529  0.5365 -1.2560  0.8578
19400TIP3   OH279614   4.250   3.891   0.687  0.4449 -0.0751  0.2552
19400TIP3    H179615   4.317   3.944   0.731  0.4833  0.8567 -0.8888
19400TIP3    H279616   4.298   3.817   0.650  0.6193 -0.1490  0.6235
19401TIP3   OH279617   3.000   0.247  12.568 -0.1199  0.6402 -0.4294
19401TIP3    H179618   2.967   0.296  12.493 -0.9196 -1.0424 -1.2057
19401TIP3    H279619   3.040   0.168  12.530 -0.8140 -0.3934  0.9099
19402TIP3   OH279620   4.367   1.534  11.094 -0.0266  0.1969 -0.1946
19402TIP3    H179621   4.400   1.466  11.034 -0.6498  0.0270 -0.3449
19402TIP3    H279622   4.291   1.493  11.137  1.0675 -0.0937  1.5327
19403TIP3   OH279623   3.448   5.461  15.551  0.0678  0.0734 -0.5673
19403TIP3    H179624   3.438   5.545  15.595 -1.0529 -0.7142  0.6857
19403TIP3    H279625   3.377   5.459  15.486 -1.7883 -1.1649  1.4401
19404TIP3   OH279626   6.074   3.214  14.234  0.0179 -0.8957  0.2121
19404TIP3    H179627   6.070   3.134  14.182  0.8141 -1.4638  0.9912
19404TIP3    H279628   6.108   3.280  14.174  2.7716 -1.9941  0.4817
19405TIP3   OH279629   4.074   5.465   2.284  0.0488  0.0857 -0.0276
19405TIP3    H179630   4.043   5.407   2.353  0.0758 -0.5213 -0.5274
19405TIP3    H279631   4.169   5.455   2.286  0.2048  1.5231  1.1269
19406TIP3   OH279632   0.430   3.255   6.757 -0.8111  0.1615  0.0446
19406TIP3    H179633   0.424   3.169   6.716 -2.8427  0.2563  0.1368
19406TIP3    H279634   0.471   3.311   6.690 -0.9383 -0.4941 -0.5805
19407TIP3   OH279635   4.416   0.136  15.993  0.3232  0.1407 -0.0043
19407TIP3    H179636   4.364   0.112  16.069  2.6717 -3.9320  0.4329
19407TIP3    H279637   4.381   0.082  15.922  0.3635  1.4481 -1.0465
19408TIP3   OH279638   5.993   3.511  14.795  0.5629  0.2542 -0.5924
19408TIP3    H179639   5.943   3.584  14.760 -0.4735 -0.7342 -1.1964
19408TIP3    H279640   6.068   3.552  14.838 -0.6289  1.7369  0.1174
19409TIP3   OH279641   3.360   2.487  13.642  0.0413  0.3450  0.3427
19409TIP3    H179642   3.358   2.481  13.546 -0.7826  0.6902  0.3368
19409TIP3    H279643   3.308   2.565  13.663  2.5204  1.8921  0.9409
19410TIP3   OH279644   0.216   2.499   5.853  0.3929  0.4088 -0.1174
19410TIP3    H179645   0.282   2.522   5.918  0.0724  0.7058  0.1050
19410TIP3    H279646   0.155   2.441   5.900  0.7969 -0.3189 -0.4740
19411TIP3   OH279647   2.685   1.760  11.472 -0.2031 -0.4304  0.6055
19411TIP3    H179648   2.642   1.702  11.535 -0.6949  0.3012  0.9488
19411TIP3    H279649   2.665   1.721  11.387 -1.9061  0.1096  0.7300
19412TIP3   OH279650   1.745   6.771   2.113  0.7433  0.1012  0.9365
19412TIP3    H179651   1.801   6.730   2.047  1.3302 -0.4033  1.7286
19412TIP3    H279652   1.781   6.740   2.196 -1.1872 -0.8083  1.4398
19413TIP3   OH279653   1.333   6.479  15.365 -0.0327  0.7071 -0.6733
19413TIP3    H179654   1.349   6.395  15.408 -0.8423  1.1383  0.4851
19413TIP3    H279655   1.285   6.457  15.285 -2.0190  0.2138  0.6254
19414TIP3   OH279656   6.144   5.737   4.093  0.0307 -0.1126  0.3099
19414TIP3    H179657   6.183   5.652   4.115 -2.1895 -1.5407 -1.0390
19414TIP3    H279658   6.100   5.722   4.009 -0.1157  2.4887 -0.1215
19415TIP3   OH279659   2.918   3.934   2.705 -0.1897 -0.2292  0.1019
19415TIP3    H179660   2.984   3.924   2.773  0.1244  0.5044 -0.0907
19415TIP3    H279661   2.932   4.022   2.670 -1.3005 -0.0469  0.0915
19416TIP3   OH279662   6.607   1.740   5.282  1.0031  0.2965 -0.3266
19416TIP3    H179663   6.529   1.792   5.262  0.2580 -0.3157  0.9273
19416TIP3    H279664   6.653   1.790   5.350  0.8399 -0.1626  0.1220
19417TIP3   OH279665   1.505   1.534   3.308  0.6802 -0.2207  0.0728
19417TIP3    H179666   1.521   1.441   3.291  0.2634 -0.4278  0.8017
19417TIP3    H279667   1.446   1.561   3.237  1.7318 -0.2138 -0.8222
19418TIP3   OH279668   2.482   5.166  14.964  0.5869  0.2410  0.0454
19418TIP3    H179669   2.534   5.102  15.012 -0.2644 -1.2058 -0.9473
19418TIP3    H279670   2.473   5.240  15.025  2.3089 -0.2047  0.8643
19419TIP3   OH279671   6.047   5.379  16.137 -0.2547 -0.2818  0.2651
19419TIP3    H179672   6.000   5.454  16.100 -1.1452 -1.5142 -1.1781
19419TIP3    H279673   6.131   5.379  16.092 -0.5866 -0.6389 -0.3690
19420TIP3   OH279674   0.713   4.448   2.762 -0.5339 -0.0294 -0.1442
19420TIP3    H179675   0.771   4.434   2.838 -2.1075 -1.1237  0.8809
19420TIP3    H279676   0.674   4.362   2.746 -0.1806  0.1890 -2.2563
19421TIP3   OH279677   3.688   1.330  15.206  0.2005  0.5541 -0.5393
19421TIP3    H179678   3.753   1.312  15.138 -0.8943 -1.1731 -1.1561
19421TIP3    H279679   3.641   1.408  15.174  0.1747  0.1881 -1.3977
19422TIP3   OH279680   1.655   3.095   5.101  0.2770 -0.6419 -0.3785
19422TIP3    H179681   1.591   3.033   5.137  0.6595 -1.4698 -1.1125
19422TIP3    H279682   1.633   3.101   5.008 -1.6195  2.6127  0.2060
19423TIP3   OH279683   1.743   4.261   2.851  0.2391 -0.1258 -1.0250
19423TIP3    H179684   1.709   4.176   2.880  0.8615  0.2657  0.9444
19423TIP3    H279685   1.818   4.277   2.909 -0.9329  2.5719 -0.2103
19424TIP3   OH279686   4.934   6.452   2.897 -0.2691  0.0746  0.0394
19424TIP3    H179687   4.864   6.512   2.921 -0.5936 -0.5200  0.5862
19424TIP3    H279688   4.936   6.387   2.968  0.3660 -0.3068 -0.3218
19425TIP3   OH279689   3.094   6.787  12.453 -0.2510  0.2409 -0.4175
19425TIP3    H179690   3.180   6.784  12.494 -0.3549  1.5737 -0.0806
19425TIP3    H279691   3.039   6.730  12.508 -0.6450  2.8075  1.9480
19426TIP3   OH279692   2.042   0.240   2.939 -0.6841  0.3552 -0.0801
19426TIP3    H179693   2.122   0.286   2.912 -0.2670 -0.6848 -0.6610
19426TIP3    H279694   2.074   0.160   2.981 -1.4212 -0.1973 -0.5585
19427TIP3   OH279695   6.131   1.182  14.516 -0.1581 -0.1306 -0.2336
19427TIP3    H179696   6.226   1.176  14.520  0.0145  1.0138 -2.0753
19427TIP3    H279697   6.113   1.276  14.511 -1.5473 -0.1594  2.7487
19428TIP3   OH279698   6.346   3.098  15.331 -0.7422  0.3511  0.8120
19428TIP3    H179699   6.392   3.154  15.268 -1.2784 -0.7977 -0.6309
19428TIP3    H279700   6.409   3.085  15.402  0.3712  0.5838 -0.1150
19429TIP3   OH279701   5.262   2.184   4.237 -0.1807  0.6606 -0.2158
19429TIP3    H179702   5.187   2.137   4.199 -0.4605  0.9782 -0.0581
19429TIP3    H279703   5.240   2.193   4.329 -0.3522  1.5340 -0.3372
19430TIP3   OH279704   4.137   2.560  11.458 -0.0266 -0.3848  0.1828
19430TIP3    H179705   4.222   2.587  11.493 -0.0756 -1.6993  1.3884
19430TIP3    H279706   4.150   2.559  11.363  1.3462 -0.6451  0.3550
19431TIP3   OH279707   6.576   2.017  15.516  0.0780  0.7613  0.7131
19431TIP3    H179708   6.564   2.067  15.597 -1.0030  0.6717  0.6106
19431TIP3    H279709   6.655   2.054  15.476 -0.4225  2.0303  0.8932
19432TIP3   OH279710   1.414   0.485  11.459  0.1218  0.2473 -0.0735
19432TIP3    H179711   1.429   0.408  11.404 -0.2786  0.6476 -0.7572
19432TIP3    H279712   1.501   0.512  11.488  0.0967 -2.0451  2.3859
19433TIP3   OH279713   5.381   1.694   3.239  0.3081  0.1574 -0.0632
19433TIP3    H179714   5.376   1.789   3.229  1.2195  0.3728  1.2631
19433TIP3    H279715   5.459   1.668   3.189 -1.4707 -0.2733 -2.6750
19434TIP3   OH279716   0.089   4.940   1.416  0.0162 -0.0370 -0.0865
19434TIP3    H179717   0.155   5.007   1.402 -0.4751  0.2734 -0.9126
19434TIP3    H279718   0.052   4.961   1.502 -0.3024  0.8876 -0.4467
19435TIP3   OH279719   4.669   5.454   2.703 -0.5554  0.0939 -0.0641
19435TIP3    H179720   4.730   5.451   2.630 -1.2255  2.0378 -0.7478
19435TIP3    H279721   4.689   5.537   2.748 -0.2927 -0.9719  1.8280
19436TIP3   OH279722   0.018   0.441  12.912 -0.3391 -0.8261  0.2055
19436TIP3    H179723   0.084   0.379  12.880  0.1115 -0.0616 -0.3709
19436TIP3    H279724   0.021   0.433  13.007  1.1827 -0.2016  0.2255
19437TIP3   OH279725   6.716   1.050  15.866 -0.7765  0.3765 -0.3903
19437TIP3    H179726   6.727   0.992  15.791 -1.4091  1.9567 -1.7308
19437TIP3    H279727   6.752   1.001  15.940  1.0473 -0.6943 -1.9505
19438TIP3   OH279728   4.874   3.689   0.785 -0.6036  0.3018  0.0842
19438TIP3    H179729   4.915   3.612   0.746  0.0660  1.0636 -0.7352
19438TIP3    H279730   4.855   3.663   0.875  1.4884 -0.1659  0.4335
19439TIP3   OH279731   4.409   2.075   1.394  0.2156  0.7203 -0.1332
19439TIP3    H179732   4.373   2.045   1.477 -1.3718  1.7210 -0.4466
19439TIP3    H279733   4.347   2.044   1.328  1.6838 -0.4461 -1.0052
19440TIP3   OH279734   6.422   2.234  10.778 -0.2884  0.7768  0.0051
19440TIP3    H179735   6.511   2.200  10.787  0.2036  1.9312 -0.3622
19440TIP3    H279736   6.365   2.160  10.800  0.7605 -0.0072  0.1053
19441TIP3   OH279737   5.989   0.625   2.968 -0.9918 -0.5382  0.1409
19441TIP3    H179738   6.045   0.695   2.935  0.3161 -0.3957  2.5785
19441TIP3    H279739   5.990   0.559   2.898  0.2293  0.5310 -0.8762
19442TIP3   OH279740   5.969   2.220   1.414  0.9584  0.0167  0.4859
19442TIP3    H179741   5.964   2.257   1.326 -2.1184  0.5804  0.8413
19442TIP3    H279742   5.935   2.131   1.404  2.0397 -0.4468  0.8512
19443TIP3   OH279743   3.165   2.054  10.905  0.7870 -0.1848 -0.0983
19443TIP3    H179744   3.081   2.058  10.860  0.5689  1.5788  0.4155
19443TIP3    H279745   3.210   1.979  10.866 -1.3388 -1.6509  0.2145
19444TIP3   OH279746   2.675   3.779   1.446 -0.1323  0.4381 -0.4675
19444TIP3    H179747   2.677   3.807   1.537  1.5437  1.8104 -0.8934
19444TIP3    H279748   2.584   3.791   1.419 -0.0458  2.9261  0.1795
19445TIP3   OH279749   4.031   0.226  12.880  0.1209 -0.0852  0.0676
19445TIP3    H179750   3.964   0.159  12.864 -0.9319  1.2740 -1.3210
19445TIP3    H279751   4.111   0.187  12.845 -0.4923 -0.6356 -0.7649
19446TIP3   OH279752   0.437   5.128   2.646  0.3407 -0.4424 -0.7703
19446TIP3    H179753   0.351   5.153   2.613 -0.0410 -0.8009 -0.0743
19446TIP3    H279754   0.429   5.138   2.741  1.7335  1.6040 -0.8366
19447TIP3   OH279755   0.290   5.854   1.476  0.0070 -0.3394 -0.5301
19447TIP3    H179756   0.366   5.885   1.524 -0.2844  1.5463 -1.2605
19447TIP3    H279757   0.325   5.793   1.411  0.9262  0.6615 -0.9850
19448TIP3   OH279758   5.400   0.072   0.757  0.7300  0.4257  0.4728
19448TIP3    H179759   5.416   0.004   0.691 -2.4757 -0.4645  0.5123
19448TIP3    H279760   5.369   0.147   0.707  0.4551  0.5088  0.7649
19449TIP3   OH279761   1.529   2.729   2.688  0.1033 -0.6494 -0.4443
19449TIP3    H179762   1.531   2.810   2.637  1.7166 -0.6531 -0.4262
19449TIP3    H279763   1.545   2.660   2.624  1.3490 -0.7187 -0.0678
19450TIP3   OH279764   2.323   4.290   4.750  0.0422 -0.2866  0.2899
19450TIP3    H179765   2.406   4.328   4.777  0.1815  0.1866 -0.7696
19450TIP3    H279766   2.278   4.361   4.704 -0.9132 -0.5642  0.7795
19451TIP3   OH279767   3.215   2.107  11.200  0.1880 -0.0683  0.3248
19451TIP3    H179768   3.186   2.092  11.110  2.0169 -2.2112  0.0717
19451TIP3    H279769   3.166   2.044  11.252  1.4461 -0.9746  0.4157
19452TIP3   OH279770   5.683   2.955  12.747  0.2574 -0.6118 -0.3716
19452TIP3    H179771   5.706   2.865  12.723 -0.2245 -0.7858 -0.1688
19452TIP3    H279772   5.618   2.946  12.816 -0.1123 -0.1045 -0.6550
19453TIP3   OH279773   4.407   1.019   1.123  0.2051  0.0219  0.4195
19453TIP3    H179774   4.327   1.021   1.176 -0.4720  0.6401 -0.6010
19453TIP3    H279775   4.443   0.931   1.138 -1.8066 -1.0486 -0.7707
19454TIP3   OH279776   6.083   6.632  15.157 -0.6597  0.4649  0.0439
19454TIP3    H179777   6.157   6.659  15.212  0.6381 -1.1207 -0.9170
19454TIP3    H279778   6.017   6.701  15.171  0.4184  1.1318  2.0236
19455TIP3   OH279779   3.297   3.489  16.452  0.1861 -0.2157 -0.6144
19455TIP3    H179780   3.330   3.572  16.485  1.1925 -0.4726 -0.9779
19455TIP3    H279781   3.327   3.424  16.516  0.1165 -0.4092 -0.7753
19456TIP3   OH279782   6.047   0.307  14.128  0.1047  0.3685  0.6710
19456TIP3    H179783   6.026   0.250  14.054 -0.8494  0.6338  0.7367
19456TIP3    H279784   6.139   0.286  14.148  0.9828  1.6740 -1.7738
19457TIP3   OH279785   1.519   4.901  14.187  0.0458 -0.2477 -0.1712
19457TIP3    H179786   1.441   4.948  14.215  0.4495 -0.1833  0.8740
19457TIP3    H279787   1.507   4.887  14.093 -0.8793  0.3968 -0.1468
19458TIP3   OH279788   0.329   0.281  15.625 -0.7736 -0.4486  0.6009
19458TIP3    H179789   0.373   0.332  15.693 -0.4188 -1.5271  1.2010
19458TIP3    H279790   0.369   0.310  15.543 -0.4822  0.1303  0.9484
19459TIP3   OH279791   1.995   1.691   0.139 -0.2715 -0.3601 -0.3891
19459TIP3    H179792   1.923   1.627   0.138 -0.6147  0.0191 -1.5491
19459TIP3    H279793   2.016   1.702   0.231  0.9859 -3.4609 -0.2289
19460TIP3   OH279794   5.455   1.075   4.961  0.4095  0.9757 -0.3222
19460TIP3    H179795   5.507   1.154   4.978 -1.8249  2.3338  0.4718
19460TIP3    H279796   5.377   1.108   4.916  0.5032 -1.0976 -2.0716
19461TIP3   OH279797   3.296   1.342   1.682  0.4810 -0.9170  0.3453
19461TIP3    H179798   3.311   1.348   1.776 -1.2477 -0.6617  0.6249
19461TIP3    H279799   3.289   1.248   1.665 -0.8496 -0.8990  0.7560
19462TIP3   OH279800   0.376   2.097   5.679 -0.5708 -0.2661  0.3396
19462TIP3    H179801   0.328   2.179   5.686 -1.2990 -0.6429 -0.1282
19462TIP3    H279802   0.460   2.121   5.641 -0.2709  0.4451  1.4481
19463TIP3   OH279803   3.233   0.379   4.398  0.2943  0.4081  0.8780
19463TIP3    H179804   3.239   0.343   4.309  1.7463  2.6054  0.0235
19463TIP3    H279805   3.201   0.307   4.451 -1.0678 -0.8273 -1.5259
19464TIP3   OH279806   4.563   6.134   4.938 -0.0070 -0.1427 -0.6863
19464TIP3    H179807   4.631   6.100   4.996 -2.6420  1.3954  3.5168
19464TIP3    H279808   4.518   6.202   4.989 -2.3866  1.4705 -4.6087
19465TIP3   OH279809   3.615   0.346   3.816  0.0767  0.4072 -0.3061
19465TIP3    H179810   3.579   0.309   3.735 -0.1178  1.0599 -0.5191
19465TIP3    H279811   3.575   0.432   3.823  0.2715  0.4451  0.3703
19466TIP3   OH279812   5.788   3.345   6.193 -0.4610  0.5414 -0.2471
19466TIP3    H179813   5.716   3.392   6.152 -0.2160  0.9173 -0.2464
19466TIP3    H279814   5.864   3.402   6.181 -0.5706  1.0933  1.5760
19467TIP3   OH279815   2.216   6.295   3.532  0.2012  0.0654 -0.7049
19467TIP3    H179816   2.159   6.260   3.463  0.2918 -1.7718  0.1124
19467TIP3    H279817   2.188   6.248   3.611  0.2918  1.9384  0.4506
19468TIP3   OH279818   5.744   4.228  12.729 -0.0759 -0.6831  0.0999
19468TIP3    H179819   5.650   4.212  12.740  0.2151 -0.8296  2.7304
19468TIP3    H279820   5.752   4.270  12.643 -2.8099  1.6811  0.9431
19469TIP3   OH279821   1.655   2.159  15.772 -0.0362  1.0628 -0.2315
19469TIP3    H179822   1.658   2.125  15.683 -1.3497 -0.1627  0.1789
19469TIP3    H279823   1.600   2.097  15.820  2.3764  0.5264  1.9528
19470TIP3   OH279824   3.453   6.098  16.326 -0.1576 -0.0812 -0.0358
19470TIP3    H179825   3.457   6.189  16.355 -0.3651  0.2165 -0.9110
19470TIP3    H279826   3.440   6.104  16.231 -1.3856 -1.0231  0.0666
19471TIP3   OH279827   4.741   1.754   0.646  0.4060 -0.2184 -0.3762
19471TIP3    H179828   4.649   1.734   0.662  0.0313  1.3998 -0.4397
19471TIP3    H279829   4.788   1.708   0.715 -0.4562 -0.9418 -0.2680
19472TIP3   OH279830   0.189   3.307   2.848  0.2005 -0.0806 -0.0337
19472TIP3    H179831   0.190   3.345   2.935  0.5106  2.1978 -0.9959
19472TIP3    H279832   0.106   3.336   2.810  0.4231 -0.4039 -0.7779
19473TIP3   OH279833   5.061   3.047   4.635  0.0641 -0.0789 -0.1704
19473TIP3    H179834   5.042   3.029   4.543  0.3554 -0.7397 -0.1117
19473TIP3    H279835   4.978   3.034   4.680 -0.0082 -0.0686 -0.3016
19474TIP3   OH279836   3.255   4.604   5.930  0.0755  0.4957 -0.2484
19474TIP3    H179837   3.262   4.520   5.975  1.2084  1.7343  1.9622
19474TIP3    H279838   3.338   4.611   5.882  0.2091  0.5863 -0.0061
19475TIP3   OH279839   6.202   5.441   4.429  0.4023  0.1602  0.0198
19475TIP3    H179840   6.143   5.399   4.367 -0.5580  1.0340  0.3248
19475TIP3    H279841   6.287   5.401   4.413  0.2869  0.8036 -2.2459
19476TIP3   OH279842   2.963   4.678   2.438 -0.1508  0.2269 -0.3084
19476TIP3    H179843   2.951   4.744   2.506 -1.5075 -0.3021 -0.0187
19476TIP3    H279844   2.914   4.711   2.363  1.3773  0.8310 -1.0541
19477TIP3   OH279845   4.303   5.095  16.054 -0.5069 -0.2325  0.1282
19477TIP3    H179846   4.365   5.155  16.096 -0.4159  0.1079 -0.4895
19477TIP3    H279847   4.237   5.078  16.121  0.9066 -1.5527  1.1959
19478TIP3   OH279848   3.461   6.071   3.686 -0.1351  0.3143  0.3958
19478TIP3    H179849   3.399   6.092   3.756  0.6148 -2.1555  1.8665
19478TIP3    H279850   3.533   6.132   3.698 -1.5380  2.1578 -0.3519
19479TIP3   OH279851   0.894   1.246   5.188  0.0612  0.3761  0.4888
19479TIP3    H179852   0.816   1.226   5.239  0.2976  0.1120  0.7437
19479TIP3    H279853   0.899   1.342   5.190 -0.9146  0.4622 -0.5116
19480TIP3   OH279854   2.910   6.755   3.253 -0.8050  0.0016 -0.3750
19480TIP3    H179855   2.944   6.839   3.284 -1.5679  0.4823 -0.8299
19480TIP3    H279856   2.843   6.778   3.188 -1.2764 -0.9496 -0.2401
19481TIP3   OH279857   3.682   2.898   3.908  0.2132 -0.2906  0.4450
19481TIP3    H179858   3.700   2.991   3.903 -0.5526 -0.2121 -0.9617
19481TIP3    H279859   3.713   2.872   3.995  0.0690  1.3392  0.9903
19482TIP3   OH279860   6.538   5.096  12.368 -0.5539  0.0203  0.2265
19482TIP3    H179861   6.468   5.030  12.359 -0.1625 -0.4528  0.6548
19482TIP3    H279862   6.561   5.118  12.278  1.1254 -2.3518  0.0485
19483TIP3   OH279863   2.834   3.283   1.558 -0.7514 -0.1434  0.3345
19483TIP3    H179864   2.887   3.292   1.479 -0.1313 -0.9826  0.6489
19483TIP3    H279865   2.745   3.271   1.525 -0.8532  1.8350 -0.1862
19484TIP3   OH279866   0.624   6.168  12.094  0.6378 -0.2642  0.1748
19484TIP3    H179867   0.547   6.129  12.137  1.6933 -1.7070  0.8092
19484TIP3    H279868   0.697   6.143  12.150  1.8030 -0.5506 -1.4672
19485TIP3   OH279869   4.810   5.933   2.060 -0.6995 -0.4584  0.1282
19485TIP3    H179870   4.768   5.923   2.146 -0.3328 -0.9781  0.2483
19485TIP3    H279871   4.869   5.858   2.053  0.2542  0.2889 -0.0210
19486TIP3   OH279872   4.515   6.768   5.949 -0.2214  0.5573 -0.0766
19486TIP3    H179873   4.570   6.839   5.981 -1.4093  0.8661  1.3357
19486TIP3    H279874   4.487   6.722   6.028 -1.5343  0.0731 -0.8103
19487TIP3   OH279875   4.695   6.661   2.741  0.3622 -0.0600 -0.3133
19487TIP3    H179876   4.632   6.727   2.716  0.4523 -0.3411 -1.2753
19487TIP3    H279877   4.718   6.683   2.832  0.3237  1.1601 -0.5958
19488TIP3   OH279878   0.398   1.312  15.272 -0.1793 -0.6281 -0.5237
19488TIP3    H179879   0.425   1.224  15.248 -0.2679 -0.2489 -2.0201
19488TIP3    H279880   0.385   1.358  15.189  0.3728  0.9566  0.2289
19489TIP3   OH279881   4.105   2.148   6.200 -0.2267 -0.0481  0.4846
19489TIP3    H179882   4.159   2.123   6.275  0.1758 -0.5890  0.0201
19489TIP3    H279883   4.019   2.111   6.218 -0.7193  1.6303  1.6867
19490TIP3   OH279884   4.721   1.693  11.772  0.1522  0.6033 -0.5398
19490TIP3    H179885   4.735   1.787  11.771 -0.2691  0.6649 -1.1513
19490TIP3    H279886   4.790   1.659  11.829 -0.6650  1.4139  0.9342
19491TIP3   OH279887   6.521   1.602  14.051  0.2592  0.2189 -0.4199
19491TIP3    H179888   6.462   1.552  13.994  0.6271  0.7659 -1.2939
19491TIP3    H279889   6.560   1.537  14.109 -0.8865 -0.2083 -0.1100
19492TIP3   OH279890   4.145   5.187  11.591 -0.5759  0.0854  0.3331
19492TIP3    H179891   4.163   5.194  11.684  1.7255 -2.6218  0.1644
19492TIP3    H279892   4.231   5.185  11.550 -1.5394  0.2223 -1.7707
19493TIP3   OH279893   4.080   1.421  11.618 -0.4843 -0.4338 -0.3094
19493TIP3    H179894   4.119   1.348  11.570  1.3455  0.8971 -0.8886
19493TIP3    H279895   4.050   1.381  11.700  0.8380 -1.7835 -0.4443
19494TIP3   OH279896   4.732   0.171  17.206 -0.3514 -0.1859  0.2443
19494TIP3    H179897   4.772   0.202  17.288 -1.9824  1.1802  0.5505
19494TIP3    H279898   4.638   0.177  17.222 -0.6918 -1.3581 -1.2105
19495TIP3   OH279899   6.331   4.133   6.406  0.6837 -0.3976  0.7494
19495TIP3    H179900   6.318   4.228   6.397  1.9951 -0.3951 -1.5715
19495TIP3    H279901   6.249   4.101   6.441  0.0648  1.5559  1.1521
19496TIP3   OH279902   1.453   6.022   1.690 -0.6618  0.0093 -0.2260
19496TIP3    H179903   1.363   6.036   1.661 -0.5551  1.0587 -0.0595
19496TIP3    H279904   1.445   5.988   1.779 -0.9660 -2.4573 -1.1705
19497TIP3   OH279905   1.240   1.810   1.926 -0.2054  0.1588  0.3326
19497TIP3    H179906   1.200   1.770   1.849 -1.3505  3.7422 -1.0409
19497TIP3    H279907   1.334   1.809   1.907 -0.1421 -2.2746  0.5913
19498TIP3   OH279908   2.971   6.108   3.596 -0.1354 -0.3173 -0.0722
19498TIP3    H179909   2.990   6.048   3.667 -0.1390  0.3153  0.4665
19498TIP3    H279910   3.057   6.138   3.566 -0.0851 -1.4177 -1.0648
19499TIP3   OH279911   2.383   3.314   4.711 -0.1767 -0.3262 -0.0640
19499TIP3    H179912   2.455   3.271   4.666 -0.5562  0.7139 -1.7087
19499TIP3    H279913   2.412   3.404   4.725 -0.7039 -0.2056  0.3019
19500TIP3   OH279914   4.885   2.287  12.158  0.0256  0.4942 -0.3975
19500TIP3    H179915   4.910   2.305  12.067 -1.1165  2.9594 -0.2667
19500TIP3    H279916   4.936   2.351  12.209 -0.1705 -0.1383  0.5888
19501TIP3   OH279917   1.530   0.199   0.542 -0.0354 -0.3525 -0.4707
19501TIP3    H179918   1.520   0.106   0.523 -3.4321 -0.3336  0.9119
19501TIP3    H279919   1.480   0.243   0.473 -3.6623  0.1159  2.2932
19502TIP3   OH279920   2.716   4.448   2.571  0.6658 -0.1048  0.7324
19502TIP3    H179921   2.808   4.429   2.555  0.4046 -1.0031  0.2477
19502TIP3    H279922   2.704   4.538   2.540  1.0303 -0.5262 -0.6745
19503TIP3   OH279923   5.147   5.704   1.346 -0.2666  0.4266  0.1798
19503TIP3    H179924   5.149   5.730   1.254 -2.0124 -1.6563 -0.4840
19503TIP3    H279925   5.228   5.655   1.360 -0.7341 -0.5950 -0.6740
19504TIP3   OH279926   0.634   4.776   4.773  0.4966  0.3676 -0.5183
19504TIP3    H179927   0.618   4.728   4.692 -1.8694  0.5785 -0.1930
19504TIP3    H279928   0.615   4.713   4.843  1.4180  0.5314 -0.1117
19505TIP3   OH279929   5.054   3.393  14.876  0.3627  0.2508  0.4888
19505TIP3    H179930   5.001   3.320  14.844 -3.0871  2.1974  1.5499
19505TIP3    H279931   5.089   3.434  14.797  2.0356 -2.2254 -0.1455
19506TIP3   OH279932   3.344   5.021   0.638 -0.1171  0.3679  0.3212
19506TIP3    H179933   3.423   4.997   0.589 -1.0571 -2.0871 -0.0613
19506TIP3    H279934   3.349   4.970   0.718 -2.2229 -1.2741 -0.5534
19507TIP3   OH279935   0.658   6.143   3.215 -0.4371 -0.2799 -0.0004
19507TIP3    H179936   0.645   6.089   3.137 -1.1135  0.1501 -0.1935
19507TIP3    H279937   0.603   6.220   3.200 -1.7397 -0.8743  1.5578
19508TIP3   OH279938   5.308   6.290   2.770 -0.5116  0.0711  0.1465
19508TIP3    H179939   5.336   6.239   2.846  0.1508  0.0419 -0.1061
19508TIP3    H279940   5.303   6.380   2.802  1.3070  0.3047 -0.1419
19509TIP3   OH279941   6.071   4.227  16.527 -0.1973 -0.0357 -0.0331
19509TIP3    H179942   6.093   4.145  16.571 -2.8221 -0.3188  0.8765
19509TIP3    H279943   6.125   4.293  16.570  0.7266 -1.0485  0.3781
19510TIP3   OH279944   2.265   5.178   1.437 -0.4456 -0.1925 -0.2531
19510TIP3    H179945   2.187   5.130   1.462 -0.7164  0.9217  1.0866
19510TIP3    H279946   2.232   5.262   1.404  0.1260 -0.1371 -0.7052
19511TIP3   OH279947   5.118   2.262  11.787 -0.1770  0.1168 -0.7396
19511TIP3    H179948   5.032   2.240  11.822 -0.7498 -1.7394 -3.2229
19511TIP3    H279949   5.165   2.178  11.784  1.0869  0.8237 -1.1331
19512TIP3   OH279950   0.639   3.024   2.116 -0.3318 -0.4071 -0.3936
19512TIP3    H179951   0.591   3.093   2.162  3.6757  1.9974  0.3948
19512TIP3    H279952   0.614   2.943   2.162 -0.7888  1.2415  2.3947
19513TIP3   OH279953   5.514   4.165   0.950  0.2275  0.2798 -0.1644
19513TIP3    H179954   5.563   4.169   1.032 -1.0523  1.3553  0.5735
19513TIP3    H279955   5.450   4.095   0.965  1.2559 -0.8525 -0.9779
19514TIP3   OH279956   5.454   0.214  15.958 -0.1750 -0.2865 -0.0955
19514TIP3    H179957   5.538   0.253  15.932  1.0276 -1.2076  2.2264
19514TIP3    H279958   5.475   0.164  16.037 -3.0762  0.0623  0.9453
19515TIP3   OH279959   2.543   4.243  13.834  0.1726 -0.3049 -0.0805
19515TIP3    H179960   2.549   4.336  13.815 -1.8062  0.4337  2.6615
19515TIP3    H279961   2.499   4.206  13.757 -1.4573  1.4646 -0.0377
19516TIP3   OH279962   2.818   0.802  12.166 -0.1715 -0.2872 -0.0465
19516TIP3    H179963   2.853   0.798  12.254 -0.3330  1.1581  0.0894
19516TIP3    H279964   2.890   0.836  12.112  0.3515 -2.3602 -0.7218
19517TIP3   OH279965   6.084   4.212   0.271  0.5589 -0.1958 -0.5039
19517TIP3    H179966   6.090   4.272   0.197 -0.2454 -0.4540 -0.7865
19517TIP3    H279967   6.066   4.268   0.346 -0.0160 -0.0636 -0.7380
19518TIP3   OH279968   5.002   2.303   2.581  0.1816  0.4811 -0.0464
19518TIP3    H179969   5.030   2.264   2.499 -0.6354  1.3110 -0.7268
19518TIP3    H279970   5.035   2.243   2.648  1.6386  0.2594 -0.9217
19519TIP3   OH279971   4.555   2.546   5.189 -0.0951 -0.6870  0.0234
19519TIP3    H179972   4.480   2.549   5.130  1.2538  0.4416 -1.7149
19519TIP3    H279973   4.554   2.630   5.234  1.5182  0.4099 -1.8794
19520TIP3   OH279974   2.037   1.793   2.834 -0.1792  0.3123  0.0535
19520TIP3    H179975   1.971   1.809   2.767  0.8465  1.5516 -0.6681
19520TIP3    H279976   2.118   1.827   2.797  0.8713 -1.1384  0.9549
19521TIP3   OH279977   5.708   5.156   0.479  0.0482  0.7515 -0.8059
19521TIP3    H179978   5.754   5.092   0.533  0.3873  1.8286  0.2029
19521TIP3    H279979   5.667   5.104   0.410 -1.0655 -0.7771  0.9293
19522TIP3   OH279980   4.802   6.675   5.653 -0.3128  0.2463 -0.3947
19522TIP3    H179981   4.877   6.726   5.683 -0.0200  0.3527 -1.2750
19522TIP3    H279982   4.741   6.741   5.620 -0.6157  0.1343 -0.0498
19523TIP3   OH279983   4.658   4.157   1.794 -0.5102 -0.1691 -0.1554
19523TIP3    H179984   4.605   4.086   1.830 -2.8235  1.6836  0.2251
19523TIP3    H279985   4.595   4.213   1.748  1.1839  1.8155 -0.1418
19524TIP3   OH279986   0.666   0.597  11.146 -0.5428  0.1992 -0.5995
19524TIP3    H179987   0.725   0.550  11.087  1.9076  1.0864  1.0897
19524TIP3    H279988   0.593   0.625  11.090  0.2037 -1.6451 -2.5411
19525TIP3   OH279989   4.888   6.726  16.685  0.1463  0.2286  0.0724
19525TIP3    H179990   4.845   6.797  16.733  1.1959  0.7530  0.2461
19525TIP3    H279991   4.825   6.654  16.687 -0.7270  0.9913  0.3200
19526TIP3   OH279992   5.178   3.965  16.167 -0.2262 -0.5340  0.2263
19526TIP3    H179993   5.259   3.979  16.215 -0.2504 -1.3522  0.5099
19526TIP3    H279994   5.140   3.886  16.206 -0.2349 -1.2167 -1.1640
19527TIP3   OH279995   3.000   3.467  15.543  0.0423 -0.4995 -0.0987
19527TIP3    H179996   3.061   3.538  15.559  0.2415 -0.7983  0.4879
19527TIP3    H279997   3.035   3.393  15.593 -0.4133 -0.8735 -0.3237
19528TIP3   OH279998   0.588   2.946   2.786  0.3202 -0.6601 -0.0571
19528TIP3    H179999   0.574   2.868   2.733  1.5692 -1.3655  0.6380
19528TIP3    H280000   0.503   2.989   2.788 -0.4240 -2.0911 -0.3045
19529TIP3   OH280001   4.670   0.696   3.214 -0.0890 -0.0718  0.3776
19529TIP3    H180002   4.624   0.671   3.294  0.9136 -0.8405  0.7307
19529TIP3    H280003   4.691   0.789   3.226 -1.6251  0.3145  0.1601
19530TIP3   OH280004   3.836   0.054  13.158 -0.5462  0.3385 -0.5196
19530TIP3    H180005   3.754   0.099  13.137 -0.4169  1.0435  0.4577
19530TIP3    H280006   3.904   0.119  13.138  0.0347 -1.3104 -4.4680
19531TIP3   OH280007   0.259   5.229   4.960  0.2999  0.3035 -0.3670
19531TIP3    H180008   0.218   5.315   4.950  0.3035  0.0798 -2.5527
19531TIP3    H280009   0.353   5.248   4.963  0.2091  0.5276  1.0522
19532TIP3   OH280010   5.917   3.457  14.508 -0.0200  0.1436  0.2584
19532TIP3    H180011   5.868   3.474  14.588 -0.5881  2.0028 -0.4661
19532TIP3    H280012   5.880   3.375  14.474 -0.0039 -0.4719  1.7067
19533TIP3   OH280013   1.339   6.237   3.933  0.9838  0.0961 -0.3964
19533TIP3    H180014   1.388   6.269   4.008 -0.1066 -1.8365  1.1779
19533TIP3    H280015   1.275   6.176   3.969 -0.3140 -0.0348 -2.7695
19534TIP3   OH280016   1.448   5.582  15.916  0.4114  0.6883 -0.1215
19534TIP3    H180017   1.422   5.540  15.834  0.0090  1.6141 -0.4858
19534TIP3    H280018   1.526   5.535  15.944  0.1626 -0.0685 -0.6925
19535TIP3   OH280019   4.665   2.817   4.437  0.3548 -0.0131  0.0031
19535TIP3    H180020   4.604   2.890   4.426 -0.0902 -0.6027 -1.7718
19535TIP3    H280021   4.671   2.778   4.349  0.2920 -2.3174  0.9727
19536TIP3   OH280022   4.819   3.418   5.075 -0.2822 -0.0863 -0.2833
19536TIP3    H180023   4.772   3.423   5.159 -0.5731 -0.8003 -0.4051
19536TIP3    H280024   4.895   3.362   5.093 -0.3878 -0.3065 -0.5175
19537TIP3   OH280025   4.300   3.589  11.765 -0.7417  0.0963  0.1186
19537TIP3    H180026   4.235   3.614  11.831 -0.7231  0.0858  0.1408
19537TIP3    H280027   4.346   3.670  11.745  0.6637 -0.2585  1.6801
19538TIP3   OH280028   4.153   3.553  11.288  0.2309  0.2820 -0.2495
19538TIP3    H180029   4.175   3.614  11.359  1.3441 -0.7038  0.2717
19538TIP3    H280030   4.115   3.609  11.220  0.8337  1.5026  0.3967
19539TIP3   OH280031   3.413   6.265  15.296  0.3619  0.1687 -0.1169
19539TIP3    H180032   3.378   6.235  15.212  1.9964  1.5455 -1.3326
19539TIP3    H280033   3.380   6.354  15.306 -1.6004 -0.7241  1.7898
19540TIP3   OH280034   2.275   6.749  16.247 -0.1782  0.1497  0.0555
19540TIP3    H180035   2.353   6.723  16.296 -0.1223  0.6215  0.2177
19540TIP3    H280036   2.258   6.839  16.274 -1.2917 -0.2390  0.6794
19541TIP3   OH280037   4.556   5.133  13.207 -0.1276 -0.2976  0.8314
19541TIP3    H180038   4.471   5.108  13.245 -0.5608 -0.2152 -0.0653
19541TIP3    H280039   4.609   5.158  13.282 -0.9208 -0.2875  1.4028
19542TIP3   OH280040   6.760   3.445   2.233 -0.1554  0.2594 -0.1931
19542TIP3    H180041   6.681   3.474   2.187  0.0215  0.6930 -0.2309
19542TIP3    H280042   6.760   3.494   2.315 -0.0610  0.0681 -0.0774
19543TIP3   OH280043   2.032   4.238  16.019 -0.1485  0.5685  0.1908
19543TIP3    H180044   2.033   4.332  16.036 -0.0563  0.5638  0.2143
19543TIP3    H280045   2.010   4.199  16.104  0.8821  0.5198  0.4487
19544TIP3   OH280046   2.611   3.008  11.476  0.1529 -0.0452  0.2753
19544TIP3    H180047   2.527   3.016  11.431  0.1321  0.8746  0.4739
19544TIP3    H280048   2.589   2.968  11.560 -0.3563  2.0165  1.1324
19545TIP3   OH280049   0.365   2.502   2.634 -0.0568  0.3764 -0.1396
19545TIP3    H180050   0.331   2.470   2.718  1.0576 -0.7024 -0.0839
19545TIP3    H280051   0.327   2.443   2.569 -0.7413  1.0764 -0.3893
19546TIP3   OH280052   1.066   6.346   6.008 -0.3144 -0.4077  0.6561
19546TIP3    H180053   1.035   6.276   6.066 -1.0339 -0.3338  0.3612
19546TIP3    H280054   1.162   6.339   6.012 -0.3852 -2.4462 -0.6414
19547TIP3   OH280055   3.626   5.898  17.183  0.4576 -0.0516 -0.2412
19547TIP3    H180056   3.604   5.986  17.155  0.6965  0.3477  0.8077
19547TIP3    H280057   3.640   5.849  17.102 -1.1673  0.4832 -0.8689
19548TIP3   OH280058   5.385   4.992  16.057  0.9524 -0.6308 -0.0318
19548TIP3    H180059   5.363   4.909  16.099  1.3096 -0.2998  0.8383
19548TIP3    H280060   5.478   4.983  16.036  1.7423  0.6416  2.7241
19549TIP3   OH280061   1.105   0.606   0.594  0.4833  0.3837  0.5768
19549TIP3    H180062   1.047   0.535   0.620  0.6475 -0.1793 -0.5663
19549TIP3    H280063   1.082   0.624   0.503  0.1741  2.0640  0.9752
19550TIP3   OH280064   3.220   1.424  15.467 -0.7753 -0.3465  0.0756
19550TIP3    H180065   3.192   1.383  15.549 -1.3103  1.1468  0.6624
19550TIP3    H280066   3.223   1.352  15.404  1.1938 -1.8134  1.7730
19551TIP3   OH280067   1.605   6.278   5.420 -0.1259  0.6395  0.5749
19551TIP3    H180068   1.649   6.299   5.337  1.6474 -1.2948  0.9784
19551TIP3    H280069   1.550   6.203   5.400 -1.2354  1.4193  0.6925
19552TIP3   OH280070   6.460   1.725   1.695  0.2685 -0.2146  0.0513
19552TIP3    H180071   6.368   1.706   1.714  0.4309 -1.0984 -0.0431
19552TIP3    H280072   6.508   1.653   1.734  1.0871  1.2220  1.7904
19553TIP3   OH280073   3.025   2.741  15.277  0.3332 -0.2021 -0.4210
19553TIP3    H180074   3.010   2.678  15.348 -0.0921 -0.7368 -0.9779
19553TIP3    H280075   3.120   2.744  15.268  0.5099  1.6500  1.7537
19554TIP3   OH280076   2.270   3.534  10.493 -0.2565  0.1743  0.0058
19554TIP3    H180077   2.330   3.577  10.432 -0.6074 -0.5160 -0.8561
19554TIP3    H280078   2.324   3.474  10.543 -0.3975 -1.3304 -1.6034
19555TIP3   OH280079   5.454   2.304   4.902 -0.3695  0.6820  0.3102
19555TIP3    H180080   5.520   2.288   4.969 -2.0080 -0.4488  1.7090
19555TIP3    H280081   5.474   2.240   4.833 -0.2418  0.0627  0.9122
19556TIP3   OH280082   0.213   0.880  15.681  0.6218  0.2545 -0.1864
19556TIP3    H180083   0.206   0.868  15.775  1.8056 -0.1347 -0.1454
19556TIP3    H280084   0.122   0.873  15.649  0.2142  0.4508  0.9166
19557TIP3   OH280085   0.931   1.519   5.207 -0.7778  0.1400  0.1687
19557TIP3    H180086   0.877   1.527   5.286  0.3741  0.9276  0.8929
19557TIP3    H280087   1.009   1.571   5.226  0.1294 -0.7847 -0.9593
19558TIP3   OH280088   2.905   3.209  10.340 -0.2725  0.4025 -0.1198
19558TIP3    H180089   2.978   3.238  10.286 -0.0382 -0.8461 -0.4871
19558TIP3    H280090   2.945   3.152  10.406 -0.7856  0.5146  0.2936
19559TIP3   OH280091   4.044   2.439  13.493  0.3943 -0.9089  0.1172
19559TIP3    H180092   3.991   2.417  13.417 -0.8554  0.8636  0.4277
19559TIP3    H280093   4.024   2.371  13.557  0.2955 -1.5700 -0.6141
19560TIP3   OH280094   1.302   5.260   1.924 -0.3113  0.0280 -0.0565
19560TIP3    H180095   1.335   5.268   2.013  0.0900 -1.3227 -0.0663
19560TIP3    H280096   1.372   5.297   1.869  0.5249 -1.3525  0.0366
19561TIP3   OH280097   1.728   2.993  12.509  0.0169  0.6838  0.2759
19561TIP3    H180098   1.664   2.936  12.466  0.7638  0.5331 -0.6523
19561TIP3    H280099   1.765   3.045  12.438 -0.9091  2.5893  1.1658
19562TIP3   OH280100   5.951   0.528   2.280  0.1747 -0.4873 -0.3544
19562TIP3    H180101   6.007   0.493   2.211  1.4450 -0.2385  0.5418
19562TIP3    H280102   5.987   0.615   2.298  1.2714 -1.4273  2.1953
19563TIP3   OH280103   0.551   5.721  16.001  0.0434 -0.0274 -0.1815
19563TIP3    H180104   0.498   5.668  15.941  0.0223 -1.9648  1.4995
19563TIP3    H280105   0.488   5.777  16.045 -0.0908  0.5644 -1.1234
19564TIP3   OH280106   0.229   0.452   4.632 -0.0774 -0.0685 -0.7150
19564TIP3    H180107   0.235   0.363   4.667  1.0724  0.7593  1.2607
19564TIP3    H280108   0.136   0.474   4.638  0.0202 -0.1263  1.4333
19565TIP3   OH280109   2.609   3.794  16.106  0.7734 -0.3878 -0.0041
19565TIP3    H180110   2.697   3.788  16.142  0.3670 -1.8181  0.8180
19565TIP3    H280111   2.563   3.718  16.143 -0.8044  0.3506 -0.3936
19566TIP3   OH280112   2.048   4.939  13.407 -0.9596  0.1740  0.6832
19566TIP3    H180113   2.120   4.950  13.345  0.0827 -1.6195  1.5190
19566TIP3    H280114   1.978   4.900  13.355 -1.7215  2.8285 -0.3606
19567TIP3   OH280115   0.551   3.687  10.489 -0.1246 -0.6499  0.4256
19567TIP3    H180116   0.554   3.636  10.408 -0.6881 -1.7713  1.0946
19567TIP3    H280117   0.604   3.637  10.552 -0.5194 -0.3167  1.0334
19568TIP3   OH280118   5.298   0.703  11.169  0.7992  0.1901 -0.1985
19568TIP3    H180119   5.309   0.628  11.227  1.6004  0.4666  0.0215
19568TIP3    H280120   5.211   0.736  11.189  0.4158 -0.7162 -0.3447
19569TIP3   OH280121   6.571   1.931  11.897 -0.4524 -0.4684 -0.6339
19569TIP3    H180122   6.514   1.943  11.974 -1.3053 -0.4281 -1.2615
19569TIP3    H280123   6.571   1.837  11.882 -2.3331 -0.2739 -2.0882
19570TIP3   OH280124   4.393   4.669  11.506 -0.1346 -0.1313 -0.7034
19570TIP3    H180125   4.324   4.637  11.563  0.7738  0.4929  0.7819
19570TIP3    H280126   4.439   4.590  11.476 -0.6618 -0.4627 -0.6358
19571TIP3   OH280127   1.777   3.068  12.839 -0.6733 -0.0989  0.5725
19571TIP3    H180128   1.758   3.107  12.754  1.2076 -0.0961  0.1353
19571TIP3    H280129   1.813   3.139  12.891 -0.2663 -0.4998  0.8414
19572TIP3   OH280130   4.920   2.071  13.840 -0.0885  0.1734  0.3009
19572TIP3    H180131   4.953   2.049  13.927  0.1502  0.6996  0.3421
19572TIP3    H280132   4.828   2.091  13.853  0.5994  3.1310  0.9091
19573TIP3   OH280133   5.697   0.293  17.191 -0.7860 -0.1408  0.1906
19573TIP3    H180134   5.720   0.210  17.148  0.7385  0.7117 -0.6864
19573TIP3    H280135   5.602   0.291  17.198 -0.5970 -3.8008  3.8729
19574TIP3   OH280136   3.480   0.437  16.428  0.5119  0.3217  0.5628
19574TIP3    H180137   3.534   0.481  16.492  1.7708  1.4692 -1.2498
19574TIP3    H280138   3.534   0.365  16.396 -0.0432 -0.1393  0.6521
19575TIP3   OH280139   2.180   2.858  16.736  0.2778  0.2799 -0.2217
19575TIP3    H180140   2.194   2.949  16.709  2.9344  0.0349  0.1417
19575TIP3    H280141   2.240   2.808  16.680  0.8322 -0.9536  1.4509
19576TIP3   OH280142   1.327   5.186   2.434 -0.4398 -0.9225  0.6464
19576TIP3    H180143   1.232   5.192   2.433 -0.3616  0.8527  0.9290
19576TIP3    H280144   1.349   5.160   2.524 -0.6136 -0.1775  0.9074
19577TIP3   OH280145   0.429   3.774  13.766  0.7378  0.1150  0.1651
19577TIP3    H180146   0.334   3.766  13.774  0.7081  1.8251  1.9475
19577TIP3    H280147   0.442   3.810  13.679 -0.3052  0.6431  0.2138
19578TIP3   OH280148   0.359   1.988  14.880  0.0637  0.0521  0.1022
19578TIP3    H180149   0.291   1.982  14.947  0.7611 -0.0022  0.8191
19578TIP3    H280150   0.386   2.079  14.881 -0.6848  0.2958 -0.8826
19579TIP3   OH280151   5.779   5.451   6.149  0.0519  0.1391  0.2836
19579TIP3    H180152   5.853   5.391   6.153  0.3575  0.5014  0.0360
19579TIP3    H280153   5.801   5.521   6.210 -1.3234 -1.1377  2.3065
19580TIP3   OH280154   6.746   5.523   6.151 -0.4836  0.0122  0.0642
19580TIP3    H180155   6.779   5.453   6.207  1.5737  1.9535  1.3825
19580TIP3    H280156   6.657   5.539   6.183  0.0734 -0.0290  1.6971
19581TIP3   OH280157   0.518   1.834  12.816 -0.4400  0.1340  0.4419
19581TIP3    H180158   0.553   1.760  12.865 -2.1864 -0.6683  0.5327
19581TIP3    H280159   0.537   1.814  12.725  0.3263  0.2658  0.5701
19582TIP3   OH280160   3.194   4.741  15.672 -0.1253 -0.5988  0.4184
19582TIP3    H180161   3.196   4.754  15.577  1.1000 -1.2676  0.3429
19582TIP3    H280162   3.166   4.826  15.706 -0.2014 -0.2336 -0.5184
19583TIP3   OH280163   2.815   6.493   4.080  0.8012 -0.5679 -0.0285
19583TIP3    H180164   2.806   6.582   4.047 -0.8826 -0.6243  0.2429
19583TIP3    H280165   2.910   6.479   4.087  1.0373  2.1861  2.6322
19584TIP3   OH280166   2.954   0.567  14.370 -0.3581 -0.0382 -0.0428
19584TIP3    H180167   3.043   0.585  14.340 -0.5927  0.6028 -0.3525
19584TIP3    H280168   2.916   0.513  14.300 -1.3918  2.6849 -1.6356
19585TIP3   OH280169   0.806   2.549  16.871  0.3876 -0.2590 -0.2151
19585TIP3    H180170   0.777   2.484  16.934 -1.9256 -0.3689 -1.3530
19585TIP3    H280171   0.824   2.627  16.923 -0.5099 -0.6548  0.6962
19586TIP3   OH280172   5.487   4.841  13.265  0.4113  0.1710  0.5165
19586TIP3    H180173   5.572   4.798  13.264 -0.7011 -2.0746  0.6655
19586TIP3    H280174   5.434   4.790  13.326 -0.8905  1.8765  0.8709
19587TIP3   OH280175   1.158   4.460  14.293 -0.0978 -0.2608 -0.2626
19587TIP3    H180176   1.227   4.403  14.328 -1.4349 -2.3665 -0.9740
19587TIP3    H280177   1.112   4.405  14.230 -2.5943  1.0350  0.3930
19588TIP3   OH280178   0.388   3.849   1.803  0.2701 -0.0357 -0.0752
19588TIP3    H180179   0.439   3.800   1.738  1.5598 -0.8317  1.4956
19588TIP3    H280180   0.307   3.799   1.814  1.2285 -1.4040  0.9167
19589TIP3   OH280181   1.087   4.750   1.768  0.6383  0.3052 -0.5876
19589TIP3    H180182   1.141   4.799   1.830  0.5109  0.3909 -0.5440
19589TIP3    H280183   1.048   4.680   1.819  1.7110 -0.5226 -0.8922
19590TIP3   OH280184   0.759   3.388   6.201 -0.3946  0.7582  0.0719
19590TIP3    H180185   0.829   3.368   6.139 -1.9061  0.0259 -1.4339
19590TIP3    H280186   0.776   3.478   6.229 -0.1492  1.3906 -2.0494
19591TIP3   OH280187   0.354   6.385   2.003  0.2896 -0.1914  0.6388
19591TIP3    H180188   0.324   6.462   2.051  0.5862 -0.5676  1.4457
19591TIP3    H280189   0.290   6.317   2.023 -0.4473  0.0761 -0.7690
19592TIP3   OH280190   2.475   6.030  12.936  0.1214 -0.1687  0.3340
19592TIP3    H180191   2.390   6.022  12.893  0.3725  0.2877 -0.2422
19592TIP3    H280192   2.511   5.942  12.933  0.8429  0.1742 -1.8454
19593TIP3   OH280193   5.348   5.687  12.045  0.0375  0.4149 -0.3364
19593TIP3    H180194   5.385   5.634  12.116 -0.7575  0.3412  0.0356
19593TIP3    H280195   5.422   5.734  12.008  0.7047 -0.7173 -0.4505
19594TIP3   OH280196   5.182   6.102  14.709  0.4805  0.4028 -0.0577
19594TIP3    H180197   5.096   6.119  14.671  0.0433  1.2388  1.2961
19594TIP3    H280198   5.184   6.153  14.790 -0.0702 -4.3042  3.1159
19595TIP3   OH280199   4.356   1.791  14.649 -0.0223  0.2120 -0.1455
19595TIP3    H180200   4.273   1.830  14.675 -0.3140 -0.7768  0.4112
19595TIP3    H280201   4.408   1.865  14.617 -0.0878  1.2749  2.1006
19596TIP3   OH280202   4.775   3.106   0.572  1.2126  0.1425  0.2129
19596TIP3    H180203   4.720   3.175   0.536  1.5623  0.8232  0.9760
19596TIP3    H280204   4.792   3.133   0.662  0.3878 -1.5189  0.8827
19597TIP3   OH280205   2.485   3.862  11.270  0.3933 -0.1870 -0.3427
19597TIP3    H180206   2.389   3.860  11.268  0.3699  0.6993 -0.1241
19597TIP3    H280207   2.508   3.948  11.234  1.1533 -1.0831 -2.0629
19598TIP3   OH280208   5.950   0.652  15.661  0.3144  0.1060 -0.2713
19598TIP3    H180209   5.928   0.596  15.586 -1.9098  0.5925 -0.0181
19598TIP3    H280210   5.954   0.592  15.736 -0.1018  0.0030 -0.3317
19599TIP3   OH280211   2.085   2.594   4.300 -0.3500 -0.0500  0.6939
19599TIP3    H180212   2.104   2.540   4.224 -0.7311  0.5058  0.2012
19599TIP3    H280213   2.157   2.657   4.305 -0.7419  0.4379  0.3056
19600TIP3   OH280214   6.704   1.802  12.164  0.4176  0.1238 -0.2477
19600TIP3    H180215   6.693   1.718  12.208  1.0092  1.7942  3.2736
19600TIP3    H280216   6.616   1.841  12.165  0.4240  0.1456 -0.5832
19601TIP3   OH280217   1.871   4.617  12.938 -0.4767  0.2924  0.1573
19601TIP3    H180218   1.931   4.542  12.937 -0.5472  0.2353  0.2119
19601TIP3    H280219   1.913   4.680  12.997 -0.5897  0.1534  0.3861
19602TIP3   OH280220   5.071   6.184   0.045  0.2788 -0.0559 -0.1478
19602TIP3    H180221   5.074   6.088   0.054 -1.6667 -0.0630  0.7463
19602TIP3    H280222   5.144   6.216   0.098 -0.5154 -0.9572  1.5396
19603TIP3   OH280223   3.942   2.953   5.989 -0.3181 -0.1609 -0.4585
19603TIP3    H180224   4.008   2.974   5.922 -0.9370  0.0061 -1.0146
19603TIP3    H280225   3.994   2.924   6.064  0.4273  0.6167 -0.6595
19604TIP3   OH280226   2.798   6.134  15.105 -0.4593 -0.1881 -0.0169
19604TIP3    H180227   2.736   6.186  15.157 -0.0991 -0.3927  0.6208
19604TIP3    H280228   2.783   6.163  15.015 -0.3987  0.9004  0.3082
19605TIP3   OH280229   0.304   6.367   2.662 -0.0099  0.4907  0.3644
19605TIP3    H180230   0.325   6.460   2.655 -0.7442  0.9845  3.4846
19605TIP3    H280231   0.270   6.343   2.576  2.5160  2.4581 -1.2506
19606TIP3   OH280232   2.463   2.392   5.855 -0.0794 -0.3558 -0.7023
19606TIP3    H180233   2.557   2.403   5.867 -0.0742  0.5228 -1.4407
19606TIP3    H280234   2.434   2.340   5.930  0.9964 -0.6450 -0.4885
19607TIP3   OH280235   6.035   3.160  16.133  0.1202 -0.2838 -0.2307
19607TIP3    H180236   6.089   3.113  16.196  0.2293  1.4895  1.0158
19607TIP3    H280237   6.088   3.235  16.106 -1.1471  0.7049 -0.0279
19608TIP3   OH280238   3.455   5.793  15.157  0.7657  0.0162 -0.3874
19608TIP3    H180239   3.492   5.873  15.195  1.0413 -0.0626 -0.4862
19608TIP3    H280240   3.518   5.725  15.179  0.9711 -0.0173 -1.0540
19609TIP3   OH280241   0.027   5.317   4.249 -0.5492  0.8632  0.2826
19609TIP3    H180242   0.116   5.343   4.224  0.6802 -2.7908  0.6568
19609TIP3    H280243  -0.021   5.313   4.166  0.9250 -1.6997 -0.4963
19610TIP3   OH280244   4.806   2.719  11.943  0.5299  0.1041  0.4722
19610TIP3    H180245   4.874   2.753  12.001 -1.1961 -1.0396  3.2259
19610TIP3    H280246   4.793   2.789  11.879  1.7460  1.8356  2.0531
19611TIP3   OH280247   1.498   2.819  14.720  0.3000 -0.5252 -0.4040
19611TIP3    H180248   1.492   2.914  14.728 -1.8448 -0.8379  2.7599
19611TIP3    H280249   1.546   2.792  14.798  0.9615 -2.0614 -1.3234
19612TIP3   OH280250   1.204   1.370   5.828 -0.4074  0.2675  0.3595
19612TIP3    H180251   1.247   1.375   5.913 -0.3446 -0.6478  0.3797
19612TIP3    H280252   1.197   1.277   5.809 -0.6597  0.4573 -0.5201
19613TIP3   OH280253   0.358   4.053   4.572  0.1914 -0.8840 -0.0179
19613TIP3    H180254   0.316   4.129   4.533 -2.6571 -2.0077  0.7078
19613TIP3    H280255   0.414   4.018   4.503  0.2976  0.9352 -0.8720
19614TIP3   OH280256   4.449   6.437   4.355 -0.1554 -0.2323 -0.5186
19614TIP3    H180257   4.494   6.459   4.436 -0.3733 -0.8923 -0.2196
19614TIP3    H280258   4.376   6.382   4.381  1.2518 -2.5781 -1.3933
19615TIP3   OH280259   2.230   2.914   6.040 -0.2016  0.2694  0.4225
19615TIP3    H180260   2.143   2.888   6.070  0.4268 -0.1113  1.9227
19615TIP3    H280261   2.214   2.958   5.956 -1.6095 -1.7178 -0.3856
19616TIP3   OH280262   1.215   3.875   1.463  0.7761 -0.0969  0.6688
19616TIP3    H180263   1.260   3.957   1.484  1.2311 -0.5532  1.4916
19616TIP3    H280264   1.266   3.807   1.508  0.7255 -0.8920 -0.4535
19617TIP3   OH280265   6.394   3.682  11.298 -0.6606 -0.4378  0.6261
19617TIP3    H180266   6.439   3.667  11.381  0.9985 -0.8136 -0.3279
19617TIP3    H280267   6.448   3.638  11.233 -1.7545  0.1671 -0.7151
19618TIP3   OH280268   2.295   1.382   5.492 -0.2040 -0.2298  0.4669
19618TIP3    H180269   2.275   1.468   5.456 -0.7985 -0.5262  0.0907
19618TIP3    H280270   2.386   1.367   5.467 -0.4244 -0.1642 -0.3729
19619TIP3   OH280271   2.840   6.341   1.986  0.4987 -0.3858  0.9427
19619TIP3    H180272   2.918   6.358   2.038 -0.3915 -1.3667  2.6317
19619TIP3    H280273   2.767   6.350   2.048 -0.7095  0.0955 -0.5083
19620TIP3   OH280274   2.968   4.499   1.648  0.0455  0.4906  0.0582
19620TIP3    H180275   3.008   4.503   1.734 -2.7511  1.0837  1.3911
19620TIP3    H280276   2.889   4.446   1.660 -1.2873  1.9720 -1.7325
19621TIP3   OH280277   4.270   4.374   1.664 -0.5885  0.2036  0.3517
19621TIP3    H180278   4.272   4.359   1.569  1.8687 -1.4862  0.6277
19621TIP3    H280279   4.196   4.322   1.695 -2.2470  1.8319 -0.7801
19622TIP3   OH280280   6.068   5.937   1.178  0.1574  0.3115  0.4280
19622TIP3    H180281   6.138   5.987   1.219  2.4691  0.0029 -2.9795
19622TIP3    H280282   6.012   6.003   1.138  1.0511  0.3736 -0.7388
19623TIP3   OH280283   3.998   3.191   1.349 -0.0700 -0.3174 -0.1994
19623TIP3    H180284   4.041   3.140   1.418 -0.3479 -1.6087 -0.9764
19623TIP3    H280285   3.932   3.243   1.395 -0.5219 -1.4678  0.4495
19624TIP3   OH280286   2.394   3.588   6.041 -0.2941  0.2218 -0.3723
19624TIP3    H180287   2.308   3.618   6.071  0.3076  0.5790  1.0472
19624TIP3    H280288   2.443   3.572   6.122  0.4477 -1.5342 -1.1587
19625TIP3   OH280289   1.559   6.765  10.847  0.6369 -0.5881  0.1475
19625TIP3    H180290   1.599   6.717  10.919  1.5928 -0.2469 -0.1452
19625TIP3    H280291   1.522   6.697  10.791 -0.8490 -0.8128  1.3735
19626TIP3   OH280292   4.309   5.959   5.225 -0.7539 -0.0534  0.0035
19626TIP3    H180293   4.306   5.913   5.141 -1.1760  1.1742 -0.6605
19626TIP3    H280294   4.291   6.050   5.204 -0.9290  0.2627  1.4402
19627TIP3   OH280295   5.844   6.659  16.762  0.2874 -0.2276 -0.2012
19627TIP3    H180296   5.866   6.744  16.724  0.9090  0.4924  1.6858
19627TIP3    H280297   5.887   6.596  16.705  2.6740  0.9122  0.2471
19628TIP3   OH280298   0.288   3.953  14.038  0.3697 -0.4609 -0.2225
19628TIP3    H180299   0.231   3.883  14.008 -0.2357 -0.8708  1.8409
19628TIP3    H280300   0.250   4.032  14.000  1.6148 -1.2921 -3.3678
19629TIP3   OH280301   0.919   1.868  15.788  0.0160 -0.3829  0.2174
19629TIP3    H180302   0.971   1.827  15.720  1.0461 -0.4105  1.0115
19629TIP3    H280303   0.970   1.944  15.816 -0.3948 -0.3639  0.9450
19630TIP3   OH280304   5.081   3.138  17.108 -0.1791 -0.0527 -0.0652
19630TIP3    H180305   5.110   3.229  17.099  1.0494 -0.6327 -2.5590
19630TIP3    H280306   5.155   3.086  17.074 -1.2749 -1.9181  0.3365
19631TIP3   OH280307   3.150   0.951  15.455 -0.0361 -0.0992  0.4080
19631TIP3    H180308   3.147   0.943  15.360  0.3877  3.1348  0.0810
19631TIP3    H280309   3.129   1.043  15.472  0.1636 -0.5677  3.4271
19632TIP3   OH280310   6.469   3.549   3.161  0.2053 -0.0397  0.0722
19632TIP3    H180311   6.438   3.577   3.075  1.7109 -0.4359 -0.6015
19632TIP3    H280312   6.530   3.478   3.143 -1.0072 -1.5118  1.5821
19633TIP3   OH280313   3.439   5.115   6.292 -0.3840  0.1816 -0.1144
19633TIP3    H180314   3.468   5.196   6.334  1.2648 -0.3985 -0.1170
19633TIP3    H280315   3.394   5.067   6.362  0.7255  0.0473  0.5181
19634TIP3   OH280316   5.295   0.067   5.213  0.5309  0.0914  0.2106
19634TIP3    H180317   5.249   0.118   5.146 -0.2853 -0.3222  0.4407
19634TIP3    H280318   5.288  -0.023   5.182  0.3755 -0.0723  0.7236
19635TIP3   OH280319   2.552   5.395   4.838  0.3407  0.4716  0.0548
19635TIP3    H180320   2.600   5.313   4.824  0.0146  0.3588 -0.4120
19635TIP3    H280321   2.467   5.380   4.796  0.1322  0.9016  0.3275
19636TIP3   OH280322   5.772   3.161   4.217  0.5387 -0.3088 -0.2268
19636TIP3    H180323   5.688   3.119   4.235  0.3696  0.7386  1.5247
19636TIP3    H280324   5.759   3.205   4.133 -0.8689  0.2987  0.2822
19637TIP3   OH280325   5.411   5.952   3.527 -0.4456  0.5087 -0.4345
19637TIP3    H180326   5.426   5.910   3.612  0.0985 -0.2624 -0.9017
19637TIP3    H280327   5.385   6.042   3.548 -0.5652  0.2445  0.5506
19638TIP3   OH280328   6.169   2.141   0.801  0.2946 -0.6509 -0.1836
19638TIP3    H180329   6.156   2.090   0.721  1.3842 -1.6265  0.2560
19638TIP3    H280330   6.177   2.075   0.871  0.4981  0.1582  0.5647
19639TIP3   OH280331   3.165   0.238  11.486  0.5456 -0.4610  0.5374
19639TIP3    H180332   3.209   0.153  11.476  0.1023 -0.8912  2.1404
19639TIP3    H280333   3.122   0.233  11.571 -2.8656 -0.1529 -1.0974
19640TIP3   OH280334   4.907   2.274   3.033 -0.1502  0.1874 -0.3112
19640TIP3    H180335   4.948   2.332   3.096 -1.0278 -0.0819  0.5166
19640TIP3    H280336   4.976   2.212   3.009  0.5237  1.0138 -0.5203
19641TIP3   OH280337   4.558   1.460  16.419  0.1319 -0.8465  0.5872
19641TIP3    H180338   4.562   1.376  16.463 -1.2578 -0.0770  2.2247
19641TIP3    H280339   4.534   1.523  16.487  0.5870  0.7925 -0.7154
19642TIP3   OH280340   1.055   4.118  11.612 -0.3658 -0.3847 -0.1190
19642TIP3    H180341   1.144   4.143  11.588 -0.5872  0.5207 -0.0065
19642TIP3    H280342   1.065   4.033  11.656  0.4363 -0.2814 -0.1004
19643TIP3   OH280343   4.654   0.350   3.975 -0.0302 -0.0438 -0.3199
19643TIP3    H180344   4.725   0.301   3.933  0.8714  0.7711  0.2089
19643TIP3    H280345   4.600   0.382   3.903 -1.5510 -3.1202 -0.6233
19644TIP3   OH280346   6.153   5.977   3.699 -0.7079 -0.2866  0.1002
19644TIP3    H180347   6.242   5.964   3.733 -0.4026  1.1371 -0.1344
19644TIP3    H280348   6.165   5.988   3.605 -1.3678 -2.2883 -0.2519
19645TIP3   OH280349   3.380   1.790  14.341 -0.4185  0.2926  0.0477
19645TIP3    H180350   3.369   1.765  14.432  0.6480  1.3749  0.4881
19645TIP3    H280351   3.474   1.779  14.325 -1.0375 -2.9208 -1.8360
19646TIP3   OH280352   1.705   5.372   6.233  0.6199 -0.0745 -0.3063
19646TIP3    H180353   1.778   5.317   6.263 -0.4379 -1.0582  0.5528
19646TIP3    H280354   1.667   5.323   6.159 -0.1761 -0.4139  0.3082
19647TIP3   OH280355   5.347   0.423   5.263 -0.0854 -0.1639 -0.0240
19647TIP3    H180356   5.369   0.492   5.326 -1.2251  0.1785  0.0241
19647TIP3    H280357   5.428   0.374   5.251  1.3221  2.4004 -1.6014
19648TIP3   OH280358   5.291   3.471  12.106 -0.1983 -0.1660  0.3719
19648TIP3    H180359   5.362   3.487  12.169 -1.5465  2.6889  1.2586
19648TIP3    H280360   5.317   3.518  12.027  0.3013 -1.6548 -0.3667
19649TIP3   OH280361   3.804   0.842   1.390 -0.0985 -0.2786 -0.2659
19649TIP3    H180362   3.785   0.760   1.344  1.1996 -0.5272 -0.3778
19649TIP3    H280363   3.750   0.908   1.345 -2.0770 -1.2627  0.6020
19650TIP3   OH280364   3.622   0.260   5.518 -0.2238 -0.5489  0.0872
19650TIP3    H180365   3.705   0.304   5.504  1.2414 -3.2332 -0.1006
19650TIP3    H280366   3.604   0.217   5.434 -1.1977 -0.9403  0.4913
19651TIP3   OH280367   1.539   0.425  16.669 -0.0863  0.0515 -0.0165
19651TIP3    H180368   1.501   0.340  16.644 -0.8963  0.3969  0.0490
19651TIP3    H280369   1.607   0.402  16.732 -1.2698 -0.4499  1.1032
19652TIP3   OH280370   0.332   4.207  15.183 -0.1484 -0.2109 -0.0527
19652TIP3    H180371   0.346   4.291  15.141  1.2317 -0.6715 -0.5303
19652TIP3    H280372   0.359   4.220  15.274  0.4574 -0.2461 -0.2276
19653TIP3   OH280373   5.273   5.989   2.174  0.2145 -0.2378 -0.4610
19653TIP3    H180374   5.200   5.966   2.230 -0.7717  2.0339 -0.7353
19653TIP3    H280375   5.233   6.017   2.091  1.2750  1.9417 -0.2973
19654TIP3   OH280376   6.432   6.121  14.174  0.5493  0.0981  0.2631
19654TIP3    H180377   6.424   6.194  14.113  0.2006 -0.4846 -0.4013
19654TIP3    H280378   6.341   6.100  14.198  0.6094 -0.5393 -0.0599
19655TIP3   OH280379   1.718   3.977   0.149  0.0290  0.3510  0.3279
19655TIP3    H180380   1.729   4.005   0.240 -0.5947  0.7344  0.2843
19655TIP3    H280381   1.630   4.006   0.125 -0.1256 -0.4907 -0.1351
19656TIP3   OH280382   5.619   5.510   5.586  0.2056 -0.2550  0.1035
19656TIP3    H180383   5.701   5.560   5.592  0.9892 -1.7139  1.9308
19656TIP3    H280384   5.551   5.572   5.612  0.9889  0.3089  0.8199
19657TIP3   OH280385   2.965   4.730  17.066 -0.3861 -0.1896 -0.0791
19657TIP3    H180386   3.021   4.798  17.030  0.4902 -0.2995  1.0366
19657TIP3    H280387   2.877   4.754  17.039  0.0534  0.7281 -0.7067
19658TIP3   OH280388   5.392   3.642   0.790  0.8203 -0.1332 -0.8979
19658TIP3    H180389   5.413   3.657   0.883  0.9283  0.8033 -1.0648
19658TIP3    H280390   5.313   3.589   0.791  1.3585 -0.9404 -0.2656
19659TIP3   OH280391   0.642   2.374   1.609 -0.1105 -0.0596 -0.1220
19659TIP3    H180392   0.611   2.345   1.695  1.1032 -1.2653 -0.0806
19659TIP3    H280393   0.629   2.299   1.552  0.5005  0.2285 -0.6458
19660TIP3   OH280394   4.225   2.052   3.173 -0.2655 -0.0378  0.1125
19660TIP3    H180395   4.200   2.144   3.162  0.0368 -0.2692 -2.9597
19660TIP3    H280396   4.166   2.004   3.114 -0.4519 -1.8392  1.7071
19661TIP3   OH280397   5.609   2.887  13.009  0.1870  0.7023  0.4272
19661TIP3    H180398   5.561   2.807  13.028  0.5621  0.7124  1.4885
19661TIP3    H280399   5.700   2.860  13.005  0.2081  0.8880 -0.3563
19662TIP3   OH280400   1.680   3.033   3.044  0.1681 -0.1542 -0.0636
19662TIP3    H180401   1.683   3.093   2.970  4.4575  0.3285  0.3520
19662TIP3    H280402   1.690   2.946   3.005 -1.0469 -0.2189 -0.2650
19663TIP3   OH280403   3.869   2.669  12.597 -0.0356  0.1327 -0.2682
19663TIP3    H180404   3.819   2.640  12.673  0.4134  0.4838  0.1642
19663TIP3    H280405   3.874   2.592  12.541 -0.6913 -0.0232 -0.1178
19664TIP3   OH280406   5.416   6.427  12.855 -0.4363  0.8083  0.0615
19664TIP3    H180407   5.449   6.413  12.767 -1.0220  1.2477 -0.2291
19664TIP3    H280408   5.426   6.521  12.870  1.0837  0.5101  1.0414
19665TIP3   OH280409   3.455   6.157  12.487  0.0435 -0.2056 -0.3249
19665TIP3    H180410   3.501   6.085  12.444  0.4947 -0.7126  0.9798
19665TIP3    H280411   3.461   6.137  12.580 -1.3837  0.6042 -0.0525
19666TIP3   OH280412   0.754   2.523   4.750  0.0467 -0.7798  0.1302
19666TIP3    H180413   0.814   2.528   4.824 -1.9824 -1.8280  1.8980
19666TIP3    H280414   0.678   2.575   4.777  0.2128  0.7466 -2.1751
19667TIP3   OH280415   4.384   4.091  16.968  0.0104 -0.0028  0.7032
19667TIP3    H180416   4.395   3.996  16.957  1.0403  0.2106 -0.1983
19667TIP3    H280417   4.328   4.100  17.045 -1.3149 -1.3862 -0.0704
19668TIP3   OH280418   4.900   5.052   5.541  0.1711  0.8965  0.0656
19668TIP3    H180419   4.815   5.019   5.570 -0.1550  1.8881  0.2832
19668TIP3    H280420   4.943   4.977   5.502  0.2650 -0.2547  2.3087
19669TIP3   OH280421   1.205   5.795   4.822 -0.1064  0.3437  0.1733
19669TIP3    H180422   1.298   5.774   4.832 -0.1122  0.1848 -0.1196
19669TIP3    H280423   1.179   5.753   4.740 -0.3196  0.7945  0.0108
19670TIP3   OH280424   3.487   0.350   5.791 -0.8777 -0.4450 -0.4639
19670TIP3    H180425   3.477   0.255   5.790 -2.7533 -0.2498 -0.6151
19670TIP3    H280426   3.545   0.369   5.717  0.7374 -1.5779  0.4555
19671TIP3   OH280427   6.455   0.572  11.886 -0.3530 -0.1424 -0.4190
19671TIP3    H180428   6.390   0.509  11.857  0.9674 -2.1926  0.9810
19671TIP3    H280429   6.518   0.576  11.814 -1.1404  0.6375 -1.0848
19672TIP3   OH280430   0.160   3.137  11.631 -0.8064  0.4450  0.4060
19672TIP3    H180431   0.166   3.096  11.718  2.1058 -1.4274 -0.6000
19672TIP3    H280432   0.224   3.089  11.578 -1.4027  2.6169 -2.3663
19673TIP3   OH280433   1.713   0.141  11.677 -0.4304  0.0438  0.0834
19673TIP3    H180434   1.723   0.100  11.763 -0.2609  0.1747  0.1245
19673TIP3    H280435   1.763   0.085  11.618 -0.3291  0.1038  0.1131
19674TIP3   OH280436   6.647   2.091  12.514 -0.8673  0.0955 -0.7142
19674TIP3    H180437   6.670   2.027  12.446  0.2484 -1.6926  1.2893
19674TIP3    H280438   6.595   2.041  12.577 -0.2493  1.2503  0.7266
19675TIP3   OH280439   1.931   3.878   1.313  0.3313 -0.1753  0.3277
19675TIP3    H180440   2.021   3.850   1.327  0.1880 -0.0393  1.5603
19675TIP3    H280441   1.930   3.970   1.340 -0.1029 -0.0867  0.0201
19676TIP3   OH280442   5.843   5.993   2.083  0.2828 -0.6086  0.3120
19676TIP3    H180443   5.908   5.928   2.056  0.0310 -1.9745  2.8634
19676TIP3    H280444   5.759   5.947   2.075 -0.2944  0.6986 -1.6018
19677TIP3   OH280445   2.901   2.156   4.018  0.5041  0.4798 -0.1880
19677TIP3    H180446   2.838   2.210   3.970 -2.5174  0.0348  3.0247
19677TIP3    H280447   2.894   2.186   4.109  2.5387 -1.8472  0.7933
19678TIP3   OH280448   4.366   1.405   0.369 -0.1967 -0.0827  0.1899
19678TIP3    H180449   4.324   1.466   0.310 -0.7012 -1.2065 -0.6355
19678TIP3    H280450   4.456   1.398   0.337  0.5060  1.8890  1.6182
19679TIP3   OH280451   5.607   2.234   3.050  0.3588  0.0202  0.1868
19679TIP3    H180452   5.634   2.149   3.084  0.0239 -0.1698 -0.0067
19679TIP3    H280453   5.518   2.245   3.083  0.9665  1.0043  1.4863
19680TIP3   OH280454   4.743   0.275  12.026  0.0233 -0.2933 -0.1293
19680TIP3    H180455   4.827   0.315  12.047 -0.3015  0.8238 -0.9246
19680TIP3    H280456   4.733   0.205  12.090  1.4304 -0.2582  0.1404
19681TIP3   OH280457   3.205   3.983  13.003  0.1724  0.4909 -0.7018
19681TIP3    H180458   3.128   3.930  12.983 -0.3449  0.6200  0.8643
19681TIP3    H280459   3.175   4.074  12.992  0.6779  0.5071 -2.0570
19682TIP3   OH280460   0.688   6.057   3.481  0.4035  0.0796 -0.6328
19682TIP3    H180461   0.702   6.140   3.526 -0.7718  0.4287 -0.8944
19682TIP3    H280462   0.689   6.080   3.388 -3.1216  0.3784 -0.6814
19683TIP3   OH280463   0.878   0.164  13.905 -0.1546 -0.3843  0.2274
19683TIP3    H180464   0.949   0.119  13.860  0.0127 -0.2249  0.3344
19683TIP3    H280465   0.850   0.232  13.843 -0.3143 -0.5403  0.1258
19684TIP3   OH280466   1.640   2.854  15.110  0.1022 -0.6513 -0.2503
19684TIP3    H180467   1.698   2.809  15.172  3.6708  3.5041 -0.3549
19684TIP3    H280468   1.611   2.933  15.157 -0.5935  0.3752 -2.3556
19685TIP3   OH280469   1.037   1.791   0.710  0.0607  0.0138 -0.3251
19685TIP3    H180470   1.130   1.793   0.686  0.2129  0.6497  0.2851
19685TIP3    H280471   0.991   1.776   0.628  0.7485 -1.1085 -0.5054
19686TIP3   OH280472   3.751   1.373  12.580  0.2827  0.2534 -0.9191
19686TIP3    H180473   3.751   1.306  12.511  1.0593 -2.6679  1.8240
19686TIP3    H280474   3.819   1.434  12.553  0.6348 -0.8754 -2.7175
19687TIP3   OH280475   1.941   6.123  16.685  0.1236 -0.0243  0.6734
19687TIP3    H180476   1.861   6.103  16.733 -0.3516  2.2317  0.8930
19687TIP3    H280477   1.970   6.039  16.649 -1.3308 -1.1693  2.1176
19688TIP3   OH280478   1.991   1.800  17.112  0.0047  0.2153  0.3975
19688TIP3    H180479   1.986   1.722  17.057 -1.6988  0.6668 -0.1281
19688TIP3    H280480   1.996   1.766  17.201  0.3950 -0.5021  0.1071
19689TIP3   OH280481   0.118   1.494  16.132  0.1837 -0.3460 -0.1681
19689TIP3    H180482   0.140   1.414  16.084  2.1353  0.6462 -0.9534
19689TIP3    H280483   0.120   1.563  16.067 -2.1865  0.3037  0.3696
19690TIP3   OH280484   5.664   6.469  13.137  0.2338 -0.0867 -0.3191
19690TIP3    H180485   5.710   6.553  13.134 -0.8679  0.4988 -1.6144
19690TIP3    H280486   5.575   6.492  13.166  0.1601 -0.9215  0.1264
19691TIP3   OH280487   5.737   5.316   1.546  1.0895  0.0627  0.4436
19691TIP3    H180488   5.731   5.298   1.640  1.5095  0.3440  0.5291
19691TIP3    H280489   5.817   5.270   1.518  1.1784  0.3025  0.3029
19692TIP3   OH280490   0.940   2.947   4.016  0.4774 -0.3287 -0.5049
19692TIP3    H180491   0.952   3.040   3.996  0.9729 -0.0092  1.1532
19692TIP3    H280492   1.003   2.902   3.960  1.4930  0.4782 -0.0335
19693TIP3   OH280493   6.088   5.141   4.623  0.2554  0.3770  0.4574
19693TIP3    H180494   6.089   5.096   4.707  1.4264 -2.4100 -0.9828
19693TIP3    H280495   6.160   5.101   4.574 -1.2026  1.0769 -2.3199
19694TIP3   OH280496   2.449   4.295  11.415  0.3759  0.0567 -0.2904
19694TIP3    H180497   2.514   4.224  11.419  1.5033  1.1037  0.3032
19694TIP3    H280498   2.474   4.346  11.339  0.6067  0.7942  0.2737
19695TIP3   OH280499   2.851   3.976  15.647  0.4507  0.7175 -0.4808
19695TIP3    H180500   2.782   3.937  15.701  1.9901 -0.0880  0.9303
19695TIP3    H280501   2.812   3.980  15.559 -1.4625  0.4764  0.3292
19696TIP3   OH280502   6.224   4.316  12.522 -0.0979  0.1605  0.0647
19696TIP3    H180503   6.193   4.225  12.519  0.1974  0.0243  0.9539
19696TIP3    H280504   6.212   4.348  12.432 -1.6191 -0.2797  0.0859
19697TIP3   OH280505   2.479   1.798  15.074  0.0996 -0.1638  0.0217
19697TIP3    H180506   2.431   1.849  15.008 -0.3176 -0.3673  0.1691
19697TIP3    H280507   2.565   1.840  15.079  0.1765 -0.2222 -0.7485
19698TIP3   OH280508   1.740   4.954   0.227 -0.0333 -0.6303  0.4043
19698TIP3    H180509   1.737   4.995   0.314 -0.8203 -0.3904  0.2668
19698TIP3    H280510   1.825   4.909   0.225  0.2617 -0.1165  1.0598
19699TIP3   OH280511   0.790   1.321  14.928 -0.1591  0.0197  0.2517
19699TIP3    H180512   0.880   1.346  14.951 -0.1905 -0.8187  1.3517
19699TIP3    H280513   0.789   1.320  14.832  1.4790 -1.5875  0.2195
19700TIP3   OH280514   0.692   0.108   0.127 -0.4660  0.1600  0.1720
19700TIP3    H180515   0.694   0.167   0.052 -1.5156 -0.7174 -0.5591
19700TIP3    H280516   0.784   0.095   0.150 -0.2434  3.0286  1.1209
19701TIP3   OH280517   1.144   1.132   1.236 -0.1603 -0.5340  0.3207
19701TIP3    H180518   1.215   1.112   1.296 -0.2282 -1.4419  0.1051
19701TIP3    H280519   1.135   1.227   1.240 -0.1569 -0.5884  1.7307
19702TIP3   OH280520   1.025   1.903  12.482  0.3487  1.2048 -0.6053
19702TIP3    H180521   1.114   1.930  12.462  0.3427  1.1569 -0.7011
19702TIP3    H280522   1.009   1.829  12.423  1.1362 -0.4282  1.1533
19703TIP3   OH280523   4.342   0.682  12.089 -0.0742 -0.0834 -0.4268
19703TIP3    H180524   4.436   0.693  12.104  0.2770 -1.6207 -1.4316
19703TIP3    H280525   4.334   0.599  12.043 -1.9569 -0.0872 -0.1532
19704TIP3   OH280526   1.047   0.580  12.440  0.4546  0.2874 -0.2006
19704TIP3    H180527   1.061   0.621  12.355  0.7206  3.1832  1.1613
19704TIP3    H280528   0.957   0.603  12.464  0.4653 -0.2724  0.4010
19705TIP3   OH280529   1.474   4.450   5.404 -0.1049 -0.4714  0.1599
19705TIP3    H180530   1.541   4.513   5.378  0.1408 -0.7977 -0.0075
19705TIP3    H280531   1.521   4.387   5.459 -0.1123 -1.1155 -0.5671
19706TIP3   OH280532   5.323   6.051  16.426  0.3413 -0.2255  0.2558
19706TIP3    H180533   5.319   6.143  16.451  2.3678 -0.6513  2.3361
19706TIP3    H280534   5.274   6.006  16.495 -0.0906 -0.7767 -0.4033
19707TIP3   OH280535   0.125   3.274   0.508  0.7771  0.3225 -0.3694
19707TIP3    H180536   0.062   3.309   0.445 -0.7833 -1.6598  0.0307
19707TIP3    H280537   0.114   3.328   0.586 -0.0995  0.2833 -0.4603
19708TIP3   OH280538   1.178   0.543   1.821 -0.8206  0.0433 -0.0091
19708TIP3    H180539   1.189   0.460   1.868  1.6925  0.6350  0.5293
19708TIP3    H280540   1.165   0.608   1.891  1.1503  0.6554 -0.1693
19709TIP3   OH280541   1.875   5.787  13.519  0.0719  0.0869 -0.2699
19709TIP3    H180542   1.935   5.842  13.469  1.3949 -0.7426  0.3776
19709TIP3    H280543   1.795   5.784  13.466  1.2622 -0.3360 -2.0685
19710TIP3   OH280544   3.497   2.189  13.698  0.2020 -0.4589 -0.2436
19710TIP3    H180545   3.553   2.194  13.621 -1.0209 -0.5767 -1.1583
19710TIP3    H280546   3.490   2.280  13.729  0.3217 -0.3436 -0.5534
19711TIP3   OH280547   4.648   5.948  15.710  0.9145 -0.8113 -0.6966
19711TIP3    H180548   4.605   6.021  15.754 -1.8269 -2.4241 -0.5688
19711TIP3    H280549   4.702   5.907  15.778  1.8904  0.6235 -0.5828
19712TIP3   OH280550   1.145   0.578  14.936  0.3400 -0.8046  0.1091
19712TIP3    H180551   1.078   0.643  14.957 -2.2273 -2.9581 -1.1609
19712TIP3    H280552   1.177   0.547  15.020  1.7633  2.1571  0.7536
19713TIP3   OH280553   0.907   1.370   0.232  0.3914  0.6043 -0.2490
19713TIP3    H180554   0.815   1.393   0.243  0.1755  0.2515 -1.2253
19713TIP3    H280555   0.954   1.431   0.288 -0.5035  0.0915  1.1006
19714TIP3   OH280556   4.953   3.210  10.311  0.0844  0.2000 -0.2714
19714TIP3    H180557   4.917   3.252  10.389  0.2182  0.2483 -0.2362
19714TIP3    H280558   5.025   3.156  10.343  0.2706  0.3776 -0.3858
19715TIP3   OH280559   2.976   1.521  14.304 -0.1315 -0.3620 -0.4530
19715TIP3    H180560   2.948   1.576  14.377 -1.0681 -0.6241 -0.6105
19715TIP3    H280561   3.055   1.477  14.335 -0.1127  0.0798  0.1316
19716TIP3   OH280562   1.642   2.324   4.538 -0.1232 -0.1006 -0.1724
19716TIP3    H180563   1.658   2.237   4.575 -0.0409 -0.2687 -0.5992
19716TIP3    H280564   1.561   2.353   4.580  1.0350  0.5615  1.6665
19717TIP3   OH280565   0.811   2.541   2.754  0.5621  0.4063 -0.2353
19717TIP3    H180566   0.873   2.468   2.756  0.4326  0.2788 -0.8238
19717TIP3    H280567   0.842   2.600   2.822 -0.0056 -0.7511  1.0420
19718TIP3   OH280568   4.455   1.601   3.618 -0.4763 -0.5357 -0.1516
19718TIP3    H180569   4.412   1.686   3.612  0.6215  0.1809  1.6594
19718TIP3    H280570   4.503   1.593   3.535 -0.8564  0.4606 -0.4790
19719TIP3   OH280571   6.713   4.728   2.841  0.0754 -0.9297 -0.3314
19719TIP3    H180572   6.625   4.756   2.813 -0.0846 -1.0815  0.0120
19719TIP3    H280573   6.772   4.772   2.781 -0.2880 -1.6964 -1.2582
19720TIP3   OH280574   2.580   1.918   3.978 -0.0909 -0.1601 -0.4379
19720TIP3    H180575   2.490   1.942   3.953  0.2010  2.2646  0.6341
19720TIP3    H280576   2.599   1.975   4.052  2.2820 -0.7831 -0.5486
19721TIP3   OH280577   5.512   4.187   1.318 -0.4025  0.1325 -0.4323
19721TIP3    H180578   5.516   4.242   1.396  0.6824 -0.2335 -0.2280
19721TIP3    H280579   5.573   4.228   1.257  0.1777 -0.6766 -0.3889
19722TIP3   OH280580   3.006   1.643   2.769 -0.3145 -0.2946  0.1575
19722TIP3    H180581   3.101   1.641   2.756 -0.3363 -0.1109 -0.0307
19722TIP3    H280582   2.975   1.564   2.724 -0.1880 -0.6994  0.7622
19723TIP3   OH280583   0.344   3.018   5.253  0.4754 -0.9383  0.2407
19723TIP3    H180584   0.410   3.079   5.219  0.1736 -1.7472 -1.8587
19723TIP3    H280585   0.261   3.052   5.221 -0.1117 -0.2122  2.4506
19724TIP3   OH280586   6.185   1.443  12.072 -0.4691 -0.0442 -0.1774
19724TIP3    H180587   6.137   1.518  12.038  0.1821  0.1939 -0.5827
19724TIP3    H280588   6.154   1.434  12.162 -0.8263  0.4781 -0.2429
19725TIP3   OH280589   2.901   2.923  14.683 -0.3683  0.4288 -0.1320
19725TIP3    H180590   2.866   2.839  14.714 -0.2623 -0.0135 -1.1744
19725TIP3    H280591   2.989   2.928  14.722  0.3601 -0.8338 -1.5574
19726TIP3   OH280592   4.966   0.126  13.943  0.2080  0.3651  1.2427
19726TIP3    H180593   5.036   0.136  14.008  2.2666 -0.8697 -0.6974
19726TIP3    H280594   4.933   0.214  13.930  1.7196  1.0525  1.8952
19727TIP3   OH280595   1.624   6.127  12.829  0.2476  0.7557 -0.5463
19727TIP3    H180596   1.574   6.114  12.748 -1.5191 -0.4426  0.7120
19727TIP3    H280597   1.557   6.140  12.897  1.6477 -0.5376  1.1171
19728TIP3   OH280598   5.373   3.933  13.155  0.7462  0.0417 -0.3301
19728TIP3    H180599   5.455   3.911  13.112 -1.0093 -1.6456 -2.9756
19728TIP3    H280600   5.373   4.028  13.160  1.3795  0.2508 -3.4407
19729TIP3   OH280601   6.213   4.531   2.524  0.0263  0.6611 -0.2634
19729TIP3    H180602   6.281   4.599   2.523  1.8583 -1.1238  0.4998
19729TIP3    H280603   6.214   4.498   2.614 -0.7747 -0.4674 -0.6633
19730TIP3   OH280604   0.398   4.901  16.385  0.1604 -0.4113 -0.6938
19730TIP3    H180605   0.388   4.957  16.463 -1.4267  1.5430 -2.2426
19730TIP3    H280606   0.313   4.858  16.376  0.0251  0.1088 -1.9028
19731TIP3   OH280607   5.781   2.750  11.658  0.0017  0.9161 -0.2005
19731TIP3    H180608   5.699   2.793  11.682 -1.0162  0.2877 -2.3904
19731TIP3    H280609   5.769   2.659  11.687 -0.0775  0.8206 -0.5344
19732TIP3   OH280610   3.698   3.782  16.287 -0.2139 -0.3943 -0.2600
19732TIP3    H180611   3.617   3.773  16.237  1.5817 -0.7061 -3.2481
19732TIP3    H280612   3.728   3.692  16.301 -0.7877 -0.3258  1.6371
19733TIP3   OH280613   0.057   2.269  15.704  0.4834  0.2754  0.4515
19733TIP3    H180614   0.043   2.359  15.735 -1.5121  0.6771 -1.4037
19733TIP3    H280615   0.049   2.215  15.782 -3.3183  1.3211  0.9007
19734TIP3   OH280616   3.347   2.043   2.869  0.9560  0.6375  1.0792
19734TIP3    H180617   3.259   2.068   2.840  1.6516  0.8012 -0.9559
19734TIP3    H280618   3.377   2.116   2.922  0.6741  1.4997  0.0597
19735TIP3   OH280619   5.272   3.053  13.980  0.0775 -0.1395 -0.1772
19735TIP3    H180620   5.241   3.123  13.922 -0.2689  0.0074  0.1848
19735TIP3    H280621   5.328   2.999  13.924 -0.6091 -0.2499 -0.7684
19736TIP3   OH280622   0.355   4.997   1.185  0.3888 -0.0570  0.7030
19736TIP3    H180623   0.343   5.002   1.280  1.2025  1.7386  0.7280
19736TIP3    H280624   0.448   4.977   1.173  0.5387  0.8724  0.2708
19737TIP3   OH280625   4.724   4.560   0.204  0.3479  0.4978  0.5804
19737TIP3    H180626   4.701   4.648   0.235  1.1238  1.3498 -1.1672
19737TIP3    H280627   4.806   4.573   0.156 -0.2262 -0.9597 -0.8297
19738TIP3   OH280628   4.241   5.857   6.140 -0.3388  0.0880 -0.0456
19738TIP3    H180629   4.182   5.923   6.175  1.5247  0.8235  1.8090
19738TIP3    H280630   4.315   5.856   6.201  0.4998 -2.4357 -1.0375
19739TIP3   OH280631   1.631   6.592  15.424 -0.1657 -0.4224 -0.1476
19739TIP3    H180632   1.537   6.579  15.413 -0.1097 -2.0530  0.9999
19739TIP3    H280633   1.666   6.503  15.432  1.3974  0.1929 -0.0534
19740TIP3   OH280634   0.792   2.189  13.369  0.0835  0.0628 -0.2164
19740TIP3    H180635   0.842   2.108  13.382  1.8159  1.1178 -0.1019
19740TIP3    H280636   0.844   2.256  13.413 -0.6233  1.4634 -1.4673
19741TIP3   OH280637   5.999   1.067   3.303  0.1837  0.2161 -0.9711
19741TIP3    H180638   6.006   1.137   3.369 -1.5058  0.9696 -1.5676
19741TIP3    H280639   6.090   1.043   3.284  0.7200  0.0879  1.5088
19742TIP3   OH280640   1.322   0.744  13.747 -0.1375 -0.0776 -0.0307
19742TIP3    H180641   1.359   0.832  13.760  0.5406 -0.3474 -0.0794
19742TIP3    H280642   1.367   0.690  13.813 -1.1156 -0.2312  0.5129
19743TIP3   OH280643   1.980   1.212   1.580  0.3519  0.1987 -0.3362
19743TIP3    H180644   2.020   1.275   1.640 -0.2772 -0.0715  0.3832
19743TIP3    H280645   1.948   1.264   1.507 -0.0867  0.7044  0.2117
19744TIP3   OH280646   2.112   5.655   6.331 -0.5087 -0.1002  0.0853
19744TIP3    H180647   2.161   5.576   6.352  0.7159  0.7313  0.4576
19744TIP3    H280648   2.157   5.692   6.255 -1.0981  0.2055 -0.1189
19745TIP3   OH280649   3.233   0.307  12.006  0.3948 -0.0130  0.1185
19745TIP3    H180650   3.311   0.345  12.046  1.8038 -1.2169 -1.4111
19745TIP3    H280651   3.172   0.294  12.079  1.1329  2.1099  1.1351
19746TIP3   OH280652   1.383   2.328   3.953  0.0333 -0.1445  0.4119
19746TIP3    H180653   1.366   2.322   4.047  0.3877 -0.9676  0.4282
19746TIP3    H280654   1.452   2.264   3.937 -1.1798 -1.2189 -0.6944
19747TIP3   OH280655   4.268   2.128  16.702 -0.3467  0.3026  0.0365
19747TIP3    H180656   4.355   2.167  16.706 -0.4346  0.4906  0.1009
19747TIP3    H280657   4.211   2.198  16.671 -0.7466  0.6276  1.4660
19748TIP3   OH280658   0.771   1.957  13.066 -0.3882  0.6967  0.1299
19748TIP3    H180659   0.782   1.965  12.972  0.5221  1.5803  0.3031
19748TIP3    H280660   0.723   2.036  13.092 -1.6467 -0.1034  0.2505
19749TIP3   OH280661   5.659   6.492  14.416  0.1054 -0.3618 -0.0441
19749TIP3    H180662   5.707   6.461  14.339 -0.8885 -1.1544 -0.3514
19749TIP3    H280663   5.727   6.517  14.478  0.9266 -1.4717 -0.4780
19750TIP3   OH280664   6.741   4.434   6.299  0.2119  0.7015 -0.4198
19750TIP3    H180665   6.690   4.513   6.279 -1.0876  0.2001  0.8983
19750TIP3    H280666   6.677   4.364   6.303  1.2429 -0.2686 -0.5908
19751TIP3   OH280667   0.320   4.637  13.212  0.0155  0.3047 -0.1633
19751TIP3    H180668   0.405   4.642  13.256 -0.6254  0.0279  1.1152
19751TIP3    H280669   0.322   4.552  13.168  0.6838  0.6129 -0.7482
19752TIP3   OH280670   5.084   1.330  14.115  0.1627 -0.2112  0.0887
19752TIP3    H180671   5.119   1.380  14.189  0.0506  1.3395 -0.8883
19752TIP3    H280672   5.149   1.341  14.046 -1.2384  0.9569 -1.0629
19753TIP3   OH280673   2.514   3.740  14.017 -0.8304 -0.4280 -0.4936
19753TIP3    H180674   2.563   3.810  14.061 -0.2856 -0.7198 -0.6213
19753TIP3    H280675   2.423   3.755  14.041 -0.7043  0.2635 -0.4347
19754TIP3   OH280676   2.723   1.379   5.495  0.6396  0.5227 -0.2210
19754TIP3    H180677   2.676   1.442   5.440  1.5054 -1.1404 -2.9809
19754TIP3    H280678   2.816   1.395   5.475  0.8807 -1.4247 -0.8231
19755TIP3   OH280679   1.931   4.610  15.035 -0.0049  0.8226 -0.1386
19755TIP3    H180680   1.981   4.656  15.103 -1.1018  0.3517  1.0098
19755TIP3    H280681   1.972   4.523  15.031 -0.2971  0.6640  0.3166
19756TIP3   OH280682   6.484   4.816   0.969  0.4980 -0.2278 -0.3478
19756TIP3    H180683   6.436   4.736   0.948  0.6090 -0.4936  0.3914
19756TIP3    H280684   6.436   4.854   1.043  0.0643  0.7336 -1.1083
19757TIP3   OH280685   1.580   2.701  11.224 -0.0927 -0.0975  0.0756
19757TIP3    H180686   1.617   2.623  11.268  0.2102  0.0658  0.1153
19757TIP3    H280687   1.499   2.669  11.184  0.3153 -0.5715 -0.3863
19758TIP3   OH280688   0.332   3.449  11.749 -0.2101  0.0307  0.1520
19758TIP3    H180689   0.326   3.544  11.754  1.7160  0.2322 -0.9607
19758TIP3    H280690   0.260   3.422  11.692 -2.0304  0.6036  2.1038
19759TIP3   OH280691   4.826   1.253  12.253 -0.0558  0.4503 -0.0507
19759TIP3    H180692   4.845   1.343  12.279 -0.1351  0.4256  0.0909
19759TIP3    H280693   4.781   1.261  12.169  3.5901  0.3991 -2.1314
19760TIP3   OH280694   6.307   0.644   1.450  0.3893  0.7530  0.1557
19760TIP3    H180695   6.307   0.684   1.537  0.8370  0.9516  0.0635
19760TIP3    H280696   6.272   0.712   1.393 -0.9294  0.2545  0.3466
19761TIP3   OH280697   2.277   2.028  13.848  0.2194  0.2904 -0.1089
19761TIP3    H180698   2.219   1.998  13.918  0.3579  0.4964  0.0912
19761TIP3    H280699   2.226   2.012  13.768 -0.0887  0.4072  0.0615
19762TIP3   OH280700   6.599   2.345  10.588  0.1233 -0.4975  0.2513
19762TIP3    H180701   6.508   2.347  10.617 -0.5684 -0.2907 -1.9132
19762TIP3    H280702   6.639   2.274  10.639 -0.8067  0.4843  2.4081
19763TIP3   OH280703   4.056   5.313   6.028  0.0322 -0.4913 -0.3582
19763TIP3    H180704   3.995   5.296   6.100 -1.0723  1.5914 -0.7648
19763TIP3    H280705   4.138   5.338   6.070  0.6636 -3.3026  0.1959
19764TIP3   OH280706   4.214   6.057  15.059 -0.5445  0.8011  0.6794
19764TIP3    H180707   4.308   6.066  15.042 -0.8013  0.6903 -0.8166
19764TIP3    H280708   4.197   5.963  15.055 -0.6807  0.7999  1.2083
19765TIP3   OH280709   0.481   0.548  10.700 -0.2512 -0.3538  0.4528
19765TIP3    H180710   0.403   0.575  10.652 -0.9525 -1.4103  0.9703
19765TIP3    H280711   0.554   0.581  10.648 -1.0194 -0.5679 -0.7836
19766TIP3   OH280712   1.458   4.896  11.479 -0.0169  0.1858  0.2353
19766TIP3    H180713   1.463   4.921  11.572 -0.3225  0.6489  0.1245
19766TIP3    H280714   1.537   4.844  11.465  1.0992  1.8656  0.2288
19767TIP3   OH280715   4.943   0.252  16.077  0.7266 -0.3218 -0.6101
19767TIP3    H180716   4.865   0.284  16.122  1.0049  0.5455 -0.7527
19767TIP3    H280717   4.909   0.185  16.017  0.1408 -0.2185 -0.3969
19768TIP3   OH280718   6.232   6.705   3.668  0.3174 -0.5627  0.0007
19768TIP3    H180719   6.319   6.669   3.652 -0.0452 -1.1187 -0.7571
19768TIP3    H280720   6.229   6.785   3.616  0.4550 -0.4169  0.2142
19769TIP3   OH280721   3.970   2.680   2.300  0.4615  0.3020  0.3154
19769TIP3    H180722   4.027   2.614   2.340  0.1895 -1.2414 -1.7387
19769TIP3    H280723   4.010   2.698   2.214  0.0301  2.1605  0.4776
19770TIP3   OH280724   3.168   4.150  16.173  0.1348  0.5979  0.6241
19770TIP3    H180725   3.159   4.135  16.079  1.5849 -0.3322  0.6184
19770TIP3    H280726   3.134   4.071  16.214  2.7788 -0.5364  0.7521
19771TIP3   OH280727   6.082   4.173   1.735 -0.3437  0.1665  0.2077
19771TIP3    H180728   6.021   4.219   1.793  1.2872 -0.0819  2.1182
19771TIP3    H280729   6.154   4.147   1.791 -0.2019 -2.8420 -1.2995
19772TIP3   OH280730   5.786   0.489   3.476 -0.1640 -0.2787  0.1649
19772TIP3    H180731   5.759   0.503   3.567 -0.7835 -0.8539  0.0810
19772TIP3    H280732   5.823   0.400   3.476 -0.2395 -0.3110 -0.1591
19773TIP3   OH280733   0.452   2.733  15.670 -0.0803 -0.2846 -0.8890
19773TIP3    H180734   0.382   2.778  15.718  1.7888  1.0352  0.6571
19773TIP3    H280735   0.409   2.657  15.631 -2.8422  1.6268 -1.7323
19774TIP3   OH280736   4.896   6.396   0.041 -0.4477 -0.0335 -0.7112
19774TIP3    H180737   4.943   6.439  -0.030 -1.4211 -1.2769 -2.1338
19774TIP3    H280738   4.950   6.319   0.062 -0.3335  0.1508 -0.3126
19775TIP3   OH280739   2.929   3.614   5.959 -0.5036 -0.1468 -0.0404
19775TIP3    H180740   2.881   3.694   5.981 -0.9024 -0.7444  1.3064
19775TIP3    H280741   2.866   3.544   5.973 -0.3678 -0.6675 -1.8664
19776TIP3   OH280742   0.162   2.590   0.626 -0.0424  0.4815 -0.1350
19776TIP3    H180743   0.145   2.607   0.718  0.0717  1.5939 -0.3150
19776TIP3    H280744   0.186   2.497   0.623  2.0056  0.9445  1.2330
19777TIP3   OH280745   1.991   5.425  11.663  0.1124 -0.2494  0.0827
19777TIP3    H180746   1.934   5.462  11.730 -0.1656  0.5831 -0.6061
19777TIP3    H280747   2.058   5.491  11.649  0.5929 -0.7331  0.0580
19778TIP3   OH280748   2.044   4.735   1.847  0.1745  0.3025  0.0879
19778TIP3    H180749   2.137   4.720   1.864  0.1943 -1.9823 -1.8367
19778TIP3    H280750   1.999   4.669   1.900 -0.3924  1.4989  1.1327
19779TIP3   OH280751   6.082   5.897  15.054 -0.5042  0.5048  0.4256
19779TIP3    H180752   6.038   5.820  15.018 -0.4406  0.9125 -0.5351
19779TIP3    H280753   6.019   5.968  15.042  0.3536  1.0639 -0.8215
19780TIP3   OH280754   5.337   1.112  12.425 -0.6140 -0.7516  0.1688
19780TIP3    H180755   5.285   1.134  12.502 -1.1931 -0.8657 -0.1918
19780TIP3    H280756   5.335   1.016  12.421 -0.9845 -0.7295 -0.2599
19781TIP3   OH280757   3.768   3.965  13.364 -0.5737  0.2935  0.5563
19781TIP3    H180758   3.800   4.008  13.284 -0.6249 -0.3725  0.1742
19781TIP3    H280759   3.680   3.934  13.341 -0.3266 -0.4892  0.6557
19782TIP3   OH280760   5.639   0.545  14.186  0.4089 -0.6968  0.0336
19782TIP3    H180761   5.664   0.637  14.175 -1.3262 -0.5711 -3.5919
19782TIP3    H280762   5.712   0.496  14.147 -0.9497 -0.6363 -2.6576
19783TIP3   OH280763   4.189   3.466  12.995 -0.8125  0.0183 -0.4160
19783TIP3    H180764   4.104   3.423  13.003 -2.0652  2.1717 -1.6480
19783TIP3    H280765   4.208   3.464  12.901  0.5369 -0.4857 -0.1435
19784TIP3   OH280766   6.067   4.083  16.295 -0.1253  0.0824  0.6426
19784TIP3    H180767   6.018   4.101  16.215  0.9247  0.3775  0.0532
19784TIP3    H280768   6.049   4.158  16.352  1.1037  1.1153 -0.2867
19785TIP3   OH280769   6.490   6.672   0.897  0.3373 -0.1312  0.0705
19785TIP3    H180770   6.456   6.712   0.977  1.4376  1.0654 -0.0439
19785TIP3    H280771   6.513   6.746   0.841  1.7923 -0.9367 -0.4067
19786TIP3   OH280772   6.014   3.629  10.945  0.0736 -0.3558 -0.4346
19786TIP3    H180773   5.957   3.636  10.868  1.1718  0.9113 -1.1555
19786TIP3    H280774   6.090   3.580  10.914  0.4855  0.0982 -0.1407
19787TIP3   OH280775   2.540   6.431   1.229  0.4560 -0.3699 -0.3936
19787TIP3    H180776   2.563   6.407   1.139 -0.7258 -0.8244 -0.5888
19787TIP3    H280777   2.570   6.357   1.282  2.8222  0.7175 -0.1713
19788TIP3   OH280778   1.450   4.478   4.191 -0.2457 -0.7730  0.2778
19788TIP3    H180779   1.410   4.520   4.267 -0.2226 -0.2649  0.0146
19788TIP3    H280780   1.491   4.399   4.225 -1.8603 -1.5518  0.4915
19789TIP3   OH280781   1.811   1.639  16.333 -0.8014  0.4525  0.1408
19789TIP3    H180782   1.806   1.545  16.351 -0.7775 -0.1248 -2.6513
19789TIP3    H280783   1.897   1.665  16.367  0.6413 -1.2716 -2.0317
19790TIP3   OH280784   1.183   1.991  15.639  0.2914  0.1940  0.0379
19790TIP3    H180785   1.184   1.959  15.729  0.8351  0.7786  0.2432
19790TIP3    H280786   1.101   2.040  15.632  0.7045  0.9678  0.5107
19791TIP3   OH280787   5.432   2.126   5.479  0.5007 -0.2933 -0.0437
19791TIP3    H180788   5.455   2.079   5.559 -1.0667 -1.9602 -0.5575
19791TIP3    H280789   5.345   2.094   5.456 -0.3418  2.3794 -0.7803
19792TIP3   OH280790   5.876   2.103  16.855 -0.4295  0.0259 -0.4610
19792TIP3    H180791   5.912   2.190  16.873 -0.8303  0.4375 -1.6086
19792TIP3    H280792   5.785   2.109  16.882 -0.4586 -0.0412 -0.5435
19793TIP3   OH280793   2.171   1.392   1.968  0.1241 -0.3210 -0.4981
19793TIP3    H180794   2.239   1.344   2.015  0.3390  0.9841  0.5780
19793TIP3    H280795   2.094   1.336   1.972  0.2908 -0.4501  0.9766
19794TIP3   OH280796   1.824   1.038  17.134 -0.0986 -0.8205  0.2813
19794TIP3    H180797   1.841   1.115  17.188  0.0769 -0.4008 -0.3727
19794TIP3    H280798   1.900   0.982  17.148  0.4126 -0.2724 -0.3009
19795TIP3   OH280799   5.549   5.634   1.621  0.5701  0.8043  0.2718
19795TIP3    H180800   5.583   5.554   1.583 -0.8559  1.0799 -1.6916
19795TIP3    H280801   5.457   5.614   1.641  0.1886  1.9572 -0.2956
19796TIP3   OH280802   2.857   4.517  10.843 -0.1402 -0.4558  0.2777
19796TIP3    H180803   2.854   4.465  10.763  0.3806  0.1934 -0.1729
19796TIP3    H280804   2.841   4.607  10.813 -0.8473 -0.3261  1.0218
19797TIP3   OH280805   1.734   4.516   3.212 -0.2701 -0.3088  0.1830
19797TIP3    H180806   1.784   4.502   3.293 -1.7530  3.0962  1.8234
19797TIP3    H280807   1.789   4.574   3.159 -0.5126 -0.2121  0.0304
19798TIP3   OH280808   5.308   3.960  14.915  0.0651  0.0808  0.1348
19798TIP3    H180809   5.322   4.039  14.968 -0.5566 -0.0464  0.4900
19798TIP3    H280810   5.219   3.932  14.936  0.2299 -0.6348 -0.1026
19799TIP3   OH280811   6.160   3.193  15.527 -0.3332  0.4837  0.2690
19799TIP3    H180812   6.241   3.237  15.555 -0.0261  0.7688 -1.0593
19799TIP3    H280813   6.183   3.151  15.444 -2.0606  2.1645 -1.1104
19800TIP3   OH280814   0.857   6.253   2.073  0.4893 -0.1044 -0.7699
19800TIP3    H180815   0.938   6.270   2.121  0.2196  0.8778 -0.6634
19800TIP3    H280816   0.872   6.169   2.029  0.7688 -0.9923  0.9689
19801TIP3   OH280817   0.584   2.983  14.679  0.3413 -0.2915 -0.2293
19801TIP3    H180818   0.644   2.910  14.692  3.3768  2.2224  0.5653
19801TIP3    H280819   0.534   2.988  14.761 -2.6879 -3.7920 -1.7367
19802TIP3   OH280820   4.708   4.240  12.686  0.5315 -0.3288 -0.2705
19802TIP3    H180821   4.749   4.324  12.665 -1.7055  0.9467  0.3052
19802TIP3    H280822   4.693   4.244  12.781 -2.9529  0.2582 -0.7558
19803TIP3   OH280823   5.083   0.257   4.604  0.0919 -0.3055 -0.4231
19803TIP3    H180824   5.097   0.205   4.525 -0.5362  0.1040 -0.8112
19803TIP3    H280825   5.161   0.311   4.612 -1.0762  1.8151 -2.4405
19804TIP3   OH280826   0.878   3.651   0.231  0.1385  0.2504 -0.7224
19804TIP3    H180827   0.880   3.735   0.275 -0.0890  0.4933 -1.1683
19804TIP3    H280828   0.835   3.669   0.147 -1.9947 -0.7693  0.1391
19805TIP3   OH280829   3.244   3.964  14.854  0.4116  0.1380 -0.1905
19805TIP3    H180830   3.253   4.019  14.776  0.4664  1.9650  1.0699
19805TIP3    H280831   3.188   3.892  14.826  0.4253  0.7690 -1.9281
19806TIP3   OH280832   3.264   3.226   3.744 -0.4297 -0.2271 -0.8987
19806TIP3    H180833   3.334   3.165   3.767 -0.4427  0.1471  0.1583
19806TIP3    H280834   3.186   3.192   3.788 -0.3918  0.6436 -0.1423
19807TIP3   OH280835   2.107   3.803   4.926  0.5802  0.6352  0.1961
19807TIP3    H180836   2.040   3.789   4.859  0.2028 -2.2899  1.0791
19807TIP3    H280837   2.058   3.829   5.004  0.9094  2.8658 -0.3186
19808TIP3   OH280838   0.296   0.931   3.153 -0.2415  0.5396 -0.0578
19808TIP3    H180839   0.327   1.019   3.175  0.5832  0.2270  0.0537
19808TIP3    H280840   0.258   0.899   3.235 -2.7119  1.6789 -0.7142
19809TIP3   OH280841   4.757   5.836  12.520 -0.1629 -0.4066 -0.4016
19809TIP3    H180842   4.789   5.886  12.595 -0.9592  0.0008 -0.3252
19809TIP3    H280843   4.673   5.801  12.549  0.0033 -1.0978 -0.7505
19810TIP3   OH280844   2.578   4.562   4.955 -0.0680  0.1201  0.3590
19810TIP3    H180845   2.494   4.558   4.910  0.0732 -1.3214  0.2175
19810TIP3    H280846   2.556   4.590   5.044 -0.6062  0.5571  0.0939
19811TIP3   OH280847   1.080   1.092   6.178 -0.0015 -0.1260  0.1627
19811TIP3    H180848   1.141   1.037   6.225  1.5534  1.8865  0.5744
19811TIP3    H280849   1.045   1.152   6.244 -0.6642  0.2462 -0.5085
19812TIP3   OH280850   6.589   2.602   4.262 -0.1193  0.4493  0.6205
19812TIP3    H180851   6.496   2.612   4.243 -0.1533  1.2504  1.2028
19812TIP3    H280852   6.612   2.680   4.312  1.4262  1.4644 -1.6019
19813TIP3   OH280853   0.394   5.909   3.161 -0.0196 -0.0994  0.2524
19813TIP3    H180854   0.466   5.932   3.102  0.6401 -1.4617  0.5029
19813TIP3    H280855   0.339   5.988   3.165  0.8481  0.5634 -0.8333
19814TIP3   OH280856   1.142   2.219  13.397 -0.3053 -0.3259  0.2836
19814TIP3    H180857   1.105   2.281  13.460  0.3292 -2.1492  2.5450
19814TIP3    H280858   1.235   2.212  13.422  0.1352 -0.4661 -1.3740
19815TIP3   OH280859   6.542   4.487  12.822 -0.1349  0.4019  0.0695
19815TIP3    H180860   6.481   4.558  12.807  0.5211  0.8371 -0.5716
19815TIP3    H280861   6.603   4.521  12.887 -0.5353 -0.0072  0.6614
19816TIP3   OH280862   0.500   5.395   0.410 -0.2038  0.5203 -0.6057
19816TIP3    H180863   0.574   5.378   0.469 -0.9824 -0.8753 -0.0060
19816TIP3    H280864   0.437   5.327   0.430 -1.2021  1.0307 -1.9029
19817TIP3   OH280865   6.508   5.861  16.258 -0.8108  0.1254  0.0653
19817TIP3    H180866   6.525   5.954  16.272  1.7493 -0.5289  1.5756
19817TIP3    H280867   6.523   5.848  16.164  0.4855  0.9258  0.1534
19818TIP3   OH280868   2.258   0.261   5.873  0.2736 -0.2537  0.0132
19818TIP3    H180869   2.330   0.300   5.922  0.3014 -0.6027  0.2565
19818TIP3    H280870   2.294   0.180   5.837  0.6312  0.6391 -1.6772
19819TIP3   OH280871   1.660   5.486   2.273 -0.4687 -0.5097 -0.1519
19819TIP3    H180872   1.707   5.520   2.197  1.1334 -2.0308  0.1311
19819TIP3    H280873   1.728   5.444   2.326 -1.2681  1.8662  2.9151
19820TIP3   OH280874   1.519   2.831  16.945  0.4197 -0.4402  0.0320
19820TIP3    H180875   1.614   2.818  16.943  0.6319  1.0350  0.0661
19820TIP3    H280876   1.505   2.911  16.893 -0.5430  0.8232  2.1697
19821TIP3   OH280877   0.854   3.316   5.702 -0.0173  0.4135  0.8207
19821TIP3    H180878   0.898   3.393   5.737  0.1076  0.7287 -0.0188
19821TIP3    H280879   0.906   3.291   5.626  0.8600 -1.4489  1.9853
19822TIP3   OH280880   0.962   2.428   5.464  0.0476  0.2421  0.5379
19822TIP3    H180881   0.890   2.488   5.447  0.1783  0.1520 -0.3862
19822TIP3    H280882   0.967   2.422   5.559 -1.9055 -0.6287  0.6108
19823TIP3   OH280883   4.982   4.558  14.704 -0.1753 -0.3409  0.6081
19823TIP3    H180884   4.892   4.527  14.713  0.4293 -1.7057  2.2521
19823TIP3    H280885   5.034   4.478  14.694  1.0899  0.3151  1.8297
19824TIP3   OH280886   3.594   0.252   6.162 -0.0292 -0.0802  0.2270
19824TIP3    H180887   3.641   0.292   6.088  1.1347 -0.1738  0.8920
19824TIP3    H280888   3.502   0.258   6.138  0.2086  1.7757 -0.3049
19825TIP3   OH280889   0.757   6.128  14.405 -0.4168  0.4920 -0.4587
19825TIP3    H180890   0.723   6.080  14.481 -1.3473  0.2213 -1.0431
19825TIP3    H280891   0.833   6.175  14.439 -1.5513  1.3616  0.9544
19826TIP3   OH280892   1.615   5.435  12.913 -0.0812  0.6920  0.0308
19826TIP3    H180893   1.537   5.395  12.877 -0.1575  0.3317  0.5933
19826TIP3    H280894   1.657   5.366  12.964  0.1519  1.1238  0.4356
19827TIP3   OH280895   5.264   0.135  13.267 -0.0606  0.1734  0.3394
19827TIP3    H180896   5.186   0.091  13.232  0.5477 -1.1493  0.6274
19827TIP3    H280897   5.315   0.065  13.308  1.5835  0.9188 -0.3776
19828TIP3   OH280898   0.943   2.600   3.890 -0.2964  0.3827  0.1570
19828TIP3    H180899   1.034   2.626   3.909 -0.4038  1.6680 -0.9616
19828TIP3    H280900   0.899   2.603   3.974  0.0110  2.6646  0.2665
19829TIP3   OH280901   2.805   6.487  15.074 -0.4761 -0.4325 -0.8316
19829TIP3    H180902   2.826   6.424  15.143 -1.6290 -0.4299 -0.4783
19829TIP3    H280903   2.751   6.553  15.116  1.0155  1.0151 -1.1260
19830TIP3   OH280904   6.153   0.740  11.015 -0.1365 -0.5848  0.4826
19830TIP3    H180905   6.113   0.775  11.095 -1.5338  2.9586 -1.6091
19830TIP3    H280906   6.143   0.811  10.951  3.4355 -2.2212 -2.0769
19831TIP3   OH280907   5.688   0.670   2.583 -0.0942 -0.1771  0.0423
19831TIP3    H180908   5.676   0.588   2.535 -1.1184  0.5973 -1.0573
19831TIP3    H280909   5.613   0.724   2.557  0.1345  0.8068  1.3856
19832TIP3   OH280910   3.340   1.797   1.282 -0.5576  0.3565  0.0770
19832TIP3    H180911   3.300   1.863   1.338 -1.3277  0.5115 -0.6632
19832TIP3    H280912   3.330   1.830   1.193  2.2867  0.9942 -0.0694
19833TIP3   OH280913   2.196   4.146   3.617 -0.1806 -0.3662 -0.0525
19833TIP3    H180914   2.245   4.172   3.695  0.9745 -2.1573 -0.1566
19833TIP3    H280915   2.128   4.088   3.651 -1.2384  0.8140 -0.1069
19834TIP3   OH280916   2.628   4.384  16.782 -0.1524  0.0372 -0.1084
19834TIP3    H180917   2.653   4.464  16.828 -0.2312 -0.9155  1.6385
19834TIP3    H280918   2.645   4.402  16.690  1.0254  1.6092  0.4072
19835TIP3   OH280919   2.717   2.426   5.865  0.1350 -0.6979 -0.3022
19835TIP3    H180920   2.754   2.459   5.947  0.5626 -2.4084  0.2153
19835TIP3    H280921   2.784   2.446   5.799  0.3860 -0.5509 -0.0051
19836TIP3   OH280922   0.638   5.538   3.409 -0.3797 -0.1166  0.4656
19836TIP3    H180923   0.600   5.625   3.398 -0.8604 -0.2354  1.1770
19836TIP3    H280924   0.729   5.548   3.379 -0.6557  0.4350 -0.1985
19837TIP3   OH280925   1.429   4.616   5.136 -0.6986  0.3424 -0.4767
19837TIP3    H180926   1.492   4.635   5.205 -0.5510  0.3448 -0.6120
19837TIP3    H280927   1.397   4.701   5.108 -1.5985  0.2834  0.3689
19838TIP3   OH280928   1.777   5.805  14.773 -0.2485  0.3680 -0.5156
19838TIP3    H180929   1.802   5.897  14.765  0.3424  0.2399 -0.1304
19838TIP3    H280930   1.719   5.802  14.849  0.1310  0.3346 -0.2309
19839TIP3   OH280931   3.598   1.576   0.365  0.1738  0.1770  0.7345
19839TIP3    H180932   3.691   1.588   0.386  0.8298 -0.1751 -1.7724
19839TIP3    H280933   3.555   1.654   0.401  1.2973 -0.0539  2.6236
19840TIP3   OH280934   2.157   5.841   5.247 -0.3638  0.4022  0.2591
19840TIP3    H180935   2.158   5.838   5.343 -1.5643 -3.3723  0.2069
19840TIP3    H280936   2.065   5.855   5.225 -0.2078  0.4047 -0.3830
19841TIP3   OH280937   4.441   3.961   2.539  0.3478 -0.3130 -0.2033
19841TIP3    H180938   4.399   4.043   2.512 -1.5222 -0.7671  1.2488
19841TIP3    H280939   4.399   3.893   2.487  0.7433 -0.5242 -0.2464
19842TIP3   OH280940   6.239   5.754   5.720 -0.1634  0.1473  0.5052
19842TIP3    H180941   6.181   5.752   5.643  0.0331  0.4559  0.3488
19842TIP3    H280942   6.238   5.664   5.753  1.6986 -0.6024 -1.3212
19843TIP3   OH280943   4.975   1.943  11.158  0.2845 -0.4692 -0.1002
19843TIP3    H180944   4.959   2.024  11.207  0.3273  0.0359 -0.9196
19843TIP3    H280945   5.061   1.913  11.188 -0.3555 -1.0091  1.2921
19844TIP3   OH280946   3.362   5.690   0.966 -0.1416  0.0285 -0.5055
19844TIP3    H180947   3.273   5.658   0.954  0.2242 -1.8851  1.5114
19844TIP3    H280948   3.403   5.682   0.880 -1.6965  0.2204 -1.2638
19845TIP3   OH280949   3.626   1.932   6.326 -0.0580 -0.2253 -0.0203
19845TIP3    H180950   3.562   1.871   6.289 -0.1956  1.3750 -2.6033
19845TIP3    H280951   3.691   1.876   6.369 -1.0376 -2.1113 -0.9175
19846TIP3   OH280952   4.780   0.501  11.803  0.1990 -0.2756  0.0685
19846TIP3    H180953   4.767   0.591  11.834 -0.2001  0.7688 -2.9895
19846TIP3    H280954   4.694   0.475  11.770  0.3231 -1.7987  0.8925
19847TIP3   OH280955   4.259   2.613   3.540 -0.4116  1.3240  0.2511
19847TIP3    H180956   4.200   2.597   3.613 -1.9095  1.8377 -0.8324
19847TIP3    H280957   4.249   2.536   3.484 -0.9804  1.9722 -0.5466
19848TIP3   OH280958   6.772   3.474   4.705  0.2717 -0.3918  0.3313
19848TIP3    H180959   6.811   3.420   4.774  1.4886 -0.5516 -0.4716
19848TIP3    H280960   6.702   3.420   4.670 -1.3620  0.2824  2.4410
19849TIP3   OH280961   6.343   4.378   0.191 -0.1425  0.3098 -0.8054
19849TIP3    H180962   6.390   4.385   0.275 -1.0938  1.7466 -0.3793
19849TIP3    H280963   6.375   4.297   0.153 -1.5091 -1.6641  2.0719
19850TIP3   OH280964   5.277   3.521  12.953 -0.0603  0.2617 -0.0636
19850TIP3    H180965   5.280   3.595  12.891  0.2440 -0.1593 -0.5563
19850TIP3    H280966   5.361   3.476  12.941 -0.6565 -0.7507 -0.4917
19851TIP3   OH280967   5.704   3.645  13.027  0.7771  0.0179 -0.1474
19851TIP3    H180968   5.739   3.658  13.115  1.1516  1.5506 -0.4913
19851TIP3    H280969   5.695   3.551  13.017  2.2246 -0.2488  0.9607
19852TIP3   OH280970   3.319   2.586   0.467  0.1056 -0.1808 -0.3613
19852TIP3    H180971   3.294   2.678   0.468  2.7922  0.5826  0.5312
19852TIP3    H280972   3.405   2.583   0.509  1.3462 -2.6935 -2.8312
19853TIP3   OH280973   5.429   4.275   3.492 -0.1757  0.0199 -0.9146
19853TIP3    H180974   5.417   4.224   3.572  0.5339  2.5029  0.8389
19853TIP3    H280975   5.354   4.334   3.491 -1.4941 -1.6448 -3.4153
19854TIP3   OH280976   3.421   4.299  16.226  0.2496  0.1027 -0.2654
19854TIP3    H180977   3.368   4.225  16.198  0.4389  0.2489 -1.0165
19854TIP3    H280978   3.464   4.268  16.306  1.6253 -1.2057 -1.4661
19855TIP3   OH280979   6.034   6.051  15.552 -0.0298 -0.1211 -0.4602
19855TIP3    H180980   6.058   6.070  15.462  1.6922  0.3274  0.0710
19855TIP3    H280981   6.056   6.131  15.600  1.2071 -1.1461  0.7225
19856TIP3   OH280982   4.465   0.220   0.848  0.4414 -0.8554 -0.4369
19856TIP3    H180983   4.406   0.145   0.837  0.4805 -1.1161  1.0559
19856TIP3    H280984   4.553   0.181   0.849  0.4859 -0.7420 -0.0562
19857TIP3   OH280985   2.853   1.388   1.017  0.0626 -0.2980 -0.3302
19857TIP3    H180986   2.857   1.300   0.980  1.0337 -0.1403 -0.6166
19857TIP3    H280987   2.834   1.374   1.109  2.1287 -0.8988  0.0166
19858TIP3   OH280988   4.972   2.993  12.936 -0.0886 -0.4631 -0.1069
19858TIP3    H180989   5.041   2.987  13.002 -0.0683  1.8758  0.1262
19858TIP3    H280990   4.896   2.950  12.976  0.7274 -1.5662  0.2893
19859TIP3   OH280991   6.214   0.630  13.567  0.2849  0.3233 -0.4781
19859TIP3    H180992   6.229   0.570  13.641  0.7707  1.5564  0.4430
19859TIP3    H280993   6.300   0.637  13.525  0.6974  1.9053  0.6010
19860TIP3   OH280994   5.455   4.630  12.432  0.1469 -0.3630 -0.1927
19860TIP3    H180995   5.488   4.540  12.425 -1.1654 -0.9270  0.6378
19860TIP3    H280996   5.421   4.650  12.345  2.7189  0.2700 -1.0963
19861TIP3   OH280997   2.178   5.830   3.634  0.6194  0.4772  0.2328
19861TIP3    H180998   2.227   5.830   3.552  0.7067 -1.2218  0.2588
19861TIP3    H280999   2.229   5.772   3.692 -0.3242  0.3392  0.9330
19862TIP3   OH281000   3.853   0.764   0.174  0.2390 -0.4949  0.3866
19862TIP3    H181001   3.830   0.849   0.212 -2.6751 -1.0997  0.0981
19862TIP3    H281002   3.835   0.701   0.244 -1.3377 -1.2216 -0.6361
19863TIP3   OH281003   1.523   4.971  16.170 -0.2006 -0.8243 -0.4862
19863TIP3    H181004   1.482   5.058  16.171  1.6866  0.1054 -1.3156
19863TIP3    H281005   1.569   4.967  16.087  2.7118 -1.1900  1.0769
19864TIP3   OH281006   6.230   0.422  11.846  0.4071  0.0292 -0.4918
19864TIP3    H181007   6.262   0.359  11.910 -0.4495 -0.1981 -0.2754
19864TIP3    H281008   6.146   0.386  11.817 -0.3274  1.3266  0.0001
19865TIP3   OH281009   0.702   3.114  15.288 -0.3331  0.4765  0.0002
19865TIP3    H181010   0.749   3.125  15.205  0.4787  0.9255  0.5102
19865TIP3    H281011   0.730   3.028  15.320  0.9204  1.1698  0.7878
19866TIP3   OH281012   2.152   6.052   0.268  0.4496 -0.3957 -0.1327
19866TIP3    H181013   2.195   6.116   0.212 -1.5285  0.4178 -0.7948
19866TIP3    H281014   2.060   6.078   0.268  0.0195 -1.7524  1.6429
19867TIP3   OH281015   4.077   3.496   0.920 -0.5192 -0.1515  0.1121
19867TIP3    H181016   4.016   3.491   0.847 -0.0994 -0.2581 -0.2291
19867TIP3    H281017   4.154   3.447   0.891 -0.4708 -0.4482  0.7382
19868TIP3   OH281018   2.867   4.610   0.059 -0.2834  0.2915 -0.6762
19868TIP3    H181019   2.906   4.670  -0.004 -2.0165  0.2882 -1.7829
19868TIP3    H281020   2.810   4.666   0.113 -0.8387 -0.1248 -0.8245
19869TIP3   OH281021   1.913   5.783   3.543 -0.3018 -0.2176 -0.0195
19869TIP3    H181022   1.908   5.815   3.453 -2.5537 -1.2126 -0.2804
19869TIP3    H281023   2.000   5.810   3.573  0.1157  0.9532 -2.1630
19870TIP3   OH281024   5.138   5.056   1.822 -0.1014  0.0262  0.5290
19870TIP3    H181025   5.147   5.016   1.908 -0.3440  2.8685  1.9474
19870TIP3    H281026   5.063   5.011   1.782  0.7666 -2.1413  1.2763
19871TIP3   OH281027   5.596   3.889  13.527  0.3313 -0.2933 -0.3034
19871TIP3    H181028   5.515   3.939  13.537  0.1977 -0.5109 -0.2954
19871TIP3    H281029   5.574   3.821  13.464  0.1528 -1.0939  0.5966
19872TIP3   OH281030   4.152   0.314   0.404 -0.0022 -0.1230  0.1688
19872TIP3    H181031   4.241   0.305   0.438 -0.3747  0.7752  1.4012
19872TIP3    H281032   4.128   0.405   0.423 -0.9122 -0.1393 -0.8239
19873TIP3   OH281033   4.295   3.032  15.774  0.0540  0.0477 -0.5708
19873TIP3    H181034   4.246   3.026  15.692 -0.5024  1.3931 -0.3509
19873TIP3    H281035   4.229   3.021  15.843  0.4142 -0.3876 -0.2886
19874TIP3   OH281036   5.924   2.428  12.946 -0.3939  0.1519 -0.1926
19874TIP3    H181037   5.953   2.391  12.863 -0.3781 -0.4364  0.0677
19874TIP3    H281038   5.999   2.477  12.978 -0.1041 -0.3281 -0.1212
19875TIP3   OH281039   0.351   1.848  11.920  0.0874 -0.3647 -0.4713
19875TIP3    H181040   0.406   1.814  11.849  0.9310 -1.8428  0.8327
19875TIP3    H281041   0.272   1.880  11.877  0.1483 -2.1687 -1.9830
19876TIP3   OH281042   1.681   5.419  17.179 -0.3764  0.3310  0.6071
19876TIP3    H181043   1.630   5.425  17.260 -0.9837  0.5563  0.2127
19876TIP3    H281044   1.768   5.393  17.208 -0.3876  1.1398  1.4043
19877TIP3   OH281045   2.050   3.341  12.958  0.9163 -0.0080 -0.3484
19877TIP3    H181046   2.121   3.370  13.015 -0.4532 -0.7568  1.8140
19877TIP3    H281047   2.080   3.256  12.925  1.7385  0.4513 -0.8079
19878TIP3   OH281048   4.493   4.308   4.693 -1.2124  0.1911  0.0904
19878TIP3    H181049   4.482   4.316   4.788  0.0397  2.2585  0.0964
19878TIP3    H281050   4.587   4.303   4.680 -1.3477  0.4868 -1.0793
19879TIP3   OH281051   0.518   1.792  11.143  0.1672  0.2025  0.1403
19879TIP3    H181052   0.584   1.823  11.081 -0.2435  0.5637 -0.1188
19879TIP3    H281053   0.454   1.744  11.089 -0.6822  1.3149  0.1483
19880TIP3   OH281054   4.296   0.932   5.061 -0.1570 -0.1620 -0.3702
19880TIP3    H181055   4.372   0.936   5.119 -1.6270 -1.2847  1.6608
19880TIP3    H281056   4.322   0.871   4.992  1.0244 -0.0055 -0.0729
19881TIP3   OH281057   3.375   2.328   0.375 -0.1078  0.2930 -0.2588
19881TIP3    H181058   3.356   2.422   0.376 -0.7313  0.1633 -0.0983
19881TIP3    H281059   3.414   2.310   0.460  2.4279  0.9007 -1.2299
19882TIP3   OH281060   5.101   5.374  14.365  0.8974  0.2201  0.0848
19882TIP3    H181061   5.030   5.335  14.314  1.0683 -0.3182  0.2456
19882TIP3    H281062   5.127   5.304  14.426  2.2395  0.0530 -0.6575
19883TIP3   OH281063   2.051   2.951  11.473 -0.2165  0.4169  0.2289
19883TIP3    H181064   2.143   2.934  11.492 -0.0470 -0.6196 -1.4501
19883TIP3    H281065   2.050   2.974  11.380 -1.7392 -0.2792  0.0633
19884TIP3   OH281066   5.033   3.773   1.667 -0.3663  0.5742  0.3164
19884TIP3    H181067   5.055   3.807   1.581 -1.5539  0.9474  0.1522
19884TIP3    H281068   4.967   3.834   1.701 -0.4834 -0.0093  1.1583
19885TIP3   OH281069   1.186   4.759   0.116 -0.2507  0.9388  0.0383
19885TIP3    H181070   1.096   4.744   0.086  0.0911  1.4632 -1.2780
19885TIP3    H281071   1.229   4.674   0.107  0.0343  1.2322 -1.6803
19886TIP3   OH281072   1.280   1.482  13.880 -0.0673 -0.2728 -0.2294
19886TIP3    H181073   1.340   1.546  13.842  0.9380 -0.5133  0.9174
19886TIP3    H281074   1.264   1.419  13.810  1.4133 -0.4696 -0.4049
19887TIP3   OH281075   2.848   2.260   5.159  0.3441  0.0207 -0.5396
19887TIP3    H181076   2.768   2.236   5.113 -0.9470  1.0915  1.0641
19887TIP3    H281077   2.884   2.178   5.191  0.2770 -0.5393 -1.9112
19888TIP3   OH281078   0.747   1.498  16.488  0.7765  0.2498  0.2297
19888TIP3    H181079   0.670   1.523  16.539 -0.8781 -2.4736 -0.8167
19888TIP3    H281080   0.818   1.492  16.553 -0.5339  0.0921  1.6745
19889TIP3   OH281081   1.253   1.529  11.360 -0.2358  0.1094 -0.1978
19889TIP3    H181082   1.180   1.485  11.317 -0.6567  0.3266  0.2883
19889TIP3    H281083   1.276   1.471  11.433 -0.6986  0.6116  0.3583
19890TIP3   OH281084   4.807   1.583  17.221 -0.4052 -0.8521  0.7202
19890TIP3    H181085   4.728   1.596  17.274 -0.8981  0.5163 -0.3272
19890TIP3    H281086   4.775   1.545  17.139 -0.0549  0.1799  0.0898
19891TIP3   OH281087   4.686   2.685   3.427  0.2227  0.1101 -0.1486
19891TIP3    H181088   4.766   2.677   3.479  0.5142 -0.5897 -0.7039
19891TIP3    H281089   4.615   2.662   3.488  0.6982 -2.4524 -0.5238
19892TIP3   OH281090   3.007   0.962  12.947  0.0043  0.4049 -0.4006
19892TIP3    H181091   3.043   0.974  12.859  0.2251  1.8297 -0.1178
19892TIP3    H281092   2.957   0.881  12.941  1.3990 -0.4085 -1.3996
19893TIP3   OH281093   3.864   2.104  14.551 -0.4913  0.0460  0.5682
19893TIP3    H181094   3.876   2.167  14.622 -0.5530 -1.4593  1.9626
19893TIP3    H281095   3.810   2.150  14.487 -0.8743  1.2782  1.7446
19894TIP3   OH281096   1.258   0.179  15.757  0.7693  0.1020  0.7490
19894TIP3    H181097   1.172   0.150  15.727  0.6341 -0.2117  1.4335
19894TIP3    H281098   1.316   0.104  15.740  1.3808  1.0659 -1.7323
19895TIP3   OH281099   3.148   2.916   1.175  0.3724  0.5070  0.2708
19895TIP3    H181100   3.087   2.956   1.237 -1.0290  1.2398 -1.5503
19895TIP3    H281101   3.195   2.990   1.137  0.2292  0.1717 -0.5653
19896TIP3   OH281102   5.621   3.760  14.540  0.0736  0.2075 -0.0387
19896TIP3    H181103   5.632   3.791  14.450 -0.2362 -1.4680 -0.6791
19896TIP3    H281104   5.590   3.670  14.530 -0.0207  0.0321  1.7538
19897TIP3   OH281105   6.363   4.376   0.458 -0.0267 -0.0653 -0.1755
19897TIP3    H181106   6.333   4.322   0.531 -1.3761 -0.1469 -0.7641
19897TIP3    H281107   6.444   4.416   0.489 -1.2933  0.9959  1.8993
19898TIP3   OH281108   2.885   0.145   5.208  0.3444  0.2831 -0.6295
19898TIP3    H181109   2.929   0.061   5.221 -1.0345 -0.5576 -1.3281
19898TIP3    H281110   2.795   0.122   5.186 -0.5929  1.9851  1.2090
19899TIP3   OH281111   4.068   5.777   4.052  0.9610 -0.5473  0.5605
19899TIP3    H181112   3.997   5.826   4.093  1.1907  0.3762 -0.1229
19899TIP3    H281113   4.068   5.693   4.097 -1.4609 -1.0703 -0.3255
19900TIP3   OH281114   2.255   0.563  13.901  0.4524 -0.0082 -0.1356
19900TIP3    H181115   2.167   0.581  13.934  1.1668  1.5565  0.9269
19900TIP3    H281116   2.247   0.573  13.806 -1.2097 -2.8934 -0.3827
19901TIP3   OH281117   4.329   4.249  12.358 -0.2695 -0.2897  0.7036
19901TIP3    H181118   4.289   4.260  12.444 -1.3796 -1.3283  0.3537
19901TIP3    H281119   4.422   4.234  12.376 -0.1298  1.5756  1.5805
19902TIP3   OH281120   0.994   6.234  14.480  0.2428  0.5428 -0.3759
19902TIP3    H181121   1.087   6.222  14.462 -0.0446  0.8525 -2.1228
19902TIP3    H281122   0.976   6.325  14.453 -0.3714  0.7720  0.7829
19903TIP3   OH281123   0.601   4.773   1.828 -0.3321  0.3183  0.3517
19903TIP3    H181124   0.522   4.787   1.777 -0.6186  0.0439  0.7170
19903TIP3    H281125   0.668   4.826   1.784 -0.8450  0.9830  0.3656
19904TIP3   OH281126   2.894   1.647  10.916 -0.2127  0.3246 -0.5451
19904TIP3    H181127   2.959   1.638  10.985 -0.2949  1.1833 -0.3533
19904TIP3    H281128   2.892   1.560  10.874 -0.7447 -0.4298  1.0218
19905TIP3   OH281129   2.547   4.093  15.759  0.8477  0.2527 -0.1263
19905TIP3    H181130   2.560   4.121  15.849  1.3470  0.6608 -0.3189
19905TIP3    H281131   2.578   4.002  15.757 -0.5930 -0.2559  0.4542
19906TIP3   OH281132   4.811   5.974   0.392  0.2059  0.0536  0.0568
19906TIP3    H181133   4.779   5.886   0.414  1.6191 -0.4409  0.2066
19906TIP3    H281134   4.899   5.978   0.430 -0.1794  1.8655  0.8054
19907TIP3   OH281135   4.211   4.239   0.793  0.0030  0.0638  0.2394
19907TIP3    H181136   4.297   4.211   0.760  0.2291  0.6022  0.3554
19907TIP3    H281137   4.199   4.188   0.873  1.6795  2.2582  1.9713
19908TIP3   OH281138   5.854   5.588   2.146 -0.5248 -0.0423 -0.3842
19908TIP3    H181139   5.803   5.588   2.065 -0.0235  1.4186 -0.7118
19908TIP3    H281140   5.794   5.624   2.211  0.2954  2.4021 -0.9304
19909TIP3   OH281141   3.235   1.215  10.877 -0.5273  0.1815  0.2336
19909TIP3    H181142   3.219   1.309  10.885  0.9635  0.4774 -0.1158
19909TIP3    H281143   3.224   1.182  10.967  1.0395  1.0417  0.7643
19910TIP3   OH281144   0.402   2.485   0.359  0.6848  0.3541  0.0991
19910TIP3    H181145   0.420   2.559   0.417  1.0395  1.1703 -1.0228
19910TIP3    H281146   0.464   2.497   0.287  0.2917 -0.6757 -0.4120
19911TIP3   OH281147   2.503   1.948  11.203 -0.0271 -0.3343  0.3050
19911TIP3    H181148   2.584   1.900  11.187  0.9676  1.3185  0.1878
19911TIP3    H281149   2.516   2.032  11.158 -1.8323 -0.0712  0.2356
19912TIP3   OH281150   6.021   4.468  13.317 -0.2177  0.6519 -0.1491
19912TIP3    H181151   5.947   4.519  13.283  0.6913  2.0830 -0.0442
19912TIP3    H281152   6.083   4.535  13.347  1.4591 -0.5287 -0.9774
19913TIP3   OH281153   5.935   6.255  16.979  0.5926  0.2308  0.0171
19913TIP3    H181154   5.983   6.320  16.927 -0.7175  2.2744  1.2993
19913TIP3    H281155   5.947   6.172  16.931  2.2421  1.4039 -1.6769
19914TIP3   OH281156   2.646   1.009  12.093  0.1894 -0.2531 -0.5107
19914TIP3    H181157   2.621   1.007  12.000  0.5755  1.6144 -0.6841
19914TIP3    H281158   2.690   0.925  12.107  1.0119 -0.1587 -2.2958
19915TIP3   OH281159   3.590   4.787   3.897 -0.4197  0.4259 -0.0084
19915TIP3    H181160   3.587   4.711   3.955  0.0493  0.3479 -0.0792
19915TIP3    H281161   3.581   4.750   3.809 -0.0601  0.4384 -0.0512
19916TIP3   OH281162   4.964   0.110   5.426 -0.5013  0.3485  0.0665
19916TIP3    H181163   4.968   0.020   5.457  0.7907  0.0185 -0.9737
19916TIP3    H281164   4.955   0.163   5.505  1.9044 -0.5114  0.9651
19917TIP3   OH281165   6.022   0.267   5.068  0.1516 -0.1534  0.3912
19917TIP3    H181166   6.030   0.346   5.120  3.0989 -0.2030  0.0666
19917TIP3    H281167   6.036   0.296   4.978  0.0897 -0.8658  0.1470
19918TIP3   OH281168   2.014   0.043   3.331 -0.3213 -0.0319 -0.2237
19918TIP3    H181169   2.105   0.047   3.360 -0.7404 -1.6967  1.4163
19918TIP3    H281170   1.990   0.134   3.315  1.0471  0.5947  1.1778
19919TIP3   OH281171   6.774   5.846  15.374  0.1515  0.4457  0.9214
19919TIP3    H181172   6.833   5.774  15.353  0.4158  0.6266  1.0504
19919TIP3    H281173   6.764   5.893  15.291  0.3949  0.5711  0.9665
19920TIP3   OH281174   2.999   6.216  15.859  0.5032  0.5765 -0.4862
19920TIP3    H181175   2.925   6.261  15.900 -1.2532 -0.3659 -2.5290
19920TIP3    H281176   2.968   6.127  15.846  1.5890  0.4675 -2.4059
19921TIP3   OH281177   2.396   6.121   2.980 -0.2256  0.2046  0.1896
19921TIP3    H181178   2.360   6.181   2.914 -1.1992 -0.3887  0.1630
19921TIP3    H281179   2.422   6.044   2.930 -1.8404 -0.6279  0.6015
19922TIP3   OH281180   3.442   6.668  17.021 -0.0933  0.5340  0.1091
19922TIP3    H181181   3.404   6.587  16.988  2.2437  0.5155 -2.7562
19922TIP3    H281182   3.485   6.643  17.103  2.2071 -1.6306 -1.6556
19923TIP3   OH281183   2.602   1.059  11.184 -0.6318  0.3308  0.6327
19923TIP3    H181184   2.549   1.088  11.258 -1.2989 -0.2361  0.3822
19923TIP3    H281185   2.538   1.041  11.114 -0.3274 -2.3380  0.9746
19924TIP3   OH281186   3.655   4.126  12.340 -0.4131  0.3188 -0.2824
19924TIP3    H181187   3.634   4.132  12.433 -0.5075 -1.5562 -0.1671
19924TIP3    H281188   3.658   4.217  12.310  3.9939  1.2593  2.4846
19925TIP3   OH281189   6.407   5.447  17.079  0.0908 -0.0949  0.3190
19925TIP3    H181190   6.361   5.529  17.065 -2.9254 -1.7821 -0.1103
19925TIP3    H281191   6.385   5.394  17.003  1.2268 -1.6297  1.0376
19926TIP3   OH281192   3.588   6.308  16.082 -0.1937  0.3857  0.0727
19926TIP3    H181193   3.647   6.367  16.035 -1.2006  1.5622  0.2628
19926TIP3    H281194   3.642   6.231  16.102  0.0867 -0.4703 -3.5999
19927TIP3   OH281195   4.997   2.474  13.741  0.1270  0.5731 -0.3754
19927TIP3    H181196   5.012   2.555  13.789  0.3603  0.9263 -1.0438
19927TIP3    H281197   4.921   2.493  13.686 -1.5986 -0.5688  1.5462
19928TIP3   OH281198   4.155   0.417  12.252 -0.1024 -0.5373  0.5108
19928TIP3    H181199   4.246   0.438  12.274 -0.4795 -0.1712  1.8133
19928TIP3    H281200   4.104   0.471  12.313 -1.1873 -0.6937 -0.2589
19929TIP3   OH281201   6.625   1.648   0.697 -0.5016  0.2450  0.7736
19929TIP3    H181202   6.682   1.719   0.727  0.0873 -0.0654  0.4031
19929TIP3    H281203   6.674   1.605   0.627 -2.4670  1.8536 -1.6591
19930TIP3   OH281204   0.761   6.175  15.530 -0.4781 -0.6637 -0.1199
19930TIP3    H181205   0.791   6.252  15.579 -0.0471 -0.6991 -0.3310
19930TIP3    H281206   0.748   6.207  15.441  0.6447 -1.0674 -0.4249
19931TIP3   OH281207   5.143   6.300   1.808  0.0688  0.0495 -0.4673
19931TIP3    H181208   5.056   6.340   1.808  0.2366  0.4185 -0.0211
19931TIP3    H281209   5.165   6.290   1.901  0.0195 -1.1100 -0.5753
19932TIP3   OH281210   6.034   1.364  16.822 -0.1106  0.0091 -0.0789
19932TIP3    H181211   6.128   1.353  16.831  0.0526  1.6206  0.3484
19932TIP3    H281212   6.001   1.276  16.803  1.0494 -1.2337  3.3401
19933TIP3   OH281213   6.228   1.786   3.476  0.4287 -0.0007 -0.1459
19933TIP3    H181214   6.294   1.854   3.462  0.4385  0.0990  0.3677
19933TIP3    H281215   6.147   1.825   3.445  0.4563  0.2062  0.0377
19934TIP3   OH281216   1.352   5.349  12.121  0.0927 -0.3071 -0.6166
19934TIP3    H181217   1.299   5.269  12.122  0.5039 -0.5861  0.8031
19934TIP3    H281218   1.293   5.417  12.089 -0.8316 -0.8262 -0.0443
19935TIP3   OH281219   5.602   5.933  14.098  0.5488 -0.4407 -0.5747
19935TIP3    H181220   5.626   5.909  14.008  1.8431 -0.1402 -0.3175
19935TIP3    H281221   5.685   5.953  14.141 -0.2251  1.4276  0.1201
19936TIP3   OH281222   5.193   2.080   5.693  0.4131  0.1365  0.2634
19936TIP3    H181223   5.227   2.001   5.651  0.6141 -0.2790  1.1884
19936TIP3    H281224   5.268   2.115   5.742 -0.3044 -0.4152  1.7824
19937TIP3   OH281225   2.234   5.200   3.888  0.1152 -0.0538 -0.3355
19937TIP3    H181226   2.285   5.151   3.953  0.0332 -0.6616 -0.7238
19937TIP3    H281227   2.224   5.287   3.926  1.0631 -0.0615 -0.0523
19938TIP3   OH281228   6.456   4.286  12.648  0.0487  0.3376  0.4507
19938TIP3    H181229   6.371   4.279  12.605  0.0406 -0.6088  0.5968
19938TIP3    H281230   6.441   4.344  12.722 -0.2609  0.8780 -0.0361
19939TIP3   OH281231   0.074   5.724   6.332 -0.2878 -0.1569 -0.3761
19939TIP3    H181232   0.037   5.671   6.262 -2.6697 -0.8908  1.3909
19939TIP3    H281233   0.164   5.692   6.343 -1.0379 -2.4126 -0.7165
19940TIP3   OH281234   4.052   4.652   1.274  0.0897  0.3849 -0.1654
19940TIP3    H181235   4.056   4.740   1.313 -5.4493  0.2672  1.0651
19940TIP3    H281236   4.043   4.668   1.180  0.6078  1.0970 -0.0964
19941TIP3   OH281237   3.114   5.279   5.733  0.0502  0.0514 -0.4546
19941TIP3    H181238   3.020   5.281   5.751 -0.1872 -0.6097 -1.5692
19941TIP3    H281239   3.146   5.205   5.785 -0.0985  0.0818 -0.3155
19942TIP3   OH281240   6.169   1.281   5.642 -0.1100 -0.1152  0.6879
19942TIP3    H181241   6.177   1.263   5.548 -0.2666  2.4845  0.1258
19942TIP3    H281242   6.082   1.250   5.665 -1.4419  2.2804 -0.8454
19943TIP3   OH281243   4.605   3.318  11.965 -1.1433  0.5793  0.0818
19943TIP3    H181244   4.614   3.225  11.986 -0.9696  0.1411 -1.7579
19943TIP3    H281245   4.536   3.321  11.898 -1.3020  1.7942  0.2842
19944TIP3   OH281246   2.417   1.425  14.984 -0.5482 -0.1793 -0.0902
19944TIP3    H181247   2.379   1.505  14.950  0.6820  0.3224 -0.3092
19944TIP3    H281248   2.418   1.437  15.079  2.5145  1.4028 -0.2849
19945TIP3   OH281249   1.537   1.505  11.839  0.0106  0.0317 -0.6826
19945TIP3    H181250   1.577   1.458  11.766  2.4579 -2.0367  1.9041
19945TIP3    H281251   1.538   1.443  11.912 -1.2663  2.4432  1.4855
19946TIP3   OH281252   2.658   6.210  11.768 -0.1719 -0.1237  0.8467
19946TIP3    H181253   2.733   6.152  11.767 -0.1215 -0.0537 -0.1955
19946TIP3    H281254   2.682   6.280  11.829  0.7737  0.1070  0.2254
19947TIP3   OH281255   5.194   1.808  15.727 -0.7344 -0.4611  0.1551
19947TIP3    H181256   5.275   1.840  15.768 -0.3187 -0.1681 -0.8828
19947TIP3    H281257   5.135   1.883  15.729 -0.0920  0.1121 -1.4002
19948TIP3   OH281258   4.853   1.973   3.724  0.1654  0.1522  0.3403
19948TIP3    H181259   4.862   1.887   3.684  0.3241  0.8762 -1.2467
19948TIP3    H281260   4.778   2.012   3.680 -0.8653  0.2613  2.1364
19949TIP3   OH281261   5.551   1.164   3.122 -0.3139  0.4433  0.3842
19949TIP3    H181262   5.494   1.240   3.112 -0.0569  0.3386 -2.0961
19949TIP3    H281263   5.629   1.186   3.072 -0.3235 -1.5193 -0.5520
19950TIP3   OH281264   1.221   3.944  15.545  0.2037 -0.7058 -1.1502
19950TIP3    H181265   1.131   3.975  15.537  0.9065  1.3777 -1.4160
19950TIP3    H281266   1.243   3.912  15.457 -1.1375 -3.8400 -0.4256
19951TIP3   OH281267   0.826   6.064   2.290 -0.6201  0.2417  0.5454
19951TIP3    H181268   0.810   6.106   2.205 -2.6312 -0.6165  0.4610
19951TIP3    H281269   0.921   6.056   2.295 -0.4351  0.8622 -1.3610
19952TIP3   OH281270   2.822   6.170   0.312  0.7207  0.3830 -0.0952
19952TIP3    H181271   2.762   6.122   0.256 -0.2915 -1.1948  2.2871
19952TIP3    H281272   2.909   6.140   0.285  0.4850  2.1734 -3.0858
19953TIP3   OH281273   6.348   1.365   5.174 -0.4761  0.2312  0.0251
19953TIP3    H181274   6.311   1.389   5.259 -1.1405  0.0319 -0.1979
19953TIP3    H281275   6.293   1.292   5.144  0.1283 -0.0950 -0.3053
19954TIP3   OH281276   6.009   3.092   3.993 -0.6693 -0.4505  0.0570
19954TIP3    H181277   6.066   3.165   3.971 -0.1989 -0.7921  0.1319
19954TIP3    H281278   5.932   3.103   3.937 -0.3442 -0.2213 -0.3410
19955TIP3   OH281279   0.606   1.169  16.661 -0.0075  0.4592 -0.2832
19955TIP3    H181280   0.644   1.135  16.580  0.5376 -0.1628  0.2218
19955TIP3    H281281   0.521   1.126  16.667 -0.0889  0.5755 -0.5694
19956TIP3   OH281282   2.552   2.385  15.002 -0.0072 -0.0811 -0.1232
19956TIP3    H181283   2.486   2.359  15.066 -1.8225  1.9198 -1.1392
19956TIP3    H281284   2.627   2.413  15.054 -0.4428 -1.0867  1.0671
19957TIP3   OH281285   2.293   5.688  12.926  0.0511  0.3313 -0.2694
19957TIP3    H181286   2.384   5.712  12.908  0.4583 -1.7989 -1.1736
19957TIP3    H281287   2.298   5.624  12.997 -0.7908  0.5315 -0.0154
19958TIP3   OH281288   2.834   5.417  13.263 -0.1887  0.5422 -0.3163
19958TIP3    H181289   2.812   5.324  13.273 -0.3309  0.7448  1.3970
19958TIP3    H281290   2.756   5.456  13.223  0.4629 -0.3411 -2.5268
19959TIP3   OH281291   6.265   0.686  12.397 -0.0955 -0.9050 -0.2098
19959TIP3    H181292   6.326   0.714  12.466  0.4446 -1.9163 -0.2613
19959TIP3    H281293   6.242   0.766  12.351  1.4114 -0.5423 -0.3492
19960TIP3   OH281294   3.036   6.622   5.882  0.2379  1.2437 -0.1382
19960TIP3    H181295   3.058   6.705   5.924 -0.8207  1.3797  0.1566
19960TIP3    H281296   3.024   6.645   5.790 -1.6311  1.7369  0.1934
19961TIP3   OH281297   3.918   4.399   3.928  0.2510  0.4891  0.2277
19961TIP3    H181298   3.972   4.427   4.002  1.8272  0.5547 -0.9153
19961TIP3    H281299   3.975   4.411   3.851 -0.5639 -1.6583 -0.7602
19962TIP3   OH281300   1.492   3.212   5.958  0.0849  0.0186 -0.1318
19962TIP3    H181301   1.418   3.152   5.964  0.8480 -0.8470  0.7216
19962TIP3    H281302   1.479   3.273   6.030 -1.1885  1.4749 -1.5517
19963TIP3   OH281303   6.732   5.706  15.045  0.4512  0.4671  0.0845
19963TIP3    H181304   6.724   5.652  14.967  0.0098  0.9652 -0.2126
19963TIP3    H281305   6.680   5.784  15.027 -1.1979 -0.2418  1.6034
19964TIP3   OH281306   1.145   3.835  13.688  0.0025 -0.1881  0.3903
19964TIP3    H181307   1.168   3.816  13.779 -0.7083 -0.0933  0.5902
19964TIP3    H281308   1.167   3.754  13.641 -0.8793 -0.7080  0.8657
19965TIP3   OH281309   3.324   5.857  14.931  0.2437  0.4972  0.6779
19965TIP3    H181310   3.380   5.829  15.003 -1.2458 -0.2946  1.5673
19965TIP3    H281311   3.311   5.777  14.879 -2.0808  0.0543  1.8882
19966TIP3   OH281312   4.248   4.146   4.641 -0.1299  0.0124  0.0115
19966TIP3    H181313   4.328   4.191   4.670  0.1122 -1.4862  1.8250
19966TIP3    H281314   4.274   4.055   4.634 -1.7239 -0.5260  0.8290
19967TIP3   OH281315   0.790   5.400  13.641  0.3878 -0.4830 -0.1450
19967TIP3    H181316   0.819   5.485  13.606  0.4811 -0.7978 -0.8275
19967TIP3    H281317   0.733   5.424  13.714  1.6592  0.1562  0.6681
19968TIP3   OH281318   4.251   1.967  12.909  0.6105 -0.0351  0.2036
19968TIP3    H181319   4.195   1.996  12.837 -0.3608 -0.0210  0.9585
19968TIP3    H281320   4.314   1.908  12.868 -0.1609 -0.3105 -0.5945
19969TIP3   OH281321   5.862   2.818   3.543 -0.5479 -0.0903  0.0242
19969TIP3    H181322   5.927   2.759   3.581  0.4492  1.0165  0.0776
19969TIP3    H281323   5.841   2.780   3.458 -0.9408 -1.2513  0.6249
19970TIP3   OH281324   1.442   3.038  13.386  0.1069 -0.7614  0.0297
19970TIP3    H181325   1.450   2.973  13.316  1.6016 -0.8817  0.2939
19970TIP3    H281326   1.467   2.991  13.465 -0.9397 -0.4419  0.5576
19971TIP3   OH281327   3.315   4.021   1.104 -0.0477  0.0101  0.2471
19971TIP3    H181328   3.364   4.063   1.033  1.8187  0.1902  1.6051
19971TIP3    H281329   3.236   3.988   1.062  0.5024  1.0820 -1.6999
19972TIP3   OH281330   0.231   5.764  14.926  0.3142  0.4682 -0.0565
19972TIP3    H181331   0.313   5.771  14.975  0.0077  2.4988  0.2109
19972TIP3    H281332   0.165   5.744  14.993  0.3789  0.1140 -0.0968
19973TIP3   OH281333   6.525   4.079   5.088  0.3981 -0.3317 -0.9091
19973TIP3    H181334   6.569   4.013   5.142  0.0978 -0.3460 -0.6846
19973TIP3    H281335   6.575   4.078   5.006 -1.3911 -2.9933 -2.0373
19974TIP3   OH281336   0.032   2.735   2.015  0.2415 -0.5056  0.4509
19974TIP3    H181337  -0.035   2.760   2.080  1.1438 -0.3479  1.3339
19974TIP3    H281338   0.050   2.816   1.968  0.8300 -0.2048  1.1698
19975TIP3   OH281339   6.525   2.033   4.100  0.0653 -1.1005 -0.2609
19975TIP3    H181340   6.613   2.015   4.066  0.0218 -1.9652  0.0685
19975TIP3    H281341   6.493   2.105   4.046  1.7008  0.4904  0.8354
19976TIP3   OH281342   1.024   0.578  16.267  0.1678  0.3926 -0.2735
19976TIP3    H181343   1.100   0.527  16.238  1.0203  0.9948  0.8897
19976TIP3    H281344   1.056   0.630  16.340 -1.5664  0.0723  0.7440
19977TIP3   OH281345   5.139   3.760  11.545 -0.4984  0.2171  0.0819
19977TIP3    H181346   5.057   3.736  11.589 -1.6850  0.1218 -2.1436
19977TIP3    H281347   5.122   3.743  11.453  0.9875  3.1128 -0.7650
19978TIP3   OH281348   3.715   4.807   1.100 -0.3421  0.3500 -0.7165
19978TIP3    H181349   3.727   4.832   1.191 -0.3852 -0.8212 -0.3779
19978TIP3    H281350   3.670   4.722   1.104 -1.9406  1.1089 -1.8416
19979TIP3   OH281351   1.085   2.302  11.933  0.2840 -0.0468  0.1806
19979TIP3    H181352   1.092   2.233  11.867 -1.9545 -1.6674  1.5805
19979TIP3    H281353   1.004   2.348  11.912 -0.3111 -0.4123  1.6248
19980TIP3   OH281354   3.169   2.516   3.085 -0.1548  0.3680 -0.6950
19980TIP3    H181355   3.196   2.513   3.177  0.7785  1.5842 -0.9184
19980TIP3    H281356   3.130   2.430   3.069  2.1691 -0.8657  0.0896
19981TIP3   OH281357   0.045   6.709  13.773  0.2913 -0.0341 -0.2206
19981TIP3    H181358  -0.045   6.704  13.739 -0.0064  0.1832  0.5188
19981TIP3    H281359   0.048   6.645  13.844  1.0245 -0.7602 -0.8972
19982TIP3   OH281360   1.393   0.236  13.505  1.0478 -0.7468  0.1060
19982TIP3    H181361   1.347   0.165  13.550  1.5509 -0.3305  1.2873
19982TIP3    H281362   1.349   0.316  13.534 -0.9296 -0.6934 -2.9092
19983TIP3   OH281363   4.007   1.371  13.661 -0.8768 -0.1137 -0.3084
19983TIP3    H181364   4.026   1.342  13.751 -1.7887 -1.7658 -0.6377
19983TIP3    H281365   3.914   1.393  13.662 -1.1059 -1.0126 -1.0635
19984LIG      O81366   4.948   4.966  16.307  0.1533 -0.2568 -0.1843
19984LIG     C181367   5.053   4.867  16.296  0.1608  0.0874 -0.1085
19984LIG     C281368   5.173   4.907  16.383 -0.4980  0.4393  0.3341
19984LIG     C381369   4.980   4.743  16.349 -0.5019 -0.4571 -0.2322
19984LIG     H181370   5.093   4.870  16.193 -1.3654 -0.8107 -0.7359
19984LIG     H281371   5.203   5.012  16.362  2.0273 -0.4721 -0.8013
19984LIG     H381372   5.263   4.849  16.354  0.0292  0.3442  2.0976
19984LIG     H481373   5.145   4.886  16.488 -2.2552  2.3910  0.3062
19984LIG     H581374   5.035   4.649  16.327 -1.3997 -0.6533 -1.7209
19984LIG     H681375   4.884   4.726  16.296 -1.5497 -0.8536  1.7412
19984LIG     H781376   4.945   4.761  16.453  0.0879 -1.3079  0.1209
19984LIG     H881377   4.986   5.047  16.271 -0.5228 -0.4352 -1.3111
   6.78697   6.78697  17.23950
